 Gaussian 16, Revision A.03,
 Gaussian 16:  ES64L-G16RevA.03 25-Dec-2016

 ------------------
 #p CCSD(T)/cc-pVTZ
 ------------------

 ------------
 H2O_H2O_2255
 ------------
 Symbolic Z-matrix:
 Charge =  0 Multiplicity = 1

                         Standard orientation:
 ---------------------------------------------------------------------
 Center     Atomic      Atomic             Coordinates (Angstroms)
 Number     Number       Type             X           Y           Z
 ---------------------------------------------------------------------
      1          8           0        0.079859    1.998610   -0.000000
      2          1           0        0.079280    1.016009   -0.000000
      3          1           0       -0.849446    2.317825   -0.000000
      4          8           0        0.079859   -1.839563    0.000000
      5          1           0        0.395158   -2.770204    0.000000
      6          1           0       -0.902736   -1.836005    0.000000
 ---------------------------------------------------------------------

 SCF Done:  E(RHF) =  -152.110085140     A.U. after   10 cycles
 E2 =    -0.5263629224D+00 EUMP2 =    -0.15263644806230D+03
 CCSD(T)
 CCSD(T)= -0.15266356192D+03

 The electronic state is 1-A'.
 Alpha  occ. eigenvalues --  -20.57115 -20.54405  -1.34390  -1.31728  -0.71826
 Alpha  occ. eigenvalues --   -0.69100  -0.57942  -0.55182  -0.51508  -0.48857
 Alpha virt. eigenvalues --    0.11854   0.16276   0.19586   0.24740   0.52746
 Alpha virt. eigenvalues --    0.55757   0.56262   0.58087   0.68734   0.71949
 Alpha virt. eigenvalues --    0.76901   0.79097   0.80083   0.81906   0.83469

 Mulliken charges:
               1
     1  O   -0.518687
     2  H    0.265785
     3  H    0.246574
     4  O   -0.505174
     5  H    0.259450
     6  H    0.252053
 Sum of Mulliken charges =  -0.00000

 Dipole moment (field-independent basis, Debye):
    X=             -2.7041    Y=             -2.9403    Z=             -0.0000  Tot=              3.9947
 Quadrupole moment (field-independent basis, Debye-Ang):
   XX=            -10.1158   YY=             -8.2648   ZZ=            -14.7198
   XY=             -3.0395   XZ=              0.0000   YZ=             -0.0000

 Normal termination of Gaussian 16 at Sun Aug 28 05:47:58 2022.
