 Gaussian 16, Revision A.03,
 Gaussian 16:  ES64L-G16RevA.03 25-Dec-2016

 ------------------
 #p CCSD(T)/cc-pVTZ
 ------------------

 ------------
 H2O_H2O_2140
 ------------
 Symbolic Z-matrix:
 Charge =  0 Multiplicity = 1

                         Standard orientation:
 ---------------------------------------------------------------------
 Center     Atomic      Atomic             Coordinates (Angstroms)
 Number     Number       Type             X           Y           Z
 ---------------------------------------------------------------------
      1          8           0        0.044893    1.960336   -0.000000
      2          1           0        0.042710    0.977737   -0.000000
      3          1           0       -0.883890    2.281066   -0.000000
      4          8           0        0.044893   -1.779971    0.000000
      5          1           0        0.860682   -2.327689    0.000000
      6          1           0       -0.737790   -2.374038    0.000000
 ---------------------------------------------------------------------

 SCF Done:  E(RHF) =  -152.111951468     A.U. after   10 cycles
 E2 =    -0.5262989375D+00 EUMP2 =    -0.15263825040560D+03
 CCSD(T)
 CCSD(T)= -0.15266532627D+03

 The electronic state is 1-A'.
 Alpha  occ. eigenvalues --  -20.57230 -20.53805  -1.34482  -1.31156  -0.71867
 Alpha  occ. eigenvalues --   -0.68572  -0.58146  -0.54627  -0.51622  -0.48307
 Alpha virt. eigenvalues --    0.12260   0.16852   0.19205   0.25612   0.51967
 Alpha virt. eigenvalues --    0.55199   0.56429   0.58964   0.69059   0.72104
 Alpha virt. eigenvalues --    0.76648   0.77874   0.80584   0.83519   0.83820

 Mulliken charges:
               1
     1  O   -0.527848
     2  H    0.268542
     3  H    0.249598
     4  O   -0.508928
     5  H    0.261499
     6  H    0.257137
 Sum of Mulliken charges =  -0.00000

 Dipole moment (field-independent basis, Debye):
    X=             -1.5204    Y=             -3.3669    Z=              0.0000  Tot=              3.6943
 Quadrupole moment (field-independent basis, Debye-Ang):
   XX=             -9.1595   YY=             -7.7650   ZZ=            -14.7272
   XY=             -4.2177   XZ=              0.0000   YZ=             -0.0000

 Normal termination of Gaussian 16 at Sun Aug 28 04:39:44 2022.
