 Gaussian 16, Revision A.03,
 Gaussian 16:  ES64L-G16RevA.03 25-Dec-2016

 ------------------
 #p CCSD(T)/cc-pVTZ
 ------------------

 ------------
 H2O_H2O_3683
 ------------
 Symbolic Z-matrix:
 Charge =  0 Multiplicity = 1

                         Standard orientation:
 ---------------------------------------------------------------------
 Center     Atomic      Atomic             Coordinates (Angstroms)
 Number     Number       Type             X           Y           Z
 ---------------------------------------------------------------------
      1          8           0        0.070192    2.573099   -0.000000
      2          1           0        0.069416    1.590498   -0.000000
      3          1           0       -0.859049    2.892499   -0.000000
      4          8           0        0.070192   -2.402843    0.000000
      5          1           0        0.560820   -3.254189    0.000000
      6          1           0       -0.894255   -2.590854    0.000000
 ---------------------------------------------------------------------

 SCF Done:  E(RHF) =  -152.108637873     A.U. after   10 cycles
 E2 =    -0.5258738320D+00 EUMP2 =    -0.15263451170509D+03
 CCSD(T)
 CCSD(T)= -0.15266169426D+03

 The electronic state is 1-A'.
 Alpha  occ. eigenvalues --  -20.56389 -20.54842  -1.33684  -1.32152  -0.71093
 Alpha  occ. eigenvalues --   -0.69545  -0.57181  -0.55622  -0.50803  -0.49275
 Alpha virt. eigenvalues --    0.12686   0.15324   0.19460   0.21649   0.53342
 Alpha virt. eigenvalues --    0.55045   0.56479   0.57973   0.66800   0.69191
 Alpha virt. eigenvalues --    0.78099   0.78833   0.79575   0.80265   0.82849

 Mulliken charges:
               1
     1  O   -0.513833
     2  H    0.261496
     3  H    0.251527
     4  O   -0.513968
     5  H    0.259723
     6  H    0.255055
 Sum of Mulliken charges =   0.00000

 Dipole moment (field-independent basis, Debye):
    X=             -2.4004    Y=             -3.0190    Z=              0.0000  Tot=              3.8569
 Quadrupole moment (field-independent basis, Debye-Ang):
   XX=             -9.6815   YY=             -7.2233   ZZ=            -14.7156
   XY=             -3.9367   XZ=              0.0000   YZ=             -0.0000

 Normal termination of Gaussian 16 at Fri Aug 26 23:05:39 2022.
