 Gaussian 16, Revision A.03,
 Gaussian 16:  ES64L-G16RevA.03 25-Dec-2016

 ------------------
 #p CCSD(T)/cc-pVTZ
 ------------------

 -----------
 H2O_H2O_637
 -----------
 Symbolic Z-matrix:
 Charge =  0 Multiplicity = 1

                         Standard orientation:
 ---------------------------------------------------------------------
 Center     Atomic      Atomic             Coordinates (Angstroms)
 Number     Number       Type             X           Y           Z
 ---------------------------------------------------------------------
      1          8           0        0.056088    1.361165    0.000000
      2          1           0        0.053621    0.378566    0.000000
      3          1           0       -0.872602    1.682163    0.000000
      4          8           0        0.056088   -1.182380   -0.000000
      5          1           0        0.749147   -1.878926   -0.000000
      6          1           0       -0.827575   -1.612082   -0.000000
 ---------------------------------------------------------------------

 SCF Done:  E(RHF) =  -152.106028511     A.U. after   11 cycles
 E2 =    -0.5307900667D+00 EUMP2 =    -0.15263681857743D+03
 CCSD(T)
 CCSD(T)= -0.15266336180D+03

 The electronic state is 1-A'.
 Alpha  occ. eigenvalues --  -20.59798 -20.49807  -1.37875  -1.27982  -0.74792
 Alpha  occ. eigenvalues --   -0.69914  -0.59088  -0.54682  -0.50429  -0.44983
 Alpha virt. eigenvalues --    0.11398   0.17517   0.19700   0.33236   0.47776
 Alpha virt. eigenvalues --    0.53909   0.60817   0.61347   0.70650   0.72331
 Alpha virt. eigenvalues --    0.72810   0.78165   0.81341   0.82972   0.84305

 Mulliken charges:
               1
     1  O   -0.596954
     2  H    0.312255
     3  H    0.228303
     4  O   -0.453108
     5  H    0.258276
     6  H    0.251227
 Sum of Mulliken charges =   0.00000

 Dipole moment (field-independent basis, Debye):
    X=             -1.8084    Y=             -4.1022    Z=             -0.0000  Tot=              4.4831
 Quadrupole moment (field-independent basis, Debye-Ang):
   XX=             -9.2823   YY=             -9.2223   ZZ=            -14.6917
   XY=             -3.0809   XZ=             -0.0000   YZ=             -0.0000

 Normal termination of Gaussian 16 at Fri Aug 26 19:33:11 2022.
