 Gaussian 16, Revision A.03,
 Gaussian 16:  ES64L-G16RevA.03 25-Dec-2016

 ------------------
 #p CCSD(T)/cc-pVTZ
 ------------------

 -----------
 H2O_H2O_203
 -----------
 Symbolic Z-matrix:
 Charge =  0 Multiplicity = 1

                         Standard orientation:
 ---------------------------------------------------------------------
 Center     Atomic      Atomic             Coordinates (Angstroms)
 Number     Number       Type             X           Y           Z
 ---------------------------------------------------------------------
      1          8           0        0.085623   -1.175752    0.000000
      2          1           0        0.085057   -0.193151    0.000000
      3          1           0       -0.843686   -1.494954    0.000000
      4          8           0        0.085623    1.026206    0.000000
      5          1           0        0.276765    1.990038    0.000000
      6          1           0       -0.888103    0.894437    0.000000
 ---------------------------------------------------------------------

 SCF Done:  E(RHF) =  -152.059674476     A.U. after   11 cycles
 E2 =    -0.5366239752D+00 EUMP2 =    -0.15259629845080D+03
 CCSD(T)
 CCSD(T)= -0.15262218481D+03

 The electronic state is 1-A'.
 Alpha  occ. eigenvalues --  -20.61188 -20.48024  -1.41998  -1.27049  -0.81106
 Alpha  occ. eigenvalues --   -0.70758  -0.57216  -0.57133  -0.48684  -0.43866
 Alpha virt. eigenvalues --    0.10774   0.16085   0.21375   0.32172   0.49325
 Alpha virt. eigenvalues --    0.51431   0.59753   0.65745   0.71459   0.72720
 Alpha virt. eigenvalues --    0.76068   0.77561   0.79957   0.84272   0.85946

 Mulliken charges:
               1
     1  O   -0.601800
     2  H    0.273734
     3  H    0.197953
     4  O   -0.332919
     5  H    0.227822
     6  H    0.235210
 Sum of Mulliken charges =  -0.00000

 Dipole moment (field-independent basis, Debye):
    X=             -2.6713    Y=              4.0592    Z=              0.0000  Tot=              4.8593
 Quadrupole moment (field-independent basis, Debye-Ang):
   XX=            -10.3828   YY=             -9.7633   ZZ=            -14.5651
   XY=              2.3040   XZ=              0.0000   YZ=              0.0000

 Normal termination of Gaussian 16 at Fri Aug 26 16:34:40 2022.
