 Gaussian 16, Revision A.03,
 Gaussian 16:  ES64L-G16RevA.03 25-Dec-2016

 ------------------
 #p CCSD(T)/cc-pVTZ
 ------------------

 ------------
 H2O_H2O_1254
 ------------
 Symbolic Z-matrix:
 Charge =  0 Multiplicity = 1

                         Standard orientation:
 ---------------------------------------------------------------------
 Center     Atomic      Atomic             Coordinates (Angstroms)
 Number     Number       Type             X           Y           Z
 ---------------------------------------------------------------------
      1          8           0        0.082818   -1.597256    0.000000
      2          1           0        0.082252   -0.614655    0.000000
      3          1           0       -0.846491   -1.916458    0.000000
      4          8           0        0.082818    1.442770    0.000000
      5          1           0        0.336587    2.392036    0.000000
      6          1           0       -0.897442    1.374967    0.000000
 ---------------------------------------------------------------------

 SCF Done:  E(RHF) =  -152.110773210     A.U. after   10 cycles
 E2 =    -0.5281318405D+00 EUMP2 =    -0.15263890505062D+03
 CCSD(T)
 CCSD(T)= -0.15266590237D+03

 The electronic state is 1-A'.
 Alpha  occ. eigenvalues --  -20.58273 -20.53364  -1.35690  -1.30821  -0.73345
 Alpha  occ. eigenvalues --   -0.68347  -0.59239  -0.54086  -0.52736  -0.47923
 Alpha virt. eigenvalues --    0.11622   0.16694   0.19966   0.29626   0.48960
 Alpha virt. eigenvalues --    0.54587   0.58234   0.58610   0.69056   0.73107
 Alpha virt. eigenvalues --    0.74674   0.77141   0.81404   0.81913   0.83756

 Mulliken charges:
               1
     1  O   -0.535871
     2  H    0.281101
     3  H    0.237026
     4  O   -0.472925
     5  H    0.244430
     6  H    0.246239
 Sum of Mulliken charges =  -0.00000

 Dipole moment (field-independent basis, Debye):
    X=             -2.7503    Y=              3.1127    Z=              0.0000  Tot=              4.1537
 Quadrupole moment (field-independent basis, Debye-Ang):
   XX=            -10.2925   YY=             -8.7649   ZZ=            -14.7154
   XY=              2.7090   XZ=              0.0000   YZ=              0.0000

 CCSD(T)=-152.6659024\RMSD=7.347e-09\PG=CS [SG(H4O2)]\\@
 Normal termination of Gaussian 16 at Fri Aug 26 23:24:56 2022.
