 Gaussian 16, Revision A.03,
 Gaussian 16:  ES64L-G16RevA.03 25-Dec-2016

 ------------------
 #p CCSD(T)/cc-pVTZ
 ------------------

 ------------
 H2O_H2O_2438
 ------------
 Symbolic Z-matrix:
 Charge =  0 Multiplicity = 1

                         Standard orientation:
 ---------------------------------------------------------------------
 Center     Atomic      Atomic             Coordinates (Angstroms)
 Number     Number       Type             X           Y           Z
 ---------------------------------------------------------------------
      1          8           0        0.052318    2.079727   -0.000000
      2          1           0        0.050583    1.097127   -0.000000
      3          1           0       -0.876611    2.400034   -0.000000
      4          8           0        0.052318   -1.899859    0.000000
      5          1           0        0.789932   -2.549036    0.000000
      6          1           0       -0.800987   -2.387072    0.000000
 ---------------------------------------------------------------------

 SCF Done:  E(RHF) =  -152.110983352     A.U. after   10 cycles
 E2 =    -0.5261359956D+00 EUMP2 =    -0.15263711934795D+03
 CCSD(T)
 CCSD(T)= -0.15266422276D+03

 The electronic state is 1-A'.
 Alpha  occ. eigenvalues --  -20.56993 -20.54090  -1.34253  -1.31424  -0.71648
 Alpha  occ. eigenvalues --   -0.68819  -0.57853  -0.54906  -0.51389  -0.48567
 Alpha virt. eigenvalues --    0.12301   0.16483   0.19318   0.24338   0.52553
 Alpha virt. eigenvalues --    0.55588   0.56245   0.59015   0.69011   0.70964
 Alpha virt. eigenvalues --    0.77276   0.78558   0.80282   0.81280   0.83664

 Mulliken charges:
               1
     1  O   -0.523279
     2  H    0.266905
     3  H    0.249749
     4  O   -0.510317
     5  H    0.260592
     6  H    0.256351
 Sum of Mulliken charges =  -0.00000

 Dipole moment (field-independent basis, Debye):
    X=             -1.7765    Y=             -3.3072    Z=              0.0000  Tot=              3.7541
 Quadrupole moment (field-independent basis, Debye-Ang):
   XX=             -9.2285   YY=             -7.5704   ZZ=            -14.7234
   XY=             -4.1860   XZ=              0.0000   YZ=             -0.0000

 Normal termination of Gaussian 16 at Sun Aug 28 07:17:32 2022.
