 Gaussian 16, Revision A.03,
 Gaussian 16:  ES64L-G16RevA.03 25-Dec-2016

 ------------------
 #p CCSD(T)/cc-pVTZ
 ------------------

 ------------
 H2O_H2O_1183
 ------------
 Symbolic Z-matrix:
 Charge =  0 Multiplicity = 1

                         Standard orientation:
 ---------------------------------------------------------------------
 Center     Atomic      Atomic             Coordinates (Angstroms)
 Number     Number       Type             X           Y           Z
 ---------------------------------------------------------------------
      1          8           0        0.070237    1.575869   -0.000000
      2          1           0        0.068941    0.593268   -0.000000
      3          1           0       -0.858835    1.895760   -0.000000
      4          8           0        0.070237   -1.405687    0.000000
      5          1           0        0.560416   -2.257292    0.000000
      6          1           0       -0.894310   -1.593189    0.000000
 ---------------------------------------------------------------------

 SCF Done:  E(RHF) =  -152.112533437     A.U. after   10 cycles
 E2 =    -0.5281575933D+00 EUMP2 =    -0.15264069103061D+03
 CCSD(T)
 CCSD(T)= -0.15266762953D+03

 The electronic state is 1-A'.
 Alpha  occ. eigenvalues --  -20.58448 -20.52604  -1.35859  -1.30137  -0.73288
 Alpha  occ. eigenvalues --   -0.68084  -0.59461  -0.53332  -0.52928  -0.47251
 Alpha virt. eigenvalues --    0.11745   0.17169   0.19492   0.30539   0.48630
 Alpha virt. eigenvalues --    0.54810   0.57944   0.59076   0.69785   0.73102
 Alpha virt. eigenvalues --    0.73746   0.76519   0.81934   0.82317   0.84369

 Mulliken charges:
               1
     1  O   -0.547439
     2  H    0.287415
     3  H    0.237847
     4  O   -0.484063
     5  H    0.253880
     6  H    0.252360
 Sum of Mulliken charges =  -0.00000

 Dipole moment (field-independent basis, Debye):
    X=             -2.3293    Y=             -3.4698    Z=              0.0000  Tot=              4.1791
 Quadrupole moment (field-independent basis, Debye-Ang):
   XX=             -9.7091   YY=             -8.6288   ZZ=            -14.7240
   XY=             -3.1244   XZ=              0.0000   YZ=             -0.0000

 Normal termination of Gaussian 16 at Fri Aug 26 22:57:34 2022.
