 Gaussian 16, Revision A.03,
 Gaussian 16:  ES64L-G16RevA.03 25-Dec-2016

 ------------------
 #p CCSD(T)/cc-pVTZ
 ------------------

 -----------
 H2O_H2O_645
 -----------
 Symbolic Z-matrix:
 Charge =  0 Multiplicity = 1

                         Standard orientation:
 ---------------------------------------------------------------------
 Center     Atomic      Atomic             Coordinates (Angstroms)
 Number     Number       Type             X           Y           Z
 ---------------------------------------------------------------------
      1          8           0        0.026828    1.358096    0.000000
      2          1           0        0.022403    0.375504    0.000000
      3          1           0       -0.901221    1.680945    0.000000
      4          8           0        0.026828   -1.184976   -0.000000
      5          1           0        0.974792   -1.443564   -0.000000
      6          1           0       -0.525218   -1.997842   -0.000000
 ---------------------------------------------------------------------

 SCF Done:  E(RHF) =  -152.105948047     A.U. after   11 cycles
 E2 =    -0.5306450351D+00 EUMP2 =    -0.15263659308229D+03
 CCSD(T)
 CCSD(T)= -0.15266314366D+03

 The electronic state is 1-A'.
 Alpha  occ. eigenvalues --  -20.59703 -20.49883  -1.37826  -1.28053  -0.75128
 Alpha  occ. eigenvalues --   -0.69286  -0.59460  -0.54612  -0.50445  -0.45078
 Alpha virt. eigenvalues --    0.11589   0.18137   0.19295   0.33593   0.47720
 Alpha virt. eigenvalues --    0.53985   0.58294   0.66620   0.68347   0.72300
 Alpha virt. eigenvalues --    0.73391   0.77542   0.80559   0.83659   0.84020

 Mulliken charges:
               1
     1  O   -0.604078
     2  H    0.304441
     3  H    0.239158
     4  O   -0.445430
     5  H    0.261987
     6  H    0.243922
 Sum of Mulliken charges =  -0.00000

 Dipole moment (field-independent basis, Debye):
    X=             -0.8749    Y=             -3.9862    Z=             -0.0000  Tot=              4.0811
 Quadrupole moment (field-independent basis, Debye-Ang):
   XX=             -9.2579   YY=             -9.2116   ZZ=            -14.6899
   XY=             -3.3241   XZ=             -0.0000   YZ=              0.0000

 Normal termination of Gaussian 16 at Fri Aug 26 19:36:01 2022.
