 Gaussian 16, Revision A.03,
 Gaussian 16:  ES64L-G16RevA.03 25-Dec-2016

 ------------------
 #p CCSD(T)/cc-pVTZ
 ------------------

 ---------
 H2O_H2O_2
 ---------
 Symbolic Z-matrix:
 Charge =  0 Multiplicity = 1

                         Standard orientation:
 ---------------------------------------------------------------------
 Center     Atomic      Atomic             Coordinates (Angstroms)
 Number     Number       Type             X           Y           Z
 ---------------------------------------------------------------------
      1          8           0        0.088247   -1.093116    0.000000
      2          1           0        0.087856   -0.110515    0.000000
      3          1           0       -0.841118   -1.412153    0.000000
      4          8           0        0.088247    0.948835    0.000000
      5          1           0        0.216114    1.923082    0.000000
      6          1           0       -0.874810    0.753834    0.000000
 ---------------------------------------------------------------------

 SCF Done:  E(RHF) =  -152.007792586     A.U. after   11 cycles
 E2 =    -0.5399677033D+00 EUMP2 =    -0.15254776028883D+03
 CCSD(T)
 CCSD(T)= -0.15257313389D+03

 The electronic state is 1-A'.
 Alpha  occ. eigenvalues --  -20.61936 -20.45980  -1.45716  -1.25829  -0.84916
 Alpha  occ. eigenvalues --   -0.72209  -0.58928  -0.55403  -0.46484  -0.42534
 Alpha virt. eigenvalues --    0.10466   0.15596   0.22029   0.31210   0.49354
 Alpha virt. eigenvalues --    0.50470   0.60296   0.66597   0.70284   0.72226
 Alpha virt. eigenvalues --    0.75046   0.78742   0.80624   0.85904   0.87467

 Mulliken charges:
               1
     1  O   -0.620317
     2  H    0.244683
     3  H    0.180267
     4  O   -0.271753
     5  H    0.225613
     6  H    0.241506
 Sum of Mulliken charges =  -0.00000

 Dipole moment (field-independent basis, Debye):
    X=             -2.7008    Y=              4.3242    Z=              0.0000  Tot=              5.0983
 Quadrupole moment (field-independent basis, Debye-Ang):
   XX=            -10.4769   YY=            -10.1123   ZZ=            -14.4808
   XY=              2.1057   XZ=              0.0000   YZ=              0.0000

 Normal termination of Gaussian 16 at Fri Aug 26 15:12:14 2022.
