 Gaussian 16, Revision A.03,
 Gaussian 16:  ES64L-G16RevA.03 25-Dec-2016

 ------------------
 #p CCSD(T)/cc-pVTZ
 ------------------

 ------------
 H2O_H2O_4302
 ------------
 Symbolic Z-matrix:
 Charge =  0 Multiplicity = 1

                         Standard orientation:
 ---------------------------------------------------------------------
 Center     Atomic      Atomic             Coordinates (Angstroms)
 Number     Number       Type             X           Y           Z
 ---------------------------------------------------------------------
      1          8           0        0.088229   -2.808311    0.000000
      2          1           0        0.088083   -1.825709    0.000000
      3          1           0       -0.841216   -3.127116    0.000000
      4          8           0        0.088229    2.663986    0.000000
      5          1           0        0.216340    3.638201    0.000000
      6          1           0       -0.874877    2.469225    0.000000
 ---------------------------------------------------------------------

 SCF Done:  E(RHF) =  -152.107816658     A.U. after   10 cycles
 E2 =    -0.5258723829D+00 EUMP2 =    -0.15263368904115D+03
 CCSD(T)
 CCSD(T)= -0.15266089820D+03

 The electronic state is 1-A'.
 Alpha  occ. eigenvalues --  -20.56244 -20.55232  -1.33546  -1.32534  -0.70960
 Alpha  occ. eigenvalues --   -0.69930  -0.57012  -0.55989  -0.50657  -0.49649
 Alpha virt. eigenvalues --    0.12728   0.14859   0.19045   0.21644   0.53210
 Alpha virt. eigenvalues --    0.54900   0.56540   0.57762   0.66822   0.68623
 Alpha virt. eigenvalues --    0.78235   0.79221   0.79442   0.81253   0.82072

 Mulliken charges:
               1
     1  O   -0.510324
     2  H    0.258253
     3  H    0.251945
     4  O   -0.511393
     5  H    0.258625
     6  H    0.252894
 Sum of Mulliken charges =   0.00000

 Dipole moment (field-independent basis, Debye):
    X=             -3.0238    Y=              2.5369    Z=              0.0000  Tot=              3.9471
 Quadrupole moment (field-independent basis, Debye-Ang):
   XX=            -10.5505   YY=             -8.5052   ZZ=            -14.7125
   XY=              2.6672   XZ=              0.0000   YZ=              0.0000

 Normal termination of Gaussian 16 at Sun Aug 28 01:43:24 2022.
