 Gaussian 16, Revision A.03,
 Gaussian 16:  ES64L-G16RevA.03 25-Dec-2016

 ------------------
 #p CCSD(T)/cc-pVTZ
 ------------------

 ------------
 H2O_H2O_4243
 ------------
 Symbolic Z-matrix:
 Charge =  0 Multiplicity = 1

                         Standard orientation:
 ---------------------------------------------------------------------
 Center     Atomic      Atomic             Coordinates (Angstroms)
 Number     Number       Type             X           Y           Z
 ---------------------------------------------------------------------
      1          8           0        0.033758    2.796446    0.000000
      2          1           0        0.031903    1.813846    0.000000
      3          1           0       -0.895132    3.116866   -0.000000
      4          8           0        0.033758   -2.618898    0.000000
      5          1           0        0.940852   -2.996635    0.000000
      6          1           0       -0.617743   -3.354460   -0.000000
 ---------------------------------------------------------------------

 SCF Done:  E(RHF) =  -152.108629422     A.U. after   10 cycles
 E2 =    -0.5258044267D+00 EUMP2 =    -0.15263443384922D+03
 CCSD(T)
 CCSD(T)= -0.15266162477D+03

 The electronic state is 1-A'.
 Alpha  occ. eigenvalues --  -20.56232 -20.54895  -1.33532  -1.32205  -0.70936
 Alpha  occ. eigenvalues --   -0.69607  -0.57034  -0.55680  -0.50653  -0.49330
 Alpha virt. eigenvalues --    0.13215   0.15067   0.19633   0.21211   0.53556
 Alpha virt. eigenvalues --    0.54916   0.56638   0.57816   0.66718   0.68919
 Alpha virt. eigenvalues --    0.78236   0.79430   0.79521   0.80105   0.82786

 Mulliken charges:
               1
     1  O   -0.514949
     2  H    0.260895
     3  H    0.253800
     4  O   -0.515501
     5  H    0.258253
     6  H    0.257502
 Sum of Mulliken charges =  -0.00000

 Dipole moment (field-independent basis, Debye):
    X=             -1.1574    Y=             -3.1243    Z=             -0.0000  Tot=              3.3318
 Quadrupole moment (field-independent basis, Debye-Ang):
   XX=             -9.1866   YY=             -6.5333   ZZ=            -14.7155
   XY=             -6.2383   XZ=              0.0000   YZ=             -0.0000

 Normal termination of Gaussian 16 at Sun Aug 28 01:08:02 2022.
