 Gaussian 16, Revision A.03,
 Gaussian 16:  ES64L-G16RevA.03 25-Dec-2016

 ------------------
 #p CCSD(T)/cc-pVTZ
 ------------------

 ------------
 H2O_H2O_2077
 ------------
 Symbolic Z-matrix:
 Charge =  0 Multiplicity = 1

                         Standard orientation:
 ---------------------------------------------------------------------
 Center     Atomic      Atomic             Coordinates (Angstroms)
 Number     Number       Type             X           Y           Z
 ---------------------------------------------------------------------
      1          8           0        0.088235   -1.920803    0.000000
      2          1           0        0.088018   -0.938201    0.000000
      3          1           0       -0.841188   -2.239674    0.000000
      4          8           0        0.088235    1.776490    0.000000
      5          1           0        0.216275    2.750714    0.000000
      6          1           0       -0.874858    1.581661    0.000000
 ---------------------------------------------------------------------

 SCF Done:  E(RHF) =  -152.109492426     A.U. after   10 cycles
 E2 =    -0.5265920874D+00 EUMP2 =    -0.15263608451390D+03
 CCSD(T)
 CCSD(T)= -0.15266320594D+03

 The electronic state is 1-A'.
 Alpha  occ. eigenvalues --  -20.57247 -20.54620  -1.34536  -1.31937  -0.72027
 Alpha  occ. eigenvalues --   -0.69280  -0.58058  -0.55371  -0.51639  -0.49055
 Alpha virt. eigenvalues --    0.11600   0.16185   0.19933   0.25300   0.52215
 Alpha virt. eigenvalues --    0.55718   0.56783   0.57556   0.68438   0.73297
 Alpha virt. eigenvalues --    0.76365   0.78975   0.79998   0.81894   0.83163

 Mulliken charges:
               1
     1  O   -0.516736
     2  H    0.265824
     3  H    0.245028
     4  O   -0.501026
     5  H    0.258610
     6  H    0.248299
 Sum of Mulliken charges =  -0.00000

 Dipole moment (field-independent basis, Debye):
    X=             -2.9786    Y=              2.6873    Z=              0.0000  Tot=              4.0117
 Quadrupole moment (field-independent basis, Debye-Ang):
   XX=            -10.5823   YY=             -8.7680   ZZ=            -14.7170
   XY=              2.5067   XZ=              0.0000   YZ=              0.0000

 Normal termination of Gaussian 16 at Sun Aug 28 04:09:33 2022.
