 Gaussian 16, Revision A.03,
 Gaussian 16:  ES64L-G16RevA.03 25-Dec-2016

 ------------------
 #p CCSD(T)/cc-pVTZ
 ------------------

 ------------
 H2O_H2O_1274
 ------------
 Symbolic Z-matrix:
 Charge =  0 Multiplicity = 1

                         Standard orientation:
 ---------------------------------------------------------------------
 Center     Atomic      Atomic             Coordinates (Angstroms)
 Number     Number       Type             X           Y           Z
 ---------------------------------------------------------------------
      1          8           0        0.013637   -1.599844    0.000000
      2          1           0        0.009204   -0.617252    0.000000
      3          1           0       -0.914409   -1.922701    0.000000
      4          8           0        0.013637    1.440623    0.000000
      5          1           0        0.996229    1.445056    0.000000
      6          1           0       -0.309219    2.368668    0.000000
 ---------------------------------------------------------------------

 SCF Done:  E(RHF) =  -152.112925551     A.U. after   10 cycles
 E2 =    -0.5276804329D+00 EUMP2 =    -0.15264060598346D+03
 CCSD(T)
 CCSD(T)= -0.15266757761D+03

 The electronic state is 1-A'.
 Alpha  occ. eigenvalues --  -20.58198 -20.52935  -1.35609  -1.30439  -0.73195
 Alpha  occ. eigenvalues --   -0.68074  -0.59416  -0.53666  -0.52684  -0.47582
 Alpha virt. eigenvalues --    0.12110   0.17753   0.19140   0.30326   0.50012
 Alpha virt. eigenvalues --    0.54649   0.55481   0.61765   0.68618   0.73249
 Alpha virt. eigenvalues --    0.74436   0.76698   0.81659   0.82214   0.84280

 Mulliken charges:
               1
     1  O   -0.553674
     2  H    0.279677
     3  H    0.253180
     4  O   -0.486076
     5  H    0.262099
     6  H    0.244795
 Sum of Mulliken charges =  -0.00000

 Dipole moment (field-independent basis, Debye):
    X=             -0.4695    Y=              3.2133    Z=              0.0000  Tot=              3.2474
 Quadrupole moment (field-independent basis, Debye-Ang):
   XX=             -9.6447   YY=             -8.6983   ZZ=            -14.7250
   XY=              4.2950   XZ=              0.0000   YZ=              0.0000

 Normal termination of Gaussian 16 at Fri Aug 26 23:32:18 2022.
