 Gaussian 16, Revision A.03,
 Gaussian 16:  ES64L-G16RevA.03 25-Dec-2016

 ------------------
 #p CCSD(T)/cc-pVTZ
 ------------------

 ------------
 H2O_H2O_1471
 ------------
 Symbolic Z-matrix:
 Charge =  0 Multiplicity = 1

                         Standard orientation:
 ---------------------------------------------------------------------
 Center     Atomic      Atomic             Coordinates (Angstroms)
 Number     Number       Type             X           Y           Z
 ---------------------------------------------------------------------
      1          8           0       -0.023303    1.685653    0.000000
      2          1           0       -0.019605    0.703058    0.000000
      3          1           0        0.904984    2.007815    0.000000
      4          8           0       -0.023303   -1.515318    0.000000
      5          1           0       -0.986297   -1.710639    0.000000
      6          1           0        0.473768   -2.362918    0.000000
 ---------------------------------------------------------------------

 SCF Done:  E(RHF) =  -152.113651912     A.U. after   10 cycles
 E2 =    -0.5271464308D+00 EUMP2 =    -0.15264079834316D+03
 CCSD(T)
 CCSD(T)= -0.15266779646D+03

 The electronic state is 1-A'.
 Alpha  occ. eigenvalues --  -20.57944 -20.53057  -1.35259  -1.30506  -0.72674
 Alpha  occ. eigenvalues --   -0.68123  -0.59085  -0.53836  -0.52378  -0.47661
 Alpha virt. eigenvalues --    0.12142   0.17682   0.18997   0.29147   0.50531
 Alpha virt. eigenvalues --    0.54323   0.55861   0.60589   0.68857   0.73345
 Alpha virt. eigenvalues --    0.74127   0.77135   0.81465   0.82878   0.84433

 Mulliken charges:
               1
     1  O   -0.545474
     2  H    0.276735
     3  H    0.251053
     4  O   -0.501977
     5  H    0.264170
     6  H    0.255493
 Sum of Mulliken charges =  -0.00000

 Dipole moment (field-independent basis, Debye):
    X=              0.7875    Y=             -3.3522    Z=              0.0000  Tot=              3.4435
 Quadrupole moment (field-independent basis, Debye-Ang):
   XX=             -9.3609   YY=             -8.4156   ZZ=            -14.7326
   XY=              4.2044   XZ=              0.0000   YZ=              0.0000

 CCSD(T)=-152.6677965\RMSD=6.321e-09\PG=CS [SG(H4O2)]\\@
 Normal termination of Gaussian 16 at Sat Aug 27 00:47:11 2022.
