 Gaussian 16, Revision A.03,
 Gaussian 16:  ES64L-G16RevA.03 25-Dec-2016

 ------------------
 #p CCSD(T)/cc-pVTZ
 ------------------

 ------------
 H2O_H2O_3556
 ------------
 Symbolic Z-matrix:
 Charge =  0 Multiplicity = 1

                         Standard orientation:
 ---------------------------------------------------------------------
 Center     Atomic      Atomic             Coordinates (Angstroms)
 Number     Number       Type             X           Y           Z
 ---------------------------------------------------------------------
      1          8           0        0.076755    2.519414   -0.000000
      2          1           0        0.076191    1.536813   -0.000000
      3          1           0       -0.852555    2.838614   -0.000000
      4          8           0        0.076755   -2.356199    0.000000
      5          1           0        0.452259   -3.264220    0.000000
      6          1           0       -0.903969   -2.416928    0.000000
 ---------------------------------------------------------------------

 SCF Done:  E(RHF) =  -152.108549548     A.U. after   10 cycles
 E2 =    -0.5259024874D+00 EUMP2 =    -0.15263445203585D+03
 CCSD(T)
 CCSD(T)= -0.15266163446D+03

 The electronic state is 1-A'.
 Alpha  occ. eigenvalues --  -20.56431 -20.54888  -1.33726  -1.32197  -0.71139
 Alpha  occ. eigenvalues --   -0.69588  -0.57218  -0.55664  -0.50843  -0.49318
 Alpha virt. eigenvalues --    0.12456   0.15371   0.19365   0.21885   0.53340
 Alpha virt. eigenvalues --    0.55072   0.56444   0.58052   0.66910   0.69182
 Alpha virt. eigenvalues --    0.78061   0.78709   0.79534   0.80564   0.82792

 Mulliken charges:
               1
     1  O   -0.513141
     2  H    0.261141
     3  H    0.251056
     4  O   -0.513037
     5  H    0.259805
     6  H    0.254176
 Sum of Mulliken charges =  -0.00000

 Dipole moment (field-independent basis, Debye):
    X=             -2.6231    Y=             -2.8996    Z=              0.0000  Tot=              3.9100
 Quadrupole moment (field-independent basis, Debye-Ang):
   XX=             -9.9521   YY=             -7.6220   ZZ=            -14.7152
   XY=             -3.4921   XZ=              0.0000   YZ=             -0.0000

 Normal termination of Gaussian 16 at Fri Aug 26 22:22:14 2022.
