 Gaussian 16, Revision A.03,
 Gaussian 16:  ES64L-G16RevA.03 25-Dec-2016

 ------------------
 #p CCSD(T)/cc-pVTZ
 ------------------

 ------------
 H2O_H2O_2029
 ------------
 Symbolic Z-matrix:
 Charge =  0 Multiplicity = 1

                         Standard orientation:
 ---------------------------------------------------------------------
 Center     Atomic      Atomic             Coordinates (Angstroms)
 Number     Number       Type             X           Y           Z
 ---------------------------------------------------------------------
      1          8           0        0.082811   -1.906394    0.000000
      2          1           0        0.082340   -0.923793    0.000000
      3          1           0       -0.846529   -2.225506    0.000000
      4          8           0        0.082811    1.751892    0.000000
      5          1           0        0.336672    2.701134    0.000000
      6          1           0       -0.897456    1.684184    0.000000
 ---------------------------------------------------------------------

 SCF Done:  E(RHF) =  -152.110230659     A.U. after   10 cycles
 E2 =    -0.5265823697D+00 EUMP2 =    -0.15263681302844D+03
 CCSD(T)
 CCSD(T)= -0.15266391540D+03

 The electronic state is 1-A'.
 Alpha  occ. eigenvalues --  -20.57302 -20.54349  -1.34583  -1.31678  -0.72047
 Alpha  occ. eigenvalues --   -0.69041  -0.58145  -0.55115  -0.51694  -0.48804
 Alpha virt. eigenvalues --    0.11752   0.16358   0.19730   0.25567   0.51891
 Alpha virt. eigenvalues --    0.55712   0.56545   0.57852   0.68743   0.73170
 Alpha virt. eigenvalues --    0.76258   0.78778   0.80224   0.82883   0.83247

 Mulliken charges:
               1
     1  O   -0.519551
     2  H    0.266886
     3  H    0.245039
     4  O   -0.502198
     5  H    0.259053
     6  H    0.250771
 Sum of Mulliken charges =  -0.00000

 Dipole moment (field-independent basis, Debye):
    X=             -2.7956    Y=              2.8901    Z=              0.0000  Tot=              4.0210
 Quadrupole moment (field-independent basis, Debye-Ang):
   XX=            -10.2740   YY=             -8.4715   ZZ=            -14.7202
   XY=              2.8403   XZ=              0.0000   YZ=              0.0000

 Normal termination of Gaussian 16 at Sun Aug 28 03:43:30 2022.
