 Gaussian 16, Revision A.03,
 Gaussian 16:  ES64L-G16RevA.03 25-Dec-2016

 ------------------
 #p CCSD(T)/cc-pVTZ
 ------------------

 ------------
 H2O_H2O_1882
 ------------
 Symbolic Z-matrix:
 Charge =  0 Multiplicity = 1

                         Standard orientation:
 ---------------------------------------------------------------------
 Center     Atomic      Atomic             Coordinates (Angstroms)
 Number     Number       Type             X           Y           Z
 ---------------------------------------------------------------------
      1          8           0        0.073553    1.853304    0.000000
      2          1           0        0.072622    0.870704    0.000000
      3          1           0       -0.855638    2.172851    0.000000
      4          8           0        0.073553   -1.686393   -0.000000
      5          1           0        0.507312   -2.568073   -0.000000
      6          1           0       -0.901145   -1.810770   -0.000000
 ---------------------------------------------------------------------

 SCF Done:  E(RHF) =  -152.111432977     A.U. after   10 cycles
 E2 =    -0.5266683640D+00 EUMP2 =    -0.15263810134066D+03
 CCSD(T)
 CCSD(T)= -0.15266517266D+03

 The electronic state is 1-A'.
 Alpha  occ. eigenvalues --  -20.57465 -20.53908  -1.34736  -1.31261  -0.72166
 Alpha  occ. eigenvalues --   -0.68665  -0.58375  -0.54689  -0.51858  -0.48397
 Alpha virt. eigenvalues --    0.11917   0.16691   0.19473   0.26439   0.51096
 Alpha virt. eigenvalues --    0.55536   0.56333   0.58370   0.69099   0.73051
 Alpha virt. eigenvalues --    0.75798   0.78044   0.80623   0.83234   0.83757

 Mulliken charges:
               1
     1  O   -0.524889
     2  H    0.269288
     3  H    0.244849
     4  O   -0.503206
     5  H    0.260419
     6  H    0.253539
 Sum of Mulliken charges =  -0.00000

 Dipole moment (field-independent basis, Debye):
    X=             -2.4798    Y=             -3.1591    Z=             -0.0000  Tot=              4.0161
 Quadrupole moment (field-independent basis, Debye-Ang):
   XX=             -9.8333   YY=             -8.2210   ZZ=            -14.7253
   XY=             -3.2403   XZ=             -0.0000   YZ=              0.0000

 Normal termination of Gaussian 16 at Sun Aug 28 02:24:30 2022.
