 Gaussian 16, Revision A.03,
 Gaussian 16:  ES64L-G16RevA.03 25-Dec-2016

 ------------------
 #p CCSD(T)/cc-pVTZ
 ------------------

 ------------
 H2O_H2O_3721
 ------------
 Symbolic Z-matrix:
 Charge =  0 Multiplicity = 1

                         Standard orientation:
 ---------------------------------------------------------------------
 Center     Atomic      Atomic             Coordinates (Angstroms)
 Number     Number       Type             X           Y           Z
 ---------------------------------------------------------------------
      1          8           0       -0.023188    2.583154    0.000000
      2          1           0       -0.020819    1.600555    0.000000
      3          1           0        0.905534    2.904061    0.000000
      4          8           0       -0.023188   -2.412756    0.000000
      5          1           0       -0.986444   -2.606776    0.000000
      6          1           0        0.472738   -3.261027    0.000000
 ---------------------------------------------------------------------

 SCF Done:  E(RHF) =  -152.109011581     A.U. after   10 cycles
 E2 =    -0.5258252108D+00 EUMP2 =    -0.15263483679174D+03
 CCSD(T)
 CCSD(T)= -0.15266201345D+03

 The electronic state is 1-A'.
 Alpha  occ. eigenvalues --  -20.56360 -20.54812  -1.33656  -1.32124  -0.71060
 Alpha  occ. eigenvalues --   -0.69529  -0.57170  -0.55607  -0.50779  -0.49254
 Alpha virt. eigenvalues --    0.12785   0.15373   0.19418   0.21773   0.53315
 Alpha virt. eigenvalues --    0.55177   0.56572   0.57899   0.66775   0.69194
 Alpha virt. eigenvalues --    0.78119   0.78869   0.79590   0.80327   0.82903

 Mulliken charges:
               1
     1  O   -0.516553
     2  H    0.261504
     3  H    0.254275
     4  O   -0.516151
     5  H    0.258380
     6  H    0.258546
 Sum of Mulliken charges =  -0.00000

 Dipole moment (field-independent basis, Debye):
    X=              0.7948    Y=             -3.0186    Z=              0.0000  Tot=              3.1215
 Quadrupole moment (field-independent basis, Debye-Ang):
   XX=             -9.3614   YY=             -7.1847   ZZ=            -14.7169
   XY=              6.3748   XZ=              0.0000   YZ=              0.0000

 Normal termination of Gaussian 16 at Fri Aug 26 23:18:13 2022.
