 Gaussian 16, Revision A.03,
 Gaussian 16:  ES64L-G16RevA.03 25-Dec-2016

 ------------------
 #p CCSD(T)/cc-pVTZ
 ------------------

 ----------
 H2O_H2O_78
 ----------
 Symbolic Z-matrix:
 Charge =  0 Multiplicity = 1

                         Standard orientation:
 ---------------------------------------------------------------------
 Center     Atomic      Atomic             Coordinates (Angstroms)
 Number     Number       Type             X           Y           Z
 ---------------------------------------------------------------------
      1          8           0        0.085625   -1.125890    0.000000
      2          1           0        0.085032   -0.143289    0.000000
      3          1           0       -0.843675   -1.445118    0.000000
      4          8           0        0.085625    0.976349    0.000000
      5          1           0        0.276740    1.940186    0.000000
      6          1           0       -0.888097    0.844552    0.000000
 ---------------------------------------------------------------------

 SCF Done:  E(RHF) =  -152.033278017     A.U. after   11 cycles
 E2 =    -0.5383967586D+00 EUMP2 =    -0.15257167477521D+03
 CCSD(T)
 CCSD(T)= -0.15259725429D+03

 The electronic state is 1-A'.
 Alpha  occ. eigenvalues --  -20.61704 -20.46605  -1.44027  -1.26160  -0.83142
 Alpha  occ. eigenvalues --   -0.71994  -0.58223  -0.55982  -0.47166  -0.42889
 Alpha virt. eigenvalues --    0.10553   0.15812   0.21721   0.31688   0.49485
 Alpha virt. eigenvalues --    0.50948   0.60100   0.65883   0.70873   0.72377
 Alpha virt. eigenvalues --    0.75532   0.78692   0.80590   0.86262   0.86520

 Mulliken charges:
               1
     1  O   -0.616857
     2  H    0.261362
     3  H    0.188322
     4  O   -0.299009
     5  H    0.227580
     6  H    0.238602
 Sum of Mulliken charges =  -0.00000

 Dipole moment (field-independent basis, Debye):
    X=             -2.6347    Y=              4.2938    Z=              0.0000  Tot=              5.0377
 Quadrupole moment (field-independent basis, Debye-Ang):
   XX=            -10.3529   YY=             -9.9724   ZZ=            -14.5197
   XY=              2.2484   XZ=              0.0000   YZ=              0.0000

 Normal termination of Gaussian 16 at Fri Aug 26 15:42:40 2022.
