 Gaussian 16, Revision A.03,
 Gaussian 16:  ES64L-G16RevA.03 25-Dec-2016

 ------------------
 #p CCSD(T)/cc-pVTZ
 ------------------

 ------------
 H2O_H2O_2524
 ------------
 Symbolic Z-matrix:
 Charge =  0 Multiplicity = 1

                         Standard orientation:
 ---------------------------------------------------------------------
 Center     Atomic      Atomic             Coordinates (Angstroms)
 Number     Number       Type             X           Y           Z
 ---------------------------------------------------------------------
      1          8           0       -0.013549    2.098452    0.000000
      2          1           0       -0.010210    1.115856    0.000000
      3          1           0        0.914856    2.420274    0.000000
      4          8           0       -0.013549   -1.939200    0.000000
      5          1           0       -0.996144   -1.942539    0.000000
      6          1           0        0.308275   -2.867606    0.000000
 ---------------------------------------------------------------------

 SCF Done:  E(RHF) =  -152.110554487     A.U. after   10 cycles
 E2 =    -0.5260704841D+00 EUMP2 =    -0.15263662497141D+03
 CCSD(T)
 CCSD(T)= -0.15266374440D+03

 The electronic state is 1-A'.
 Alpha  occ. eigenvalues --  -20.56882 -20.54446  -1.34163  -1.31773  -0.71580
 Alpha  occ. eigenvalues --   -0.69183  -0.57737  -0.55261  -0.51291  -0.48917
 Alpha virt. eigenvalues --    0.12163   0.16321   0.19254   0.24402   0.54055
 Alpha virt. eigenvalues --    0.55359   0.56144   0.58524   0.68659   0.70716
 Alpha virt. eigenvalues --    0.77397   0.79275   0.79956   0.80822   0.83631

 Mulliken charges:
               1
     1  O   -0.523991
     2  H    0.264362
     3  H    0.254825
     4  O   -0.512542
     5  H    0.258913
     6  H    0.258433
 Sum of Mulliken charges =  -0.00000

 Dipole moment (field-independent basis, Debye):
    X=              0.4677    Y=             -2.9089    Z=              0.0000  Tot=              2.9463
 Quadrupole moment (field-independent basis, Debye-Ang):
   XX=             -9.6490   YY=             -8.1512   ZZ=            -14.7215
   XY=              5.6657   XZ=              0.0000   YZ=              0.0000

 Normal termination of Gaussian 16 at Fri Aug 26 15:21:25 2022.
