 Gaussian 16, Revision A.03,
 Gaussian 16:  ES64L-G16RevA.03 25-Dec-2016

 ------------------
 #p CCSD(T)/cc-pVTZ
 ------------------

 -----------
 H2O_H2O_580
 -----------
 Symbolic Z-matrix:
 Charge =  0 Multiplicity = 1

                         Standard orientation:
 ---------------------------------------------------------------------
 Center     Atomic      Atomic             Coordinates (Angstroms)
 Number     Number       Type             X           Y           Z
 ---------------------------------------------------------------------
      1          8           0        0.079884   -1.330466    0.000000
      2          1           0        0.078996   -0.347865    0.000000
      3          1           0       -0.849320   -1.649972    0.000000
      4          8           0        0.079884    1.171469    0.000000
      5          1           0        0.394890    2.102209    0.000000
      6          1           0       -0.902710    1.167602    0.000000
 ---------------------------------------------------------------------

 SCF Done:  E(RHF) =  -152.099605813     A.U. after   11 cycles
 E2 =    -0.5319621041D+00 EUMP2 =    -0.15263156791669D+03
 CCSD(T)
 CCSD(T)= -0.15265810738D+03

 The electronic state is 1-A'.
 Alpha  occ. eigenvalues --  -20.59866 -20.50600  -1.38247  -1.28700  -0.76301
 Alpha  occ. eigenvalues --   -0.69021  -0.59248  -0.54831  -0.51270  -0.45681
 Alpha virt. eigenvalues --    0.11240   0.16689   0.20411   0.32731   0.48405
 Alpha virt. eigenvalues --    0.53083   0.59145   0.63387   0.70964   0.71955
 Alpha virt. eigenvalues --    0.74057   0.78320   0.79090   0.83709   0.83860

 Mulliken charges:
               1
     1  O   -0.578494
     2  H    0.296724
     3  H    0.220238
     4  O   -0.410261
     5  H    0.234869
     6  H    0.236925
 Sum of Mulliken charges =   0.00000

 Dipole moment (field-independent basis, Debye):
    X=             -2.5676    Y=              3.7189    Z=              0.0000  Tot=              4.5192
 Quadrupole moment (field-independent basis, Debye-Ang):
   XX=            -10.1260   YY=             -9.2537   ZZ=            -14.6625
   XY=              2.6456   XZ=              0.0000   YZ=              0.0000

 Normal termination of Gaussian 16 at Fri Aug 26 19:11:58 2022.
