 Gaussian 16, Revision A.03,
 Gaussian 16:  ES64L-G16RevA.03 25-Dec-2016

 ------------------
 #p CCSD(T)/cc-pVTZ
 ------------------

 ------------
 H2O_H2O_3572
 ------------
 Symbolic Z-matrix:
 Charge =  0 Multiplicity = 1

                         Standard orientation:
 ---------------------------------------------------------------------
 Center     Atomic      Atomic             Coordinates (Angstroms)
 Number     Number       Type             X           Y           Z
 ---------------------------------------------------------------------
      1          8           0       -0.019845    2.521538    0.000000
      2          1           0       -0.017300    1.538940    0.000000
      3          1           0        0.908820    2.842610    0.000000
      4          8           0       -0.019845   -2.354427    0.000000
      5          1           0       -0.993704   -2.485204    0.000000
      6          1           0        0.419697   -3.233238    0.000000
 ---------------------------------------------------------------------

 SCF Done:  E(RHF) =  -152.109126540     A.U. after   10 cycles
 E2 =    -0.5258374538D+00 EUMP2 =    -0.15263496399345D+03
 CCSD(T)
 CCSD(T)= -0.15266213603D+03

 The electronic state is 1-A'.
 Alpha  occ. eigenvalues --  -20.56404 -20.54798  -1.33699  -1.32111  -0.71104
 Alpha  occ. eigenvalues --   -0.69517  -0.57216  -0.55596  -0.50823  -0.49242
 Alpha virt. eigenvalues --    0.12635   0.15469   0.19337   0.22030   0.53305
 Alpha virt. eigenvalues --    0.55282   0.56554   0.57945   0.66906   0.69243
 Alpha virt. eigenvalues --    0.78077   0.78758   0.79600   0.80464   0.82926

 Mulliken charges:
               1
     1  O   -0.517050
     2  H    0.261551
     3  H    0.254497
     4  O   -0.516101
     5  H    0.258298
     6  H    0.258805
 Sum of Mulliken charges =  -0.00000

 Dipole moment (field-independent basis, Debye):
    X=              0.6807    Y=             -2.9674    Z=              0.0000  Tot=              3.0445
 Quadrupole moment (field-independent basis, Debye-Ang):
   XX=             -9.4467   YY=             -7.4122   ZZ=            -14.7172
   XY=              6.4198   XZ=              0.0000   YZ=              0.0000

 Normal termination of Gaussian 16 at Fri Aug 26 22:27:36 2022.
