 Gaussian 16, Revision A.03,
 Gaussian 16:  ES64L-G16RevA.03 25-Dec-2016

 ------------------
 #p CCSD(T)/cc-pVTZ
 ------------------

 -----------
 H2O_H2O_282
 -----------
 Symbolic Z-matrix:
 Charge =  0 Multiplicity = 1

                         Standard orientation:
 ---------------------------------------------------------------------
 Center     Atomic      Atomic             Coordinates (Angstroms)
 Number     Number       Type             X           Y           Z
 ---------------------------------------------------------------------
      1          8           0        0.073598   -1.215062    0.000000
      2          1           0        0.072142   -0.232461    0.000000
      3          1           0       -0.855422   -1.535105    0.000000
      4          8           0        0.073598    1.048229    0.000000
      5          1           0        0.506886    1.930141    0.000000
      6          1           0       -0.901167    1.172086    0.000000
 ---------------------------------------------------------------------

 SCF Done:  E(RHF) =  -152.077526031     A.U. after   11 cycles
 E2 =    -0.5346544590D+00 EUMP2 =    -0.15261218049008D+03
 CCSD(T)
 CCSD(T)= -0.15263819902D+03

 The electronic state is 1-A'.
 Alpha  occ. eigenvalues --  -20.61008 -20.47732  -1.40783  -1.26708  -0.78581
 Alpha  occ. eigenvalues --   -0.72060  -0.57187  -0.56650  -0.48297  -0.43516
 Alpha virt. eigenvalues --    0.10819   0.16464   0.20853   0.32788   0.48794
 Alpha virt. eigenvalues --    0.52432   0.60071   0.64419   0.71804   0.72401
 Alpha virt. eigenvalues --    0.76907   0.78024   0.80127   0.84393   0.84556

 Mulliken charges:
               1
     1  O   -0.615381
     2  H    0.292965
     3  H    0.207422
     4  O   -0.359735
     5  H    0.235271
     6  H    0.239458
 Sum of Mulliken charges =  -0.00000

 Dipole moment (field-independent basis, Debye):
    X=             -2.2977    Y=              4.3228    Z=              0.0000  Tot=              4.8955
 Quadrupole moment (field-independent basis, Debye-Ang):
   XX=             -9.8052   YY=             -9.6832   ZZ=            -14.6075
   XY=              2.6665   XZ=              0.0000   YZ=              0.0000

 Normal termination of Gaussian 16 at Fri Aug 26 17:08:56 2022.
