 Gaussian 16, Revision A.03,
 Gaussian 16:  ES64L-G16RevA.03 25-Dec-2016

 ------------------
 #p CCSD(T)/cc-pVTZ
 ------------------

 -----------
 H2O_H2O_970
 -----------
 Symbolic Z-matrix:
 Charge =  0 Multiplicity = 1

                         Standard orientation:
 ---------------------------------------------------------------------
 Center     Atomic      Atomic             Coordinates (Angstroms)
 Number     Number       Type             X           Y           Z
 ---------------------------------------------------------------------
      1          8           0        0.026792    1.487741    0.000000
      2          1           0        0.022776    0.505147    0.000000
      3          1           0       -0.901392    1.810203    0.000000
      4          8           0        0.026792   -1.314599   -0.000000
      5          1           0        0.974865   -1.572791   -0.000000
      6          1           0       -0.524914   -2.127695   -0.000000
 ---------------------------------------------------------------------

 SCF Done:  E(RHF) =  -152.112728872     A.U. after   10 cycles
 E2 =    -0.5287519881D+00 EUMP2 =    -0.15264148086008D+03
 CCSD(T)
 CCSD(T)= -0.15266830408D+03

 The electronic state is 1-A'.
 Alpha  occ. eigenvalues --  -20.58860 -20.51554  -1.36432  -1.29282  -0.73793
 Alpha  occ. eigenvalues --   -0.68046  -0.59849  -0.53456  -0.52228  -0.46394
 Alpha virt. eigenvalues --    0.11903   0.18483   0.18654   0.32217   0.48644
 Alpha virt. eigenvalues --    0.54613   0.56408   0.63281   0.68321   0.72627
 Alpha virt. eigenvalues --    0.72906   0.77218   0.81795   0.82828   0.84428

 Mulliken charges:
               1
     1  O   -0.574276
     2  H    0.295167
     3  H    0.245613
     4  O   -0.479718
     5  H    0.264115
     6  H    0.249099
 Sum of Mulliken charges =   0.00000

 Dipole moment (field-independent basis, Debye):
    X=             -0.8897    Y=             -3.6811    Z=             -0.0000  Tot=              3.7871
 Quadrupole moment (field-independent basis, Debye-Ang):
   XX=             -9.2767   YY=             -8.8272   ZZ=            -14.7205
   XY=             -3.6434   XZ=             -0.0000   YZ=             -0.0000

 Normal termination of Gaussian 16 at Fri Aug 26 21:39:04 2022.
