 Gaussian 16, Revision A.03,
 Gaussian 16:  ES64L-G16RevA.03 25-Dec-2016

 ------------------
 #p CCSD(T)/cc-pVTZ
 ------------------

 -----------
 H2O_H2O_942
 -----------
 Symbolic Z-matrix:
 Charge =  0 Multiplicity = 1

                         Standard orientation:
 ---------------------------------------------------------------------
 Center     Atomic      Atomic             Coordinates (Angstroms)
 Number     Number       Type             X           Y           Z
 ---------------------------------------------------------------------
      1          8           0        0.037565    1.480874    0.000000
      2          1           0        0.034179    0.498279    0.000000
      3          1           0       -0.890825    1.802742    0.000000
      4          8           0        0.037565   -1.302010    0.000000
      5          1           0        0.917331   -1.739637    0.000000
      6          1           0       -0.661725   -1.992300    0.000000
 ---------------------------------------------------------------------

 SCF Done:  E(RHF) =  -152.112886013     A.U. after   10 cycles
 E2 =    -0.5288744020D+00 EUMP2 =    -0.15264176041488D+03
 CCSD(T)
 CCSD(T)= -0.15266856140D+03

 The electronic state is 1-A'.
 Alpha  occ. eigenvalues --  -20.58966 -20.51279  -1.36538  -1.29045  -0.73726
 Alpha  occ. eigenvalues --   -0.68227  -0.59774  -0.53567  -0.51961  -0.46148
 Alpha virt. eigenvalues --    0.11820   0.18321   0.18809   0.32343   0.48373
 Alpha virt. eigenvalues --    0.54601   0.56860   0.62339   0.68673   0.72005
 Alpha virt. eigenvalues --    0.72633   0.77607   0.82123   0.82852   0.84666

 Mulliken charges:
               1
     1  O   -0.575601
     2  H    0.300022
     3  H    0.241502
     4  O   -0.487162
     5  H    0.265792
     6  H    0.255447
 Sum of Mulliken charges =  -0.00000

 Dipole moment (field-independent basis, Debye):
    X=             -1.2383    Y=             -3.8199    Z=             -0.0000  Tot=              4.0156
 Quadrupole moment (field-independent basis, Debye-Ang):
   XX=             -9.1498   YY=             -8.8415   ZZ=            -14.7223
   XY=             -3.4680   XZ=             -0.0000   YZ=             -0.0000

 Normal termination of Gaussian 16 at Fri Aug 26 21:28:30 2022.
