 Gaussian 16, Revision A.03,
 Gaussian 16:  ES64L-G16RevA.03 25-Dec-2016

 ------------------
 #p CCSD(T)/cc-pVTZ
 ------------------

 ------------
 H2O_H2O_2235
 ------------
 Symbolic Z-matrix:
 Charge =  0 Multiplicity = 1

                         Standard orientation:
 ---------------------------------------------------------------------
 Center     Atomic      Atomic             Coordinates (Angstroms)
 Number     Number       Type             X           Y           Z
 ---------------------------------------------------------------------
      1          8           0        0.063255    1.997567   -0.000000
      2          1           0        0.061934    1.014967   -0.000000
      3          1           0       -0.865809    2.317483    0.000000
      4          8           0        0.063255   -1.822086   -0.000000
      5          1           0        0.660377   -2.602440   -0.000000
      6          1           0       -0.868574   -2.133858    0.000000
 ---------------------------------------------------------------------

 SCF Done:  E(RHF) =  -152.111152131     A.U. after   10 cycles
 E2 =    -0.5262893934D+00 EUMP2 =    -0.15263744152492D+03
 CCSD(T)
 CCSD(T)= -0.15266453416D+03

 The electronic state is 1-A'.
 Alpha  occ. eigenvalues --  -20.57149 -20.54031  -1.34408  -1.31369  -0.71810
 Alpha  occ. eigenvalues --   -0.68762  -0.58020  -0.54836  -0.51540  -0.48510
 Alpha virt. eigenvalues --    0.12147   0.16582   0.19327   0.25036   0.52268
 Alpha virt. eigenvalues --    0.55651   0.56071   0.58801   0.68906   0.71746
 Alpha virt. eigenvalues --    0.76880   0.78378   0.80381   0.83003   0.83534

 Mulliken charges:
               1
     1  O   -0.523482
     2  H    0.267485
     3  H    0.247868
     4  O   -0.507707
     5  H    0.260631
     6  H    0.255204
 Sum of Mulliken charges =  -0.00000

 Dipole moment (field-independent basis, Debye):
    X=             -2.1432    Y=             -3.2559    Z=              0.0000  Tot=              3.8980
 Quadrupole moment (field-independent basis, Debye-Ang):
   XX=             -9.4643   YY=             -7.8172   ZZ=            -14.7240
   XY=             -3.7321   XZ=              0.0000   YZ=              0.0000

 Normal termination of Gaussian 16 at Sun Aug 28 05:36:18 2022.
