 Gaussian 16, Revision A.03,
 Gaussian 16:  ES64L-G16RevA.03 25-Dec-2016

 ------------------
 #p CCSD(T)/cc-pVTZ
 ------------------

 ------------
 H2O_H2O_1554
 ------------
 Symbolic Z-matrix:
 Charge =  0 Multiplicity = 1

                         Standard orientation:
 ---------------------------------------------------------------------
 Center     Atomic      Atomic             Coordinates (Angstroms)
 Number     Number       Type             X           Y           Z
 ---------------------------------------------------------------------
      1          8           0        0.082815   -1.716923    0.000000
      2          1           0        0.082290   -0.734322    0.000000
      3          1           0       -0.846507   -2.036086    0.000000
      4          8           0        0.082815    1.562430    0.000000
      5          1           0        0.336624    2.511686    0.000000
      6          1           0       -0.897448    1.494668    0.000000
 ---------------------------------------------------------------------

 SCF Done:  E(RHF) =  -152.110955910     A.U. after   10 cycles
 E2 =    -0.5273009973D+00 EUMP2 =    -0.15263825690745D+03
 CCSD(T)
 CCSD(T)= -0.15266531157D+03

 The electronic state is 1-A'.
 Alpha  occ. eigenvalues --  -20.57825 -20.53869  -1.35148  -1.31247  -0.72692
 Alpha  occ. eigenvalues --   -0.68642  -0.58757  -0.54614  -0.52237  -0.48366
 Alpha virt. eigenvalues --    0.11690   0.16605   0.19863   0.27877   0.49965
 Alpha virt. eigenvalues --    0.55120   0.57437   0.58083   0.69004   0.74354
 Alpha virt. eigenvalues --    0.74567   0.77417   0.80863   0.82577   0.83723

 Mulliken charges:
               1
     1  O   -0.527233
     2  H    0.273824
     3  H    0.240998
     4  O   -0.490760
     5  H    0.253701
     6  H    0.249470
 Sum of Mulliken charges =  -0.00000

 Dipole moment (field-independent basis, Debye):
    X=             -2.7724    Y=              3.0008    Z=              0.0000  Tot=              4.0854
 Quadrupole moment (field-independent basis, Debye-Ang):
   XX=            -10.2861   YY=             -8.6310   ZZ=            -14.7209
   XY=              2.7634   XZ=              0.0000   YZ=              0.0000

 Normal termination of Gaussian 16 at Sat Aug 27 23:06:35 2022.
