 Gaussian 16, Revision A.03,
 Gaussian 16:  ES64L-G16RevA.03 25-Dec-2016

 ------------------
 #p CCSD(T)/cc-pVTZ
 ------------------

 ------------
 H2O_H2O_1951
 ------------
 Symbolic Z-matrix:
 Charge =  0 Multiplicity = 1

                         Standard orientation:
 ---------------------------------------------------------------------
 Center     Atomic      Atomic             Coordinates (Angstroms)
 Number     Number       Type             X           Y           Z
 ---------------------------------------------------------------------
      1          8           0        0.090686   -1.867897    0.000000
      2          1           0        0.090579   -0.885295    0.000000
      3          1           0       -0.838772   -2.186664    0.000000
      4          8           0        0.090686    1.729192    0.000000
      5          1           0        0.154845    2.709697    0.000000
      6          1           0       -0.857631    1.471896    0.000000
 ---------------------------------------------------------------------

 SCF Done:  E(RHF) =  -152.109266253     A.U. after   10 cycles
 E2 =    -0.5267722376D+00 EUMP2 =    -0.15263603849067D+03
 CCSD(T)
 CCSD(T)= -0.15266316096D+03

 The electronic state is 1-A'.
 Alpha  occ. eigenvalues --  -20.57356 -20.54677  -1.34654  -1.31995  -0.72191
 Alpha  occ. eigenvalues --   -0.69311  -0.58164  -0.55417  -0.51748  -0.49108
 Alpha virt. eigenvalues --    0.11518   0.16178   0.20126   0.25755   0.51787
 Alpha virt. eigenvalues --    0.55471   0.57098   0.57420   0.68192   0.73888
 Alpha virt. eigenvalues --    0.75885   0.78518   0.80026   0.82728   0.82875

 Mulliken charges:
               1
     1  O   -0.516547
     2  H    0.266602
     3  H    0.244027
     4  O   -0.498045
     5  H    0.257758
     6  H    0.246205
 Sum of Mulliken charges =  -0.00000

 Dipole moment (field-independent basis, Debye):
    X=             -3.0548    Y=              2.6007    Z=              0.0000  Tot=              4.0119
 Quadrupole moment (field-independent basis, Debye-Ang):
   XX=            -10.7375   YY=             -8.9579   ZZ=            -14.7154
   XY=              2.3181   XZ=              0.0000   YZ=              0.0000

 Normal termination of Gaussian 16 at Sun Aug 28 03:05:58 2022.
