 Gaussian 16, Revision A.03,
 Gaussian 16:  ES64L-G16RevA.03 25-Dec-2016

 ------------------
 #p CCSD(T)/cc-pVTZ
 ------------------

 ------------
 H2O_H2O_1004
 ------------
 Symbolic Z-matrix:
 Charge =  0 Multiplicity = 1

                         Standard orientation:
 ---------------------------------------------------------------------
 Center     Atomic      Atomic             Coordinates (Angstroms)
 Number     Number       Type             X           Y           Z
 ---------------------------------------------------------------------
      1          8           0        0.082821   -1.497534    0.000000
      2          1           0        0.082215   -0.514932    0.000000
      3          1           0       -0.846475   -1.816773    0.000000
      4          8           0        0.082821    1.343054    0.000000
      5          1           0        0.336553    2.292330    0.000000
      6          1           0       -0.897435    1.275211    0.000000
 ---------------------------------------------------------------------

 SCF Done:  E(RHF) =  -152.109330909     A.U. after   10 cycles
 E2 =    -0.5291855581D+00 EUMP2 =    -0.15263851646714D+03
 CCSD(T)
 CCSD(T)= -0.15266542350D+03

 The electronic state is 1-A'.
 Alpha  occ. eigenvalues --  -20.58746 -20.52726  -1.36340  -1.30309  -0.74152
 Alpha  occ. eigenvalues --   -0.68173  -0.59601  -0.53429  -0.53304  -0.47385
 Alpha virt. eigenvalues --    0.11531   0.16721   0.20098   0.31061   0.48392
 Alpha virt. eigenvalues --    0.54006   0.58480   0.60061   0.69075   0.72336
 Alpha virt. eigenvalues --    0.74484   0.77370   0.80951   0.82176   0.83652

 Mulliken charges:
               1
     1  O   -0.546540
     2  H    0.287994
     3  H    0.232319
     4  O   -0.453053
     5  H    0.237803
     6  H    0.241478
 Sum of Mulliken charges =  -0.00000

 Dipole moment (field-independent basis, Debye):
    X=             -2.7257    Y=              3.2483    Z=              0.0000  Tot=              4.2404
 Quadrupole moment (field-independent basis, Debye-Ang):
   XX=            -10.2945   YY=             -8.9106   ZZ=            -14.7038
   XY=              2.6569   XZ=              0.0000   YZ=              0.0000

 Normal termination of Gaussian 16 at Fri Aug 26 21:51:15 2022.
