 Gaussian 16, Revision A.03,
 Gaussian 16:  ES64L-G16RevA.03 25-Dec-2016

 ------------------
 #p CCSD(T)/cc-pVTZ
 ------------------

 ------------
 H2O_H2O_3406
 ------------
 Symbolic Z-matrix:
 Charge =  0 Multiplicity = 1

                         Standard orientation:
 ---------------------------------------------------------------------
 Center     Atomic      Atomic             Coordinates (Angstroms)
 Number     Number       Type             X           Y           Z
 ---------------------------------------------------------------------
      1          8           0        0.076756    2.459581    0.000000
      2          1           0        0.076178    1.476980    0.000000
      3          1           0       -0.852550    2.778794   -0.000000
      4          8           0        0.076756   -2.296368    0.000000
      5          1           0        0.452248   -3.204395    0.000000
      6          1           0       -0.903968   -2.357083   -0.000000
 ---------------------------------------------------------------------

 SCF Done:  E(RHF) =  -152.108672306     A.U. after   10 cycles
 E2 =    -0.5259235740D+00 EUMP2 =    -0.15263459587992D+03
 CCSD(T)
 CCSD(T)= -0.15266177257D+03

 The electronic state is 1-A'.
 Alpha  occ. eigenvalues --  -20.56484 -20.54844  -1.33776  -1.32154  -0.71190
 Alpha  occ. eigenvalues --   -0.69543  -0.57271  -0.55622  -0.50894  -0.49276
 Alpha virt. eigenvalues --    0.12353   0.15474   0.19377   0.22061   0.53439
 Alpha virt. eigenvalues --    0.55083   0.56414   0.58144   0.67108   0.69227
 Alpha virt. eigenvalues --    0.78012   0.78665   0.79575   0.80527   0.82830

 Mulliken charges:
               1
     1  O   -0.513510
     2  H    0.261512
     3  H    0.250751
     4  O   -0.512750
     5  H    0.259907
     6  H    0.254090
 Sum of Mulliken charges =  -0.00000

 Dipole moment (field-independent basis, Debye):
    X=             -2.6213    Y=             -2.9079    Z=             -0.0000  Tot=              3.9150
 Quadrupole moment (field-independent basis, Debye-Ang):
   XX=             -9.9531   YY=             -7.6808   ZZ=            -14.7156
   XY=             -3.4581   XZ=             -0.0000   YZ=             -0.0000

 Normal termination of Gaussian 16 at Fri Aug 26 21:31:20 2022.
