 Gaussian 16, Revision A.03,
 Gaussian 16:  ES64L-G16RevA.03 25-Dec-2016

 ------------------
 #p CCSD(T)/cc-pVTZ
 ------------------

 ------------
 H2O_H2O_2503
 ------------
 Symbolic Z-matrix:
 Charge =  0 Multiplicity = 1

                         Standard orientation:
 ---------------------------------------------------------------------
 Center     Atomic      Atomic             Coordinates (Angstroms)
 Number     Number       Type             X           Y           Z
 ---------------------------------------------------------------------
      1          8           0        0.085603   -2.093193    0.000000
      2          1           0        0.085294   -1.110591    0.000000
      3          1           0       -0.843789   -2.412151    0.000000
      4          8           0        0.085603    1.943602    0.000000
      5          1           0        0.276997    2.907383    0.000000
      6          1           0       -0.888157    1.812087    0.000000
 ---------------------------------------------------------------------

 SCF Done:  E(RHF) =  -152.109186116     A.U. after   10 cycles
 E2 =    -0.5262445483D+00 EUMP2 =    -0.15263543066401D+03
 CCSD(T)
 CCSD(T)= -0.15266257296D+03

 The electronic state is 1-A'.
 Alpha  occ. eigenvalues --  -20.56929 -20.54727  -1.34212  -1.32038  -0.71653
 Alpha  occ. eigenvalues --   -0.69407  -0.57719  -0.55493  -0.51325  -0.49160
 Alpha virt. eigenvalues --    0.11721   0.15988   0.19643   0.23953   0.53633
 Alpha virt. eigenvalues --    0.55480   0.56455   0.58050   0.68620   0.70747
 Alpha virt. eigenvalues --    0.77356   0.79209   0.79751   0.80517   0.83130

 Mulliken charges:
               1
     1  O   -0.515122
     2  H    0.263767
     3  H    0.247477
     4  O   -0.506104
     5  H    0.259288
     6  H    0.250695
 Sum of Mulliken charges =  -0.00000

 Dipole moment (field-independent basis, Debye):
    X=             -2.9043    Y=              2.7313    Z=              0.0000  Tot=              3.9869
 Quadrupole moment (field-independent basis, Debye-Ang):
   XX=            -10.4175   YY=             -8.5170   ZZ=            -14.7165
   XY=              2.7295   XZ=              0.0000   YZ=              0.0000

 CCSD(T)=-152.662573\RMSD=7.022e-09\PG=CS [SG(H4O2)]\\@
 Normal termination of Gaussian 16 at Fri Aug 26 15:12:59 2022.
