 Gaussian 16, Revision A.03,
 Gaussian 16:  ES64L-G16RevA.03 25-Dec-2016

 ------------------
 #p CCSD(T)/cc-pVTZ
 ------------------

 ------------
 H2O_H2O_1120
 ------------
 Symbolic Z-matrix:
 Charge =  0 Multiplicity = 1

                         Standard orientation:
 ---------------------------------------------------------------------
 Center     Atomic      Atomic             Coordinates (Angstroms)
 Number     Number       Type             X           Y           Z
 ---------------------------------------------------------------------
      1          8           0        0.026777    1.547576   -0.000000
      2          1           0        0.022926    0.564982   -0.000000
      3          1           0       -0.901460    1.869883    0.000000
      4          8           0        0.026777   -1.374425   -0.000000
      5          1           0        0.974893   -1.632459   -0.000000
      6          1           0       -0.524794   -2.187614    0.000000
 ---------------------------------------------------------------------

 SCF Done:  E(RHF) =  -152.113679520     A.U. after   10 cycles
 E2 =    -0.5281383405D+00 EUMP2 =    -0.15264181786031D+03
 CCSD(T)
 CCSD(T)= -0.15266871383D+03

 The electronic state is 1-A'.
 Alpha  occ. eigenvalues --  -20.58547 -20.52093  -1.35996  -1.29704  -0.73370
 Alpha  occ. eigenvalues --   -0.67919  -0.59698  -0.53068  -0.52808  -0.46836
 Alpha virt. eigenvalues --    0.11996   0.18279   0.18719   0.31349   0.49153
 Alpha virt. eigenvalues --    0.54649   0.55953   0.62231   0.68457   0.72898
 Alpha virt. eigenvalues --    0.72951   0.77112   0.82113   0.82502   0.84533

 Mulliken charges:
               1
     1  O   -0.563547
     2  H    0.289273
     3  H    0.247467
     4  O   -0.489388
     5  H    0.264780
     6  H    0.251416
 Sum of Mulliken charges =  -0.00000

 Dipole moment (field-independent basis, Debye):
    X=             -0.8941    Y=             -3.5795    Z=              0.0000  Tot=              3.6895
 Quadrupole moment (field-independent basis, Debye-Ang):
   XX=             -9.2818   YY=             -8.6775   ZZ=            -14.7277
   XY=             -3.7871   XZ=              0.0000   YZ=              0.0000

 Normal termination of Gaussian 16 at Fri Aug 26 22:35:06 2022.
