 Gaussian 16, Revision A.03,
 Gaussian 16:  ES64L-G16RevA.03 25-Dec-2016

 ------------------
 #p CCSD(T)/cc-pVTZ
 ------------------

 ------------
 H2O_H2O_1599
 ------------
 Symbolic Z-matrix:
 Charge =  0 Multiplicity = 1

                         Standard orientation:
 ---------------------------------------------------------------------
 Center     Atomic      Atomic             Coordinates (Angstroms)
 Number     Number       Type             X           Y           Z
 ---------------------------------------------------------------------
      1          8           0        0.013609   -1.729483    0.000000
      2          1           0        0.009524   -0.746890    0.000000
      3          1           0       -0.914551   -2.052011    0.000000
      4          8           0        0.013609    1.570252    0.000000
      5          1           0        0.996203    1.574336    0.000000
      6          1           0       -0.308919    2.498412    0.000000
 ---------------------------------------------------------------------

 SCF Done:  E(RHF) =  -152.112743970     A.U. after   10 cycles
 E2 =    -0.5269165733D+00 EUMP2 =    -0.15263966054344D+03
 CCSD(T)
 CCSD(T)= -0.15266669610D+03

 The electronic state is 1-A'.
 Alpha  occ. eigenvalues --  -20.57726 -20.53561  -1.35042  -1.30967  -0.72535
 Alpha  occ. eigenvalues --   -0.68441  -0.58807  -0.54345  -0.52154  -0.48121
 Alpha virt. eigenvalues --    0.12164   0.17344   0.19230   0.28356   0.51270
 Alpha virt. eigenvalues --    0.54429   0.55705   0.60297   0.68802   0.74155
 Alpha virt. eigenvalues --    0.74561   0.77453   0.81042   0.82861   0.84243

 Mulliken charges:
               1
     1  O   -0.540396
     2  H    0.271982
     3  H    0.254175
     4  O   -0.502103
     5  H    0.262340
     6  H    0.254002
 Sum of Mulliken charges =  -0.00000

 Dipole moment (field-independent basis, Debye):
    X=             -0.4698    Y=              3.0882    Z=              0.0000  Tot=              3.1237
 Quadrupole moment (field-independent basis, Debye-Ang):
   XX=             -9.6493   YY=             -8.5207   ZZ=            -14.7286
   XY=              4.6537   XZ=              0.0000   YZ=              0.0000

 Normal termination of Gaussian 16 at Sat Aug 27 23:47:12 2022.
