 Gaussian 16, Revision A.03,
 Gaussian 16:  ES64L-G16RevA.03 25-Dec-2016

 ------------------
 #p CCSD(T)/cc-pVTZ
 ------------------

 ------------
 H2O_H2O_4752
 ------------
 Symbolic Z-matrix:
 Charge =  0 Multiplicity = 1

                         Standard orientation:
 ---------------------------------------------------------------------
 Center     Atomic      Atomic             Coordinates (Angstroms)
 Number     Number       Type             X           Y           Z
 ---------------------------------------------------------------------
      1          8           0        0.088229   -2.987806    0.000000
      2          1           0        0.088091   -2.005205    0.000000
      3          1           0       -0.841220   -3.306603    0.000000
      4          8           0        0.088229    2.843480    0.000000
      5          1           0        0.216348    3.817693    0.000000
      6          1           0       -0.874880    2.648728    0.000000
 ---------------------------------------------------------------------

 SCF Done:  E(RHF) =  -152.107731680     A.U. after   10 cycles
 E2 =    -0.5258588447D+00 EUMP2 =    -0.15263359052495D+03
 CCSD(T)
 CCSD(T)= -0.15266080359D+03

 The electronic state is 1-A'.
 Alpha  occ. eigenvalues --  -20.56164 -20.55285  -1.33466  -1.32587  -0.70878
 Alpha  occ. eigenvalues --   -0.69985  -0.56929  -0.56041  -0.50578  -0.49701
 Alpha virt. eigenvalues --    0.13110   0.14647   0.19167   0.21257   0.53417
 Alpha virt. eigenvalues --    0.54755   0.56603   0.57632   0.67023   0.68382
 Alpha virt. eigenvalues --    0.78310   0.79170   0.79695   0.80971   0.81716

 Mulliken charges:
               1
     1  O   -0.510145
     2  H    0.257688
     3  H    0.252422
     4  O   -0.511050
     5  H    0.257936
     6  H    0.253150
 Sum of Mulliken charges =  -0.00000

 Dipole moment (field-independent basis, Debye):
    X=             -3.0276    Y=              2.5277    Z=              0.0000  Tot=              3.9441
 Quadrupole moment (field-independent basis, Debye-Ang):
   XX=            -10.5489   YY=             -8.4434   ZZ=            -14.7123
   XY=              2.6988   XZ=              0.0000   YZ=              0.0000

 Normal termination of Gaussian 16 at Sun Aug 28 05:34:54 2022.
