 Gaussian 16, Revision A.03,
 Gaussian 16:  ES64L-G16RevA.03 25-Dec-2016

 ------------------
 #p CCSD(T)/cc-pVTZ
 ------------------

 ------------
 H2O_H2O_4568
 ------------
 Symbolic Z-matrix:
 Charge =  0 Multiplicity = 1

                         Standard orientation:
 ---------------------------------------------------------------------
 Center     Atomic      Atomic             Coordinates (Angstroms)
 Number     Number       Type             X           Y           Z
 ---------------------------------------------------------------------
      1          8           0        0.033750    2.926083   -0.000000
      2          1           0        0.031980    1.943484   -0.000000
      3          1           0       -0.895168    3.246423   -0.000000
      4          8           0        0.033750   -2.748530    0.000000
      5          1           0        0.940877   -3.126189    0.000000
      6          1           0       -0.617687   -3.484149    0.000000
 ---------------------------------------------------------------------

 SCF Done:  E(RHF) =  -152.108445988     A.U. after   10 cycles
 E2 =    -0.5258006890D+00 EUMP2 =    -0.15263424667678D+03
 CCSD(T)
 CCSD(T)= -0.15266144387D+03

 The electronic state is 1-A'.
 Alpha  occ. eigenvalues --  -20.56170 -20.54970  -1.33472  -1.32278  -0.70876
 Alpha  occ. eigenvalues --   -0.69681  -0.56966  -0.55750  -0.50591  -0.49402
 Alpha virt. eigenvalues --    0.13387   0.14911   0.19682   0.21045   0.53638
 Alpha virt. eigenvalues --    0.54857   0.56681   0.57796   0.66868   0.68702
 Alpha virt. eigenvalues --    0.78294   0.79454   0.79623   0.80312   0.82601

 Mulliken charges:
               1
     1  O   -0.514204
     2  H    0.260175
     3  H    0.253923
     4  O   -0.514831
     5  H    0.257804
     6  H    0.257133
 Sum of Mulliken charges =  -0.00000

 Dipole moment (field-independent basis, Debye):
    X=             -1.1581    Y=             -3.1146    Z=              0.0000  Tot=              3.3229
 Quadrupole moment (field-independent basis, Debye-Ang):
   XX=             -9.1869   YY=             -6.3344   ZZ=            -14.7149
   XY=             -6.5032   XZ=              0.0000   YZ=             -0.0000

 Normal termination of Gaussian 16 at Sun Aug 28 03:57:17 2022.
