 Gaussian 16, Revision A.03,
 Gaussian 16:  ES64L-G16RevA.03 25-Dec-2016

 ------------------
 #p CCSD(T)/cc-pVTZ
 ------------------

 ----------
 H2O_H2O_93
 ----------
 Symbolic Z-matrix:
 Charge =  0 Multiplicity = 1

                         Standard orientation:
 ---------------------------------------------------------------------
 Center     Atomic      Atomic             Coordinates (Angstroms)
 Number     Number       Type             X           Y           Z
 ---------------------------------------------------------------------
      1          8           0        0.034021    1.141012    0.000000
      2          1           0        0.029250    0.158422    0.000000
      3          1           0       -0.893914    1.464188    0.000000
      4          8           0        0.034021   -0.963665   -0.000000
      5          1           0        0.939990   -1.344094   -0.000000
      6          1           0       -0.619660   -1.697291   -0.000000
 ---------------------------------------------------------------------

 SCF Done:  E(RHF) =  -152.046869735     A.U. after   11 cycles
 E2 =    -0.5354652794D+00 EUMP2 =    -0.15258233501482D+03
 CCSD(T)
 CCSD(T)= -0.15260792985D+03

 The electronic state is 1-A'.
 Alpha  occ. eigenvalues --  -20.61896 -20.44340  -1.43374  -1.24551  -0.79906
 Alpha  occ. eigenvalues --   -0.76265  -0.58377  -0.55107  -0.44506  -0.41078
 Alpha virt. eigenvalues --    0.10470   0.16722   0.20987   0.33329   0.46698
 Alpha virt. eigenvalues --    0.52038   0.61830   0.67485   0.70308   0.70813
 Alpha virt. eigenvalues --    0.77639   0.78850   0.81166   0.83247   0.87570

 Mulliken charges:
               1
     1  O   -0.676346
     2  H    0.287478
     3  H    0.211137
     4  O   -0.320425
     5  H    0.261381
     6  H    0.236775
 Sum of Mulliken charges =  -0.00000

 Dipole moment (field-independent basis, Debye):
    X=             -1.0306    Y=             -4.9856    Z=             -0.0000  Tot=              5.0910
 Quadrupole moment (field-independent basis, Debye-Ang):
   XX=             -9.1056   YY=            -10.1679   ZZ=            -14.5646
   XY=             -2.7080   XZ=             -0.0000   YZ=              0.0000

 Normal termination of Gaussian 16 at Fri Aug 26 15:48:37 2022.
