 Gaussian 16, Revision A.03,
 Gaussian 16:  ES64L-G16RevA.03 25-Dec-2016

 ------------------
 #p CCSD(T)/cc-pVTZ
 ------------------

 ------------
 H2O_H2O_3531
 ------------
 Symbolic Z-matrix:
 Charge =  0 Multiplicity = 1

                         Standard orientation:
 ---------------------------------------------------------------------
 Center     Atomic      Atomic             Coordinates (Angstroms)
 Number     Number       Type             X           Y           Z
 ---------------------------------------------------------------------
      1          8           0        0.076755    2.509442   -0.000000
      2          1           0        0.076189    1.526841   -0.000000
      3          1           0       -0.852554    2.828644    0.000000
      4          8           0        0.076755   -2.346227   -0.000000
      5          1           0        0.452258   -3.254249   -0.000000
      6          1           0       -0.903969   -2.406954    0.000000
 ---------------------------------------------------------------------

 SCF Done:  E(RHF) =  -152.108568940     A.U. after   10 cycles
 E2 =    -0.5259056976D+00 EUMP2 =    -0.15263447463771D+03
 CCSD(T)
 CCSD(T)= -0.15266165615D+03

 The electronic state is 1-A'.
 Alpha  occ. eigenvalues --  -20.56440 -20.54881  -1.33734  -1.32190  -0.71147
 Alpha  occ. eigenvalues --   -0.69581  -0.57226  -0.55657  -0.50852  -0.49312
 Alpha virt. eigenvalues --    0.12438   0.15388   0.19367   0.21913   0.53354
 Alpha virt. eigenvalues --    0.55075   0.56439   0.58066   0.66937   0.69190
 Alpha virt. eigenvalues --    0.78053   0.78699   0.79541   0.80558   0.82798

 Mulliken charges:
               1
     1  O   -0.513197
     2  H    0.261200
     3  H    0.251008
     4  O   -0.512998
     5  H    0.259825
     6  H    0.254163
 Sum of Mulliken charges =  -0.00000

 Dipole moment (field-independent basis, Debye):
    X=             -2.6228    Y=             -2.9009    Z=              0.0000  Tot=              3.9108
 Quadrupole moment (field-independent basis, Debye-Ang):
   XX=             -9.9522   YY=             -7.6318   ZZ=            -14.7152
   XY=             -3.4864   XZ=             -0.0000   YZ=              0.0000

 CCSD(T)=-152.6616562\RMSD=7.140e-09\PG=CS [SG(H4O2)]\\@
 Normal termination of Gaussian 16 at Fri Aug 26 22:14:02 2022.
