 Gaussian 16, Revision A.03,
 Gaussian 16:  ES64L-G16RevA.03 25-Dec-2016

 ------------------
 #p CCSD(T)/cc-pVTZ
 ------------------

 ----------
 H2O_H2O_23
 ----------
 Symbolic Z-matrix:
 Charge =  0 Multiplicity = 1

                         Standard orientation:
 ---------------------------------------------------------------------
 Center     Atomic      Atomic             Coordinates (Angstroms)
 Number     Number       Type             X           Y           Z
 ---------------------------------------------------------------------
      1          8           0        0.016915   -1.103456    0.000000
      2          1           0        0.010578   -0.120875    0.000000
      3          1           0       -0.910503   -1.428111    0.000000
      4          8           0        0.016915    0.940185    0.000000
      5          1           0        0.996979    1.010773    0.000000
      6          1           0       -0.367701    1.844385    0.000000
 ---------------------------------------------------------------------

 SCF Done:  E(RHF) =  -152.021894480     A.U. after   11 cycles
 E2 =    -0.5370610284D+00 EUMP2 =    -0.15255895550847D+03
 CCSD(T)
 CCSD(T)= -0.15258433266D+03

 The electronic state is 1-A'.
 Alpha  occ. eigenvalues --  -20.61985 -20.44048  -1.44932  -1.24451  -0.83278
 Alpha  occ. eigenvalues --   -0.74117  -0.58940  -0.55335  -0.43989  -0.41007
 Alpha virt. eigenvalues --    0.10550   0.16822   0.21013   0.33289   0.47645
 Alpha virt. eigenvalues --    0.51288   0.60267   0.69405   0.70239   0.71704
 Alpha virt. eigenvalues --    0.76181   0.76617   0.80937   0.85566   0.88316

 Mulliken charges:
               1
     1  O   -0.690695
     2  H    0.260848
     3  H    0.220302
     4  O   -0.287141
     5  H    0.268817
     6  H    0.227870
 Sum of Mulliken charges =  -0.00000

 Dipole moment (field-independent basis, Debye):
    X=             -0.4957    Y=              4.8022    Z=              0.0000  Tot=              4.8277
 Quadrupole moment (field-independent basis, Debye-Ang):
   XX=             -9.3853   YY=            -10.1970   ZZ=            -14.5206
   XY=              2.7839   XZ=              0.0000   YZ=              0.0000

 Normal termination of Gaussian 16 at Fri Aug 26 15:20:29 2022.
