 Gaussian 16, Revision A.03,
 Gaussian 16:  ES64L-G16RevA.03 25-Dec-2016

 ------------------
 #p CCSD(T)/cc-pVTZ
 ------------------

 ------------
 H2O_H2O_2779
 ------------
 Symbolic Z-matrix:
 Charge =  0 Multiplicity = 1

                         Standard orientation:
 ---------------------------------------------------------------------
 Center     Atomic      Atomic             Coordinates (Angstroms)
 Number     Number       Type             X           Y           Z
 ---------------------------------------------------------------------
      1          8           0        0.082806   -2.205558    0.000000
      2          1           0        0.082401   -1.222956    0.000000
      3          1           0       -0.846556   -2.524607    0.000000
      4          8           0        0.082806    2.051044    0.000000
      5          1           0        0.336731    3.000269    0.000000
      6          1           0       -0.897466    1.983403    0.000000
 ---------------------------------------------------------------------

 SCF Done:  E(RHF) =  -152.109038611     A.U. after   10 cycles
 E2 =    -0.5261019186D+00 EUMP2 =    -0.15263514052951D+03
 CCSD(T)
 CCSD(T)= -0.15266229404D+03

 The electronic state is 1-A'.
 Alpha  occ. eigenvalues --  -20.56766 -20.54754  -1.34050  -1.32066  -0.71477
 Alpha  occ. eigenvalues --   -0.69443  -0.57553  -0.55528  -0.51167  -0.49188
 Alpha virt. eigenvalues --    0.11875   0.15851   0.19492   0.23246   0.54071
 Alpha virt. eigenvalues --    0.55058   0.56387   0.58341   0.68581   0.69462
 Alpha virt. eigenvalues --    0.77676   0.78862   0.79681   0.80670   0.82914

 Mulliken charges:
               1
     1  O   -0.514609
     2  H    0.262965
     3  H    0.248720
     4  O   -0.508861
     5  H    0.259617
     6  H    0.252168
 Sum of Mulliken charges =   0.00000

 Dipole moment (field-independent basis, Debye):
    X=             -2.8164    Y=              2.7953    Z=              0.0000  Tot=              3.9681
 Quadrupole moment (field-independent basis, Debye-Ang):
   XX=            -10.2583   YY=             -8.2636   ZZ=            -14.7163
   XY=              2.9519   XZ=              0.0000   YZ=              0.0000

 Normal termination of Gaussian 16 at Fri Aug 26 17:15:37 2022.
