 Gaussian 16, Revision A.03,
 Gaussian 16:  ES64L-G16RevA.03 25-Dec-2016

 ------------------
 #p CCSD(T)/cc-pVTZ
 ------------------

 ------------
 H2O_H2O_3920
 ------------
 Symbolic Z-matrix:
 Charge =  0 Multiplicity = 1

                         Standard orientation:
 ---------------------------------------------------------------------
 Center     Atomic      Atomic             Coordinates (Angstroms)
 Number     Number       Type             X           Y           Z
 ---------------------------------------------------------------------
      1          8           0        0.026630    2.664473   -0.000000
      2          1           0        0.024447    1.681874   -0.000000
      3          1           0       -0.902153    2.985203   -0.000000
      4          8           0        0.026630   -2.491231    0.000000
      5          1           0        0.975184   -2.747655    0.000000
      6          1           0       -0.523559   -3.305356    0.000000
 ---------------------------------------------------------------------

 SCF Done:  E(RHF) =  -152.108856207     A.U. after   10 cycles
 E2 =    -0.5258136480D+00 EUMP2 =    -0.15263466985519D+03
 CCSD(T)
 CCSD(T)= -0.15266185256D+03

 The electronic state is 1-A'.
 Alpha  occ. eigenvalues --  -20.56306 -20.54844  -1.33604  -1.32156  -0.71008
 Alpha  occ. eigenvalues --   -0.69559  -0.57113  -0.55636  -0.50726  -0.49284
 Alpha virt. eigenvalues --    0.12960   0.15248   0.19504   0.21517   0.53385
 Alpha virt. eigenvalues --    0.55060   0.56597   0.57854   0.66689   0.69101
 Alpha virt. eigenvalues --    0.78168   0.79057   0.79563   0.80228   0.82861

 Mulliken charges:
               1
     1  O   -0.515920
     2  H    0.261299
     3  H    0.254099
     4  O   -0.516033
     5  H    0.258350
     6  H    0.258205
 Sum of Mulliken charges =  -0.00000

 Dipole moment (field-independent basis, Debye):
    X=             -0.9127    Y=             -3.0602    Z=              0.0000  Tot=              3.1934
 Quadrupole moment (field-independent basis, Debye-Ang):
   XX=             -9.2886   YY=             -6.9414   ZZ=            -14.7163
   XY=             -6.3657   XZ=              0.0000   YZ=             -0.0000

 Normal termination of Gaussian 16 at Sat Aug 27 00:28:29 2022.
