 Gaussian 16, Revision A.03,
 Gaussian 16:  ES64L-G16RevA.03 25-Dec-2016

 ------------------
 #p CCSD(T)/cc-pVTZ
 ------------------

 -----------
 H2O_H2O_686
 -----------
 Symbolic Z-matrix:
 Charge =  0 Multiplicity = 1

                         Standard orientation:
 ---------------------------------------------------------------------
 Center     Atomic      Atomic             Coordinates (Angstroms)
 Number     Number       Type             X           Y           Z
 ---------------------------------------------------------------------
      1          8           0        0.059726    1.380318   -0.000000
      2          1           0        0.057537    0.397719   -0.000000
      3          1           0       -0.869055    1.701054   -0.000000
      4          8           0        0.059726   -1.202987    0.000000
      5          1           0        0.705953   -1.943187    0.000000
      6          1           0       -0.850046   -1.574232    0.000000
 ---------------------------------------------------------------------

 SCF Done:  E(RHF) =  -152.107365269     A.U. after   11 cycles
 E2 =    -0.5305088339D+00 EUMP2 =    -0.15263787410273D+03
 CCSD(T)
 CCSD(T)= -0.15266447629D+03

 The electronic state is 1-A'.
 Alpha  occ. eigenvalues --  -20.59642 -20.50211  -1.37611  -1.28280  -0.74671
 Alpha  occ. eigenvalues --   -0.69458  -0.59282  -0.54461  -0.50850  -0.45300
 Alpha virt. eigenvalues --    0.11440   0.17450   0.19685   0.33068   0.47897
 Alpha virt. eigenvalues --    0.54007   0.60622   0.60739   0.70592   0.72344
 Alpha virt. eigenvalues --    0.72804   0.77904   0.81282   0.83152   0.84339

 Mulliken charges:
               1
     1  O   -0.589893
     2  H    0.309994
     3  H    0.228913
     4  O   -0.456289
     5  H    0.256541
     6  H    0.250734
 Sum of Mulliken charges =  -0.00000

 Dipole moment (field-independent basis, Debye):
    X=             -1.9322    Y=             -4.0125    Z=              0.0000  Tot=              4.4535
 Quadrupole moment (field-independent basis, Debye-Ang):
   XX=             -9.3665   YY=             -9.1461   ZZ=            -14.6961
   XY=             -3.0766   XZ=              0.0000   YZ=             -0.0000

 Normal termination of Gaussian 16 at Fri Aug 26 19:50:45 2022.
