 Gaussian 16, Revision A.03,
 Gaussian 16:  ES64L-G16RevA.03 25-Dec-2016

 ------------------
 #p CCSD(T)/cc-pVTZ
 ------------------

 ------------
 H2O_H2O_3562
 ------------
 Symbolic Z-matrix:
 Charge =  0 Multiplicity = 1

                         Standard orientation:
 ---------------------------------------------------------------------
 Center     Atomic      Atomic             Coordinates (Angstroms)
 Number     Number       Type             X           Y           Z
 ---------------------------------------------------------------------
      1          8           0        0.055981    2.527947    0.000000
      2          1           0        0.054694    1.545346    0.000000
      3          1           0       -0.873094    2.847830    0.000000
      4          8           0        0.055981   -2.349027   -0.000000
      5          1           0        0.749874   -3.044740   -0.000000
      6          1           0       -0.827166   -2.779790   -0.000000
 ---------------------------------------------------------------------

 SCF Done:  E(RHF) =  -152.109029927     A.U. after   10 cycles
 E2 =    -0.5258629444D+00 EUMP2 =    -0.15263489287131D+03
 CCSD(T)
 CCSD(T)= -0.15266206467D+03

 The electronic state is 1-A'.
 Alpha  occ. eigenvalues --  -20.56424 -20.54696  -1.33715  -1.32009  -0.71119
 Alpha  occ. eigenvalues --   -0.69404  -0.57228  -0.55487  -0.50838  -0.49137
 Alpha virt. eigenvalues --    0.12770   0.15469   0.19557   0.21715   0.53424
 Alpha virt. eigenvalues --    0.55046   0.56480   0.58008   0.66939   0.69304
 Alpha virt. eigenvalues --    0.78065   0.79021   0.79641   0.79704   0.83000

 Mulliken charges:
               1
     1  O   -0.515768
     2  H    0.262608
     3  H    0.252014
     4  O   -0.515087
     5  H    0.259776
     6  H    0.256458
 Sum of Mulliken charges =  -0.00000

 Dipole moment (field-independent basis, Debye):
    X=             -1.9136    Y=             -3.1806    Z=             -0.0000  Tot=              3.7119
 Quadrupole moment (field-independent basis, Debye-Ang):
   XX=             -9.2861   YY=             -6.8888   ZZ=            -14.7170
   XY=             -4.6430   XZ=             -0.0000   YZ=             -0.0000

 Normal termination of Gaussian 16 at Fri Aug 26 22:24:15 2022.
