 Gaussian 16, Revision A.03,
 Gaussian 16:  ES64L-G16RevA.03 25-Dec-2016

 ------------------
 #p CCSD(T)/cc-pVTZ
 ------------------

 ------------
 H2O_H2O_4866
 ------------
 Symbolic Z-matrix:
 Charge =  0 Multiplicity = 1

                         Standard orientation:
 ---------------------------------------------------------------------
 Center     Atomic      Atomic             Coordinates (Angstroms)
 Number     Number       Type             X           Y           Z
 ---------------------------------------------------------------------
      1          8           0        0.041099    3.047054   -0.000000
      2          1           0        0.039612    2.064453   -0.000000
      3          1           0       -0.887911    3.367127   -0.000000
      4          8           0        0.041099   -2.867091    0.000000
      5          1           0        0.891313   -3.359680    0.000000
      6          1           0       -0.700597   -3.511600    0.000000
 ---------------------------------------------------------------------

 SCF Done:  E(RHF) =  -152.108295260     A.U. after   10 cycles
 E2 =    -0.5258042411D+00 EUMP2 =    -0.15263409950088D+03
 CCSD(T)
 CCSD(T)= -0.15266130093D+03

 The electronic state is 1-A'.
 Alpha  occ. eigenvalues --  -20.56125 -20.55016  -1.33427  -1.32322  -0.70831
 Alpha  occ. eigenvalues --   -0.69725  -0.56915  -0.55791  -0.50545  -0.49444
 Alpha virt. eigenvalues --    0.13515   0.14799   0.19739   0.20918   0.53717
 Alpha virt. eigenvalues --    0.54811   0.56714   0.57774   0.67026   0.68546
 Alpha virt. eigenvalues --    0.78338   0.79415   0.79744   0.80457   0.82303

 Mulliken charges:
               1
     1  O   -0.513459
     2  H    0.259691
     3  H    0.253723
     4  O   -0.514077
     5  H    0.257632
     6  H    0.256490
 Sum of Mulliken charges =  -0.00000

 Dipole moment (field-independent basis, Debye):
    X=             -1.4109    Y=             -3.1501    Z=              0.0000  Tot=              3.4516
 Quadrupole moment (field-independent basis, Debye-Ang):
   XX=             -9.1496   YY=             -6.0030   ZZ=            -14.7144
   XY=             -6.2687   XZ=              0.0000   YZ=             -0.0000

 Normal termination of Gaussian 16 at Sun Aug 28 06:28:20 2022.
