 Gaussian 16, Revision A.03,
 Gaussian 16:  ES64L-G16RevA.03 25-Dec-2016

 ------------------
 #p CCSD(T)/cc-pVTZ
 ------------------

 ------------
 H2O_H2O_2366
 ------------
 Symbolic Z-matrix:
 Charge =  0 Multiplicity = 1

                         Standard orientation:
 ---------------------------------------------------------------------
 Center     Atomic      Atomic             Coordinates (Angstroms)
 Number     Number       Type             X           Y           Z
 ---------------------------------------------------------------------
      1          8           0        0.041168    2.049830    0.000000
      2          1           0        0.038924    1.067231    0.000000
      3          1           0       -0.887595    2.370618   -0.000000
      4          8           0        0.041168   -1.869931    0.000000
      5          1           0        0.891002   -2.363174    0.000000
      6          1           0       -0.701024   -2.513869   -0.000000
 ---------------------------------------------------------------------

 SCF Done:  E(RHF) =  -152.111339087     A.U. after   10 cycles
 E2 =    -0.5261499125D+00 EUMP2 =    -0.15263748899912D+03
 CCSD(T)
 CCSD(T)= -0.15266458407D+03

 The electronic state is 1-A'.
 Alpha  occ. eigenvalues --  -20.57041 -20.54012  -1.34298  -1.31351  -0.71690
 Alpha  occ. eigenvalues --   -0.68754  -0.57920  -0.54835  -0.51437  -0.48498
 Alpha virt. eigenvalues --    0.12324   0.16607   0.19273   0.24671   0.52503
 Alpha virt. eigenvalues --    0.55435   0.56416   0.58939   0.69048   0.71332
 Alpha virt. eigenvalues --    0.77152   0.78430   0.80357   0.81881   0.83645

 Mulliken charges:
               1
     1  O   -0.525336
     2  H    0.267231
     3  H    0.250770
     4  O   -0.510629
     5  H    0.260827
     6  H    0.257137
 Sum of Mulliken charges =  -0.00000

 Dipole moment (field-independent basis, Debye):
    X=             -1.3977    Y=             -3.3190    Z=             -0.0000  Tot=              3.6013
 Quadrupole moment (field-independent basis, Debye-Ang):
   XX=             -9.1501   YY=             -7.6174   ZZ=            -14.7247
   XY=             -4.4798   XZ=              0.0000   YZ=             -0.0000

 Normal termination of Gaussian 16 at Sun Aug 28 06:42:28 2022.
