 Gaussian 16, Revision A.03,
 Gaussian 16:  ES64L-G16RevA.03 25-Dec-2016

 ------------------
 #p CCSD(T)/cc-pVTZ
 ------------------

 -----------
 H2O_H2O_187
 -----------
 Symbolic Z-matrix:
 Charge =  0 Multiplicity = 1

                         Standard orientation:
 ---------------------------------------------------------------------
 Center     Atomic      Atomic             Coordinates (Angstroms)
 Number     Number       Type             X           Y           Z
 ---------------------------------------------------------------------
      1          8           0        0.056125    1.181647    0.000000
      2          1           0        0.053253    0.199050    0.000000
      3          1           0       -0.872433    1.503029    0.000000
      4          8           0        0.056125   -1.002909   -0.000000
      5          1           0        0.748896   -1.699741   -0.000000
      6          1           0       -0.827715   -1.432247   -0.000000
 ---------------------------------------------------------------------

 SCF Done:  E(RHF) =  -152.066760949     A.U. after   11 cycles
 E2 =    -0.5347846395D+00 EUMP2 =    -0.15260154558853D+03
 CCSD(T)
 CCSD(T)= -0.15262734594D+03

 The electronic state is 1-A'.
 Alpha  occ. eigenvalues --  -20.61521 -20.45754  -1.41899  -1.25383  -0.77902
 Alpha  occ. eigenvalues --   -0.75644  -0.57518  -0.55840  -0.46154  -0.42037
 Alpha virt. eigenvalues --    0.10605   0.16617   0.20883   0.33040   0.47564
 Alpha virt. eigenvalues --    0.52396   0.62709   0.63807   0.71254   0.71437
 Alpha virt. eigenvalues --    0.78874   0.79630   0.80946   0.82511   0.85379

 Mulliken charges:
               1
     1  O   -0.648173
     2  H    0.299823
     3  H    0.206809
     4  O   -0.351365
     5  H    0.248312
     6  H    0.244594
 Sum of Mulliken charges =  -0.00000

 Dipole moment (field-independent basis, Debye):
    X=             -1.7245    Y=             -4.7973    Z=             -0.0000  Tot=              5.0978
 Quadrupole moment (field-independent basis, Debye-Ang):
   XX=             -9.2526   YY=             -9.9737   ZZ=            -14.5960
   XY=             -2.7590   XZ=             -0.0000   YZ=              0.0000

 Normal termination of Gaussian 16 at Fri Aug 26 16:27:57 2022.
