 Gaussian 16, Revision A.03,
 Gaussian 16:  ES64L-G16RevA.03 25-Dec-2016

 ------------------
 #p CCSD(T)/cc-pVTZ
 ------------------

 ------------
 H2O_H2O_4158
 ------------
 Symbolic Z-matrix:
 Charge =  0 Multiplicity = 1

                         Standard orientation:
 ---------------------------------------------------------------------
 Center     Atomic      Atomic             Coordinates (Angstroms)
 Number     Number       Type             X           Y           Z
 ---------------------------------------------------------------------
      1          8           0        0.070187    2.762569    0.000000
      2          1           0        0.069466    1.779968    0.000000
      3          1           0       -0.859072    3.081918   -0.000000
      4          8           0        0.070187   -2.592306    0.000000
      5          1           0        0.560863   -3.443624    0.000000
      6          1           0       -0.894249   -2.780370   -0.000000
 ---------------------------------------------------------------------

 SCF Done:  E(RHF) =  -152.108329331     A.U. after   10 cycles
 E2 =    -0.5258412704D+00 EUMP2 =    -0.15263417060101D+03
 CCSD(T)
 CCSD(T)= -0.15266136658D+03

 The electronic state is 1-A'.
 Alpha  occ. eigenvalues --  -20.56263 -20.54964  -1.33563  -1.32271  -0.70971
 Alpha  occ. eigenvalues --   -0.69668  -0.57050  -0.55738  -0.50680  -0.49392
 Alpha virt. eigenvalues --    0.13032   0.15034   0.19504   0.21275   0.53408
 Alpha virt. eigenvalues --    0.54941   0.56572   0.57823   0.66718   0.68915
 Alpha virt. eigenvalues --    0.78213   0.79212   0.79465   0.80406   0.82711

 Mulliken charges:
               1
     1  O   -0.512920
     2  H    0.260472
     3  H    0.252168
     4  O   -0.513819
     5  H    0.259074
     6  H    0.255025
 Sum of Mulliken charges =  -0.00000

 Dipole moment (field-independent basis, Debye):
    X=             -2.4044    Y=             -2.9990    Z=             -0.0000  Tot=              3.8439
 Quadrupole moment (field-independent basis, Debye-Ang):
   XX=             -9.6799   YY=             -6.9865   ZZ=            -14.7144
   XY=             -4.0873   XZ=              0.0000   YZ=             -0.0000

 Normal termination of Gaussian 16 at Sun Aug 28 00:16:48 2022.
