 Gaussian 16, Revision A.03,
 Gaussian 16:  ES64L-G16RevA.03 25-Dec-2016

 ------------------
 #p CCSD(T)/cc-pVTZ
 ------------------

 -----------
 H2O_H2O_297
 -----------
 Symbolic Z-matrix:
 Charge =  0 Multiplicity = 1

                         Standard orientation:
 ---------------------------------------------------------------------
 Center     Atomic      Atomic             Coordinates (Angstroms)
 Number     Number       Type             X           Y           Z
 ---------------------------------------------------------------------
      1          8           0       -0.020094    1.215165    0.000000
      2          1           0       -0.014613    0.232579    0.000000
      3          1           0        0.907607    1.539011    0.000000
      4          8           0       -0.020094   -1.048173    0.000000
      5          1           0       -0.993559   -1.181860    0.000000
      6          1           0        0.422071   -1.925667    0.000000
 ---------------------------------------------------------------------

 SCF Done:  E(RHF) =  -152.079307594     A.U. after   11 cycles
 E2 =    -0.5338685133D+00 EUMP2 =    -0.15261317610745D+03
 CCSD(T)
 CCSD(T)= -0.15263917851D+03

 The electronic state is 1-A'.
 Alpha  occ. eigenvalues --  -20.60875 -20.47235  -1.40653  -1.26324  -0.78554
 Alpha  occ. eigenvalues --   -0.71579  -0.57776  -0.56565  -0.47569  -0.43164
 Alpha virt. eigenvalues --    0.11107   0.17545   0.20182   0.34001   0.47430
 Alpha virt. eigenvalues --    0.52643   0.59675   0.68644   0.71621   0.71874
 Alpha virt. eigenvalues --    0.76446   0.77871   0.78065   0.84200   0.84721

 Mulliken charges:
               1
     1  O   -0.644401
     2  H    0.291918
     3  H    0.231514
     4  O   -0.372842
     5  H    0.261114
     6  H    0.232697
 Sum of Mulliken charges =  -0.00000

 Dipole moment (field-independent basis, Debye):
    X=              0.6339    Y=             -4.3510    Z=              0.0000  Tot=              4.3969
 Quadrupole moment (field-independent basis, Debye-Ang):
   XX=             -9.3648   YY=             -9.7091   ZZ=            -14.6178
   XY=              3.0499   XZ=              0.0000   YZ=              0.0000

 Normal termination of Gaussian 16 at Fri Aug 26 17:15:10 2022.
