 Gaussian 16, Revision A.03,
 Gaussian 16:  ES64L-G16RevA.03 25-Dec-2016

 ------------------
 #p CCSD(T)/cc-pVTZ
 ------------------

 ------------
 H2O_H2O_4701
 ------------
 Symbolic Z-matrix:
 Charge =  0 Multiplicity = 1

                         Standard orientation:
 ---------------------------------------------------------------------
 Center     Atomic      Atomic             Coordinates (Angstroms)
 Number     Number       Type             X           Y           Z
 ---------------------------------------------------------------------
      1          8           0        0.090683   -2.964813    0.000000
      2          1           0        0.090617   -1.982211    0.000000
      3          1           0       -0.838788   -3.283542    0.000000
      4          8           0        0.090683    2.826101    0.000000
      5          1           0        0.154883    3.806603    0.000000
      6          1           0       -0.857644    2.568844    0.000000
 ---------------------------------------------------------------------

 SCF Done:  E(RHF) =  -152.107669144     A.U. after   10 cycles
 E2 =    -0.5258659613D+00 EUMP2 =    -0.15263353510524D+03
 CCSD(T)
 CCSD(T)= -0.15266074949D+03

 The electronic state is 1-A'.
 Alpha  occ. eigenvalues --  -20.56175 -20.55324  -1.33477  -1.32625  -0.70890
 Alpha  occ. eigenvalues --   -0.70023  -0.56937  -0.56078  -0.50588  -0.49739
 Alpha virt. eigenvalues --    0.12993   0.14653   0.19043   0.21399   0.53363
 Alpha virt. eigenvalues --    0.54754   0.56583   0.57625   0.67006   0.68371
 Alpha virt. eigenvalues --    0.78302   0.79135   0.79688   0.81061   0.81653

 Mulliken charges:
               1
     1  O   -0.509788
     2  H    0.257388
     3  H    0.252364
     4  O   -0.510707
     5  H    0.257937
     6  H    0.252807
 Sum of Mulliken charges =  -0.00000

 Dipole moment (field-independent basis, Debye):
    X=             -3.1115    Y=              2.4301    Z=              0.0000  Tot=              3.9480
 Quadrupole moment (field-independent basis, Debye-Ang):
   XX=            -10.6992   YY=             -8.8547   ZZ=            -14.7120
   XY=              2.4266   XZ=              0.0000   YZ=              0.0000

 Normal termination of Gaussian 16 at Sun Aug 28 05:10:06 2022.
