 Gaussian 16, Revision A.03,
 Gaussian 16:  ES64L-G16RevA.03 25-Dec-2016

 ------------------
 #p CCSD(T)/cc-pVTZ
 ------------------

 ------------
 H2O_H2O_4010
 ------------
 Symbolic Z-matrix:
 Charge =  0 Multiplicity = 1

                         Standard orientation:
 ---------------------------------------------------------------------
 Center     Atomic      Atomic             Coordinates (Angstroms)
 Number     Number       Type             X           Y           Z
 ---------------------------------------------------------------------
      1          8           0        0.063223    2.705597    0.000000
      2          1           0        0.062259    1.722996    0.000000
      3          1           0       -0.865957    3.025175    0.000000
      4          8           0        0.063223   -2.530070   -0.000000
      5          1           0        0.660628   -3.310207   -0.000000
      6          1           0       -0.868493   -2.842181   -0.000000
 ---------------------------------------------------------------------

 SCF Done:  E(RHF) =  -152.108540737     A.U. after   10 cycles
 E2 =    -0.5258381032D+00 EUMP2 =    -0.15263437883982D+03
 CCSD(T)
 CCSD(T)= -0.15266156846D+03

 The electronic state is 1-A'.
 Alpha  occ. eigenvalues --  -20.56295 -20.54874  -1.33593  -1.32183  -0.71000
 Alpha  occ. eigenvalues --   -0.69580  -0.57089  -0.55654  -0.50712  -0.49306
 Alpha virt. eigenvalues --    0.13009   0.15149   0.19570   0.21323   0.53458
 Alpha virt. eigenvalues --    0.54943   0.56561   0.57846   0.66686   0.69053
 Alpha virt. eigenvalues --    0.78182   0.79177   0.79546   0.80096   0.82819

 Mulliken charges:
               1
     1  O   -0.513893
     2  H    0.261218
     3  H    0.252247
     4  O   -0.514558
     5  H    0.259273
     6  H    0.255712
 Sum of Mulliken charges =  -0.00000

 Dipole moment (field-independent basis, Debye):
    X=             -2.1648    Y=             -3.0978    Z=             -0.0000  Tot=              3.7792
 Quadrupole moment (field-independent basis, Debye-Ang):
   XX=             -9.4546   YY=             -6.7848   ZZ=            -14.7152
   XY=             -4.4651   XZ=             -0.0000   YZ=             -0.0000

 Normal termination of Gaussian 16 at Sat Aug 27 00:58:42 2022.
