 Gaussian 16, Revision A.03,
 Gaussian 16:  ES64L-G16RevA.03 25-Dec-2016

 ------------------
 #p CCSD(T)/cc-pVTZ
 ------------------

 ------------
 H2O_H2O_3478
 ------------
 Symbolic Z-matrix:
 Charge =  0 Multiplicity = 1

                         Standard orientation:
 ---------------------------------------------------------------------
 Center     Atomic      Atomic             Coordinates (Angstroms)
 Number     Number       Type             X           Y           Z
 ---------------------------------------------------------------------
      1          8           0        0.085600   -2.482102    0.000000
      2          1           0        0.085341   -1.499501    0.000000
      3          1           0       -0.843809   -2.801014    0.000000
      4          8           0        0.085600    2.332503    0.000000
      5          1           0        0.277042    3.296274    0.000000
      6          1           0       -0.888167    2.201037    0.000000
 ---------------------------------------------------------------------

 SCF Done:  E(RHF) =  -152.108251761     A.U. after   10 cycles
 E2 =    -0.5259395568D+00 EUMP2 =    -0.15263419131772D+03
 CCSD(T)
 CCSD(T)= -0.15266137989D+03

 The electronic state is 1-A'.
 Alpha  occ. eigenvalues --  -20.56461 -20.55033  -1.33757  -1.32338  -0.71176
 Alpha  occ. eigenvalues --   -0.69727  -0.57235  -0.55798  -0.50870  -0.49456
 Alpha virt. eigenvalues --    0.12113   0.15356   0.19213   0.22271   0.53428
 Alpha virt. eigenvalues --    0.55003   0.56441   0.58063   0.67000   0.69061
 Alpha virt. eigenvalues --    0.78035   0.78645   0.79406   0.81058   0.82629

 Mulliken charges:
               1
     1  O   -0.511581
     2  H    0.260076
     3  H    0.250634
     4  O   -0.511450
     5  H    0.259724
     6  H    0.252597
 Sum of Mulliken charges =  -0.00000

 Dipole moment (field-independent basis, Debye):
    X=             -2.9238    Y=              2.6595    Z=              0.0000  Tot=              3.9524
 Quadrupole moment (field-independent basis, Debye-Ang):
   XX=            -10.4032   YY=             -8.3298   ZZ=            -14.7139
   XY=              2.8336   XZ=              0.0000   YZ=              0.0000

 Normal termination of Gaussian 16 at Fri Aug 26 21:55:10 2022.
