 Gaussian 16, Revision A.03,
 Gaussian 16:  ES64L-G16RevA.03 25-Dec-2016

 ------------------
 #p CCSD(T)/cc-pVTZ
 ------------------

 ----------
 H2O_H2O_94
 ----------
 Symbolic Z-matrix:
 Charge =  0 Multiplicity = 1

                         Standard orientation:
 ---------------------------------------------------------------------
 Center     Atomic      Atomic             Coordinates (Angstroms)
 Number     Number       Type             X           Y           Z
 ---------------------------------------------------------------------
      1          8           0        0.030431    1.139977   -0.000000
      2          1           0        0.025368    0.157389   -0.000000
      3          1           0       -0.897408    1.463428    0.000000
      4          8           0        0.030431   -0.964537   -0.000000
      5          1           0        0.959246   -1.285174   -0.000000
      6          1           0       -0.574099   -1.739166    0.000000
 ---------------------------------------------------------------------

 SCF Done:  E(RHF) =  -152.046386243     A.U. after   11 cycles
 E2 =    -0.5355497825D+00 EUMP2 =    -0.15258193602591D+03
 CCSD(T)
 CCSD(T)= -0.15260752581D+03

 The electronic state is 1-A'.
 Alpha  occ. eigenvalues --  -20.61860 -20.44428  -1.43384  -1.24607  -0.80318
 Alpha  occ. eigenvalues --   -0.75694  -0.58349  -0.55261  -0.44574  -0.41153
 Alpha virt. eigenvalues --    0.10510   0.16789   0.20945   0.33396   0.46796
 Alpha virt. eigenvalues --    0.52007   0.61400   0.68073   0.70411   0.70825
 Alpha virt. eigenvalues --    0.77241   0.78467   0.81074   0.83687   0.87501

 Mulliken charges:
               1
     1  O   -0.677017
     2  H    0.285596
     3  H    0.213667
     4  O   -0.319997
     5  H    0.262761
     6  H    0.234990
 Sum of Mulliken charges =  -0.00000

 Dipole moment (field-independent basis, Debye):
    X=             -0.9219    Y=             -4.9399    Z=             -0.0000  Tot=              5.0252
 Quadrupole moment (field-independent basis, Debye-Ang):
   XX=             -9.1395   YY=            -10.1473   ZZ=            -14.5628
   XY=             -2.7240   XZ=             -0.0000   YZ=             -0.0000

 Normal termination of Gaussian 16 at Fri Aug 26 15:49:02 2022.
