 Gaussian 16, Revision A.03,
 Gaussian 16:  ES64L-G16RevA.03 25-Dec-2016

 ------------------
 #p CCSD(T)/cc-pVTZ
 ------------------

 ------------
 H2O_H2O_4434
 ------------
 Symbolic Z-matrix:
 Charge =  0 Multiplicity = 1

                         Standard orientation:
 ---------------------------------------------------------------------
 Center     Atomic      Atomic             Coordinates (Angstroms)
 Number     Number       Type             X           Y           Z
 ---------------------------------------------------------------------
      1          8           0        0.066744    2.873817   -0.000000
      2          1           0        0.065946    1.891216   -0.000000
      3          1           0       -0.862490    3.193238   -0.000000
      4          8           0        0.066744   -2.700688    0.000000
      5          1           0        0.611986   -3.518133    0.000000
      6          1           0       -0.883347   -2.951353    0.000000
 ---------------------------------------------------------------------

 SCF Done:  E(RHF) =  -152.108254163     A.U. after   10 cycles
 E2 =    -0.5258279658D+00 EUMP2 =    -0.15263408212854D+03
 CCSD(T)
 CCSD(T)= -0.15266128208D+03

 The electronic state is 1-A'.
 Alpha  occ. eigenvalues --  -20.56204 -20.54997  -1.33505  -1.32304  -0.70913
 Alpha  occ. eigenvalues --   -0.69702  -0.56991  -0.55770  -0.50622  -0.49424
 Alpha virt. eigenvalues --    0.13247   0.14910   0.19589   0.21094   0.53537
 Alpha virt. eigenvalues --    0.54874   0.56626   0.57782   0.66821   0.68753
 Alpha virt. eigenvalues --    0.78266   0.79435   0.79467   0.80397   0.82622

 Mulliken charges:
               1
     1  O   -0.512808
     2  H    0.260110
     3  H    0.252555
     4  O   -0.513726
     5  H    0.258627
     6  H    0.255242
 Sum of Mulliken charges =  -0.00000

 Dipole moment (field-independent basis, Debye):
    X=             -2.2883    Y=             -3.0410    Z=              0.0000  Tot=              3.8058
 Quadrupole moment (field-independent basis, Debye-Ang):
   XX=             -9.5602   YY=             -6.6790   ZZ=            -14.7142
   XY=             -4.4095   XZ=              0.0000   YZ=             -0.0000

 Normal termination of Gaussian 16 at Sun Aug 28 02:49:06 2022.
