 Gaussian 16, Revision A.03,
 Gaussian 16:  ES64L-G16RevA.03 25-Dec-2016

 ------------------
 #p CCSD(T)/cc-pVTZ
 ------------------

 ------------
 H2O_H2O_3773
 ------------
 Symbolic Z-matrix:
 Charge =  0 Multiplicity = 1

                         Standard orientation:
 ---------------------------------------------------------------------
 Center     Atomic      Atomic             Coordinates (Angstroms)
 Number     Number       Type             X           Y           Z
 ---------------------------------------------------------------------
      1          8           0       -0.016603    2.599298    0.000000
      2          1           0       -0.014030    1.616700    0.000000
      3          1           0        0.912053    2.920397    0.000000
      4          8           0       -0.016603   -2.435898    0.000000
      5          1           0       -0.996929   -2.502729    0.000000
      6          1           0        0.364546   -3.341564    0.000000
 ---------------------------------------------------------------------

 SCF Done:  E(RHF) =  -152.108901979     A.U. after   10 cycles
 E2 =    -0.5258220126D+00 EUMP2 =    -0.15263472399194D+03
 CCSD(T)
 CCSD(T)= -0.15266190463D+03

 The electronic state is 1-A'.
 Alpha  occ. eigenvalues --  -20.56342 -20.54895  -1.33640  -1.32206  -0.71047
 Alpha  occ. eigenvalues --   -0.69613  -0.57149  -0.55687  -0.50762  -0.49335
 Alpha virt. eigenvalues --    0.12711   0.15319   0.19285   0.21898   0.53241
 Alpha virt. eigenvalues --    0.55219   0.56589   0.57880   0.66740   0.69123
 Alpha virt. eigenvalues --    0.78134   0.78868   0.79513   0.80666   0.82827

 Mulliken charges:
               1
     1  O   -0.516228
     2  H    0.260784
     3  H    0.254805
     4  O   -0.515981
     5  H    0.257792
     6  H    0.258829
 Sum of Mulliken charges =  -0.00000

 Dipole moment (field-independent basis, Debye):
    X=              0.5705    Y=             -2.8910    Z=              0.0000  Tot=              2.9468
 Quadrupole moment (field-independent basis, Debye-Ang):
   XX=             -9.5428   YY=             -7.5089   ZZ=            -14.7164
   XY=              6.8234   XZ=              0.0000   YZ=              0.0000

 Normal termination of Gaussian 16 at Fri Aug 26 23:35:37 2022.
