 Gaussian 16, Revision A.03,
 Gaussian 16:  ES64L-G16RevA.03 25-Dec-2016

 ------------------
 #p CCSD(T)/cc-pVTZ
 ------------------

 ------------
 H2O_H2O_4305
 ------------
 Symbolic Z-matrix:
 Charge =  0 Multiplicity = 1

                         Standard orientation:
 ---------------------------------------------------------------------
 Center     Atomic      Atomic             Coordinates (Angstroms)
 Number     Number       Type             X           Y           Z
 ---------------------------------------------------------------------
      1          8           0        0.079845    2.816323   -0.000000
      2          1           0        0.079439    1.833721   -0.000000
      3          1           0       -0.849516    3.135373    0.000000
      4          8           0        0.079845   -2.657247   -0.000000
      5          1           0        0.395308   -3.587833   -0.000000
      6          1           0       -0.902750   -2.653863    0.000000
 ---------------------------------------------------------------------

 SCF Done:  E(RHF) =  -152.108054887     A.U. after   10 cycles
 E2 =    -0.5258525710D+00 EUMP2 =    -0.15263390745790D+03
 CCSD(T)
 CCSD(T)= -0.15266111096D+03

 The electronic state is 1-A'.
 Alpha  occ. eigenvalues --  -20.56237 -20.55099  -1.33538  -1.32404  -0.70949
 Alpha  occ. eigenvalues --   -0.69800  -0.57014  -0.55864  -0.50652  -0.49521
 Alpha virt. eigenvalues --    0.12973   0.14906   0.19326   0.21340   0.53322
 Alpha virt. eigenvalues --    0.54922   0.56569   0.57788   0.66792   0.68734
 Alpha virt. eigenvalues --    0.78239   0.79335   0.79342   0.80811   0.82478

 Mulliken charges:
               1
     1  O   -0.511585
     2  H    0.259343
     3  H    0.252078
     4  O   -0.512619
     5  H    0.258785
     6  H    0.253997
 Sum of Mulliken charges =  -0.00000

 Dipole moment (field-independent basis, Debye):
    X=             -2.7364    Y=             -2.7969    Z=              0.0000  Tot=              3.9129
 Quadrupole moment (field-independent basis, Debye-Ang):
   XX=            -10.0945   YY=             -7.5738   ZZ=            -14.7134
   XY=             -3.4192   XZ=             -0.0000   YZ=              0.0000

 Normal termination of Gaussian 16 at Sun Aug 28 01:44:33 2022.
