 Gaussian 16, Revision A.03,
 Gaussian 16:  ES64L-G16RevA.03 25-Dec-2016

 ------------------
 #p CCSD(T)/cc-pVTZ
 ------------------

 ------------
 H2O_H2O_2469
 ------------
 Symbolic Z-matrix:
 Charge =  0 Multiplicity = 1

                         Standard orientation:
 ---------------------------------------------------------------------
 Center     Atomic      Atomic             Coordinates (Angstroms)
 Number     Number       Type             X           Y           Z
 ---------------------------------------------------------------------
      1          8           0        0.030217    2.087378   -0.000000
      2          1           0        0.027553    1.104780   -0.000000
      3          1           0       -0.898409    2.408563   -0.000000
      4          8           0        0.030217   -1.911790    0.000000
      5          1           0        0.959811   -2.230159    0.000000
      6          1           0       -0.572421   -2.687892    0.000000
 ---------------------------------------------------------------------

 SCF Done:  E(RHF) =  -152.111066197     A.U. after   10 cycles
 E2 =    -0.5260899001D+00 EUMP2 =    -0.15263715609699D+03
 CCSD(T)
 CCSD(T)= -0.15266426018D+03

 The electronic state is 1-A'.
 Alpha  occ. eigenvalues --  -20.56952 -20.54151  -1.34217  -1.31485  -0.71614
 Alpha  occ. eigenvalues --   -0.68890  -0.57821  -0.54974  -0.51353  -0.48632
 Alpha virt. eigenvalues --    0.12327   0.16487   0.19283   0.24338   0.53018
 Alpha virt. eigenvalues --    0.55485   0.56414   0.58736   0.69006   0.70847
 Alpha virt. eigenvalues --    0.77323   0.78816   0.80218   0.81273   0.83705

 Mulliken charges:
               1
     1  O   -0.524875
     2  H    0.266319
     3  H    0.252368
     4  O   -0.511902
     5  H    0.260430
     6  H    0.257660
 Sum of Mulliken charges =  -0.00000

 Dipole moment (field-independent basis, Debye):
    X=             -1.0283    Y=             -3.2224    Z=              0.0000  Tot=              3.3825
 Quadrupole moment (field-independent basis, Debye-Ang):
   XX=             -9.2297   YY=             -7.6670   ZZ=            -14.7236
   XY=             -4.9128   XZ=              0.0000   YZ=             -0.0000

 Normal termination of Gaussian 16 at Sun Aug 28 07:34:21 2022.
