 Gaussian 16, Revision A.03,
 Gaussian 16:  ES64L-G16RevA.03 25-Dec-2016

 ------------------
 #p CCSD(T)/cc-pVTZ
 ------------------

 ------------
 H2O_H2O_3093
 ------------
 Symbolic Z-matrix:
 Charge =  0 Multiplicity = 1

                         Standard orientation:
 ---------------------------------------------------------------------
 Center     Atomic      Atomic             Coordinates (Angstroms)
 Number     Number       Type             X           Y           Z
 ---------------------------------------------------------------------
      1          8           0        0.033792    2.337725    0.000000
      2          1           0        0.031559    1.355126    0.000000
      3          1           0       -0.894975    2.658502    0.000000
      4          8           0        0.033792   -2.160203   -0.000000
      5          1           0        0.940741   -2.538290   -0.000000
      6          1           0       -0.617992   -2.895515   -0.000000
 ---------------------------------------------------------------------

 SCF Done:  E(RHF) =  -152.109825735     A.U. after   10 cycles
 E2 =    -0.5259064428D+00 EUMP2 =    -0.15263573217738D+03
 CCSD(T)
 CCSD(T)= -0.15266287783D+03

 The electronic state is 1-A'.
 Alpha  occ. eigenvalues --  -20.56600 -20.54497  -1.33881  -1.31816  -0.71282
 Alpha  occ. eigenvalues --   -0.69216  -0.57425  -0.55306  -0.51011  -0.48953
 Alpha virt. eigenvalues --    0.12533   0.15879   0.19437   0.22565   0.53295
 Alpha virt. eigenvalues --    0.55440   0.56434   0.58376   0.67974   0.69346
 Alpha virt. eigenvalues --    0.77887   0.78940   0.79678   0.79876   0.83203

 Mulliken charges:
               1
     1  O   -0.519435
     2  H    0.263931
     3  H    0.252935
     4  O   -0.515151
     5  H    0.259713
     6  H    0.258007
 Sum of Mulliken charges =   0.00000

 Dipole moment (field-independent basis, Debye):
    X=             -1.1535    Y=             -3.1889    Z=             -0.0000  Tot=              3.3911
 Quadrupole moment (field-independent basis, Debye-Ang):
   XX=             -9.1860   YY=             -7.2270   ZZ=            -14.7197
   XY=             -5.3002   XZ=             -0.0000   YZ=              0.0000

 CCSD(T)=-152.6628778\RMSD=6.858e-09\PG=CS [SG(H4O2)]\\@
 Normal termination of Gaussian 16 at Fri Aug 26 19:43:50 2022.
