 Gaussian 16, Revision A.03,
 Gaussian 16:  ES64L-G16RevA.03 25-Dec-2016

 ------------------
 #p CCSD(T)/cc-pVTZ
 ------------------

 -----------
 H2O_H2O_871
 -----------
 Symbolic Z-matrix:
 Charge =  0 Multiplicity = 1

                         Standard orientation:
 ---------------------------------------------------------------------
 Center     Atomic      Atomic             Coordinates (Angstroms)
 Number     Number       Type             X           Y           Z
 ---------------------------------------------------------------------
      1          8           0       -0.023360    1.446313    0.000000
      2          1           0       -0.019011    0.463721    0.000000
      3          1           0        0.904714    1.769090    0.000000
      4          8           0       -0.023360   -1.276009    0.000000
      5          1           0       -0.986223   -1.471967    0.000000
      6          1           0        0.474273   -2.123279    0.000000
 ---------------------------------------------------------------------

 SCF Done:  E(RHF) =  -152.111243648     A.U. after   10 cycles
 E2 =    -0.5292615347D+00 EUMP2 =    -0.15264050518285D+03
 CCSD(T)
 CCSD(T)= -0.15266726907D+03

 The electronic state is 1-A'.
 Alpha  occ. eigenvalues --  -20.59070 -20.51222  -1.36775  -1.29044  -0.74222
 Alpha  occ. eigenvalues --   -0.68169  -0.59908  -0.53741  -0.51858  -0.46139
 Alpha virt. eigenvalues --    0.11848   0.18395   0.18841   0.32737   0.48398
 Alpha virt. eigenvalues --    0.54447   0.56776   0.64446   0.68245   0.72445
 Alpha virt. eigenvalues --    0.73334   0.77053   0.81283   0.83102   0.84252

 Mulliken charges:
               1
     1  O   -0.582258
     2  H    0.297013
     3  H    0.245446
     4  O   -0.467158
     5  H    0.262501
     6  H    0.244455
 Sum of Mulliken charges =  -0.00000

 Dipole moment (field-independent basis, Debye):
    X=              0.7753    Y=             -3.7011    Z=              0.0000  Tot=              3.7814
 Quadrupole moment (field-independent basis, Debye-Ang):
   XX=             -9.3443   YY=             -8.9424   ZZ=            -14.7116
   XY=              3.6076   XZ=              0.0000   YZ=              0.0000

 Normal termination of Gaussian 16 at Fri Aug 26 21:02:25 2022.
