 Gaussian 16, Revision A.03,
 Gaussian 16:  ES64L-G16RevA.03 25-Dec-2016

 ------------------
 #p CCSD(T)/cc-pVTZ
 ------------------

 ------------
 H2O_H2O_4015
 ------------
 Symbolic Z-matrix:
 Charge =  0 Multiplicity = 1

                         Standard orientation:
 ---------------------------------------------------------------------
 Center     Atomic      Atomic             Coordinates (Angstroms)
 Number     Number       Type             X           Y           Z
 ---------------------------------------------------------------------
      1          8           0        0.044836    2.708258    0.000000
      2          1           0        0.043276    1.725658    0.000000
      3          1           0       -0.884150    3.028399    0.000000
      4          8           0        0.044836   -2.527836   -0.000000
      5          1           0        0.860972   -3.075036   -0.000000
      6          1           0       -0.737469   -3.122399   -0.000000
 ---------------------------------------------------------------------

 SCF Done:  E(RHF) =  -152.108746251     A.U. after   10 cycles
 E2 =    -0.5258182928D+00 EUMP2 =    -0.15263456454362D+03
 CCSD(T)
 CCSD(T)= -0.15266175006D+03

 The electronic state is 1-A'.
 Alpha  occ. eigenvalues --  -20.56288 -20.54816  -1.33585  -1.32127  -0.70989
 Alpha  occ. eigenvalues --   -0.69526  -0.57091  -0.55603  -0.50707  -0.49253
 Alpha virt. eigenvalues --    0.13098   0.15193   0.19643   0.21311   0.53561
 Alpha virt. eigenvalues --    0.54913   0.56592   0.57833   0.66677   0.69091
 Alpha virt. eigenvalues --    0.78187   0.79510   0.79595   0.79634   0.82883

 Mulliken charges:
               1
     1  O   -0.515171
     2  H    0.261633
     3  H    0.253087
     4  O   -0.515585
     5  H    0.258954
     6  H    0.257083
 Sum of Mulliken charges =   0.00000

 Dipole moment (field-independent basis, Debye):
    X=             -1.5355    Y=             -3.1842    Z=             -0.0000  Tot=              3.5351
 Quadrupole moment (field-independent basis, Debye-Ang):
   XX=             -9.1568   YY=             -6.5302   ZZ=            -14.7160
   XY=             -5.4657   XZ=             -0.0000   YZ=              0.0000

 Normal termination of Gaussian 16 at Sat Aug 27 01:00:29 2022.
