 Gaussian 16, Revision A.03,
 Gaussian 16:  ES64L-G16RevA.03 25-Dec-2016

 ------------------
 #p CCSD(T)/cc-pVTZ
 ------------------

 ------------
 H2O_H2O_1705
 ------------
 Symbolic Z-matrix:
 Charge =  0 Multiplicity = 1

                         Standard orientation:
 ---------------------------------------------------------------------
 Center     Atomic      Atomic             Coordinates (Angstroms)
 Number     Number       Type             X           Y           Z
 ---------------------------------------------------------------------
      1          8           0        0.079865   -1.779222    0.000000
      2          1           0        0.079211   -0.796620    0.000000
      3          1           0       -0.849416   -2.098507    0.000000
      4          8           0        0.079865    1.620187    0.000000
      5          1           0        0.395093    2.550851    0.000000
      6          1           0       -0.902730    1.616554    0.000000
 ---------------------------------------------------------------------

 SCF Done:  E(RHF) =  -152.111167715     A.U. after   10 cycles
 E2 =    -0.5269747597D+00 EUMP2 =    -0.15263814247433D+03
 CCSD(T)
 CCSD(T)= -0.15266520738D+03

 The electronic state is 1-A'.
 Alpha  occ. eigenvalues --  -20.57647 -20.53925  -1.34941  -1.31288  -0.72424
 Alpha  occ. eigenvalues --   -0.68685  -0.58566  -0.54685  -0.52047  -0.48414
 Alpha virt. eigenvalues --    0.11772   0.16629   0.19698   0.27162   0.50472
 Alpha virt. eigenvalues --    0.55367   0.56902   0.58152   0.69128   0.74020
 Alpha virt. eigenvalues --    0.75051   0.77738   0.80718   0.82928   0.83724

 Mulliken charges:
               1
     1  O   -0.525495
     2  H    0.271269
     3  H    0.242798
     4  O   -0.497689
     5  H    0.257651
     6  H    0.251466
 Sum of Mulliken charges =  -0.00000

 Dipole moment (field-independent basis, Debye):
    X=             -2.6830    Y=              3.0478    Z=              0.0000  Tot=              4.0605
 Quadrupole moment (field-independent basis, Debye-Ang):
   XX=            -10.1286   YY=             -8.4752   ZZ=            -14.7233
   XY=              2.9321   XZ=              0.0000   YZ=              0.0000

 Normal termination of Gaussian 16 at Sun Aug 28 00:50:41 2022.
