 Gaussian 16, Revision A.03,
 Gaussian 16:  ES64L-G16RevA.03 25-Dec-2016

 ------------------
 #p CCSD(T)/cc-pVTZ
 ------------------

 ------------
 H2O_H2O_4097
 ------------
 Symbolic Z-matrix:
 Charge =  0 Multiplicity = 1

                         Standard orientation:
 ---------------------------------------------------------------------
 Center     Atomic      Atomic             Coordinates (Angstroms)
 Number     Number       Type             X           Y           Z
 ---------------------------------------------------------------------
      1          8           0       -0.019827    2.730952    0.000000
      2          1           0       -0.017484    1.748353    0.000000
      3          1           0        0.908903    3.051834    0.000000
      4          8           0       -0.019827   -2.563832    0.000000
      5          1           0       -0.993714   -2.694410    0.000000
      6          1           0        0.419533   -3.442734    0.000000
 ---------------------------------------------------------------------

 SCF Done:  E(RHF) =  -152.108688105     A.U. after   10 cycles
 E2 =    -0.5258059899D+00 EUMP2 =    -0.15263449409453D+03
 CCSD(T)
 CCSD(T)= -0.15266168310D+03

 The electronic state is 1-A'.
 Alpha  occ. eigenvalues --  -20.56261 -20.54944  -1.33561  -1.32254  -0.70966
 Alpha  occ. eigenvalues --   -0.69659  -0.57064  -0.55731  -0.50682  -0.49380
 Alpha virt. eigenvalues --    0.13002   0.15125   0.19414   0.21497   0.53335
 Alpha virt. eigenvalues --    0.55051   0.56626   0.57830   0.66691   0.68947
 Alpha virt. eigenvalues --    0.78209   0.79159   0.79471   0.80552   0.82746

 Mulliken charges:
               1
     1  O   -0.515359
     2  H    0.260438
     3  H    0.254597
     4  O   -0.515705
     5  H    0.257692
     6  H    0.258336
 Sum of Mulliken charges =  -0.00000

 Dipole moment (field-independent basis, Debye):
    X=              0.6808    Y=             -2.9444    Z=              0.0000  Tot=              3.0221
 Quadrupole moment (field-independent basis, Debye-Ang):
   XX=             -9.4470   YY=             -7.1734   ZZ=            -14.7157
   XY=              6.9478   XZ=              0.0000   YZ=              0.0000

 Normal termination of Gaussian 16 at Sat Aug 27 23:28:20 2022.
