 Gaussian 16, Revision A.03,
 Gaussian 16:  ES64L-G16RevA.03 25-Dec-2016

 ------------------
 #p CCSD(T)/cc-pVTZ
 ------------------

 -----------
 H2O_H2O_973
 -----------
 Symbolic Z-matrix:
 Charge =  0 Multiplicity = 1

                         Standard orientation:
 ---------------------------------------------------------------------
 Center     Atomic      Atomic             Coordinates (Angstroms)
 Number     Number       Type             X           Y           Z
 ---------------------------------------------------------------------
      1          8           0       -0.016773    1.482413    0.000000
      2          1           0       -0.012150    0.499823    0.000000
      3          1           0        0.911210    1.805450    0.000000
      4          8           0       -0.016773   -1.319083    0.000000
      5          1           0       -0.996958   -1.387961    0.000000
      6          1           0        0.366265   -2.223952    0.000000
 ---------------------------------------------------------------------

 SCF Done:  E(RHF) =  -152.111785487     A.U. after   10 cycles
 E2 =    -0.5288086742D+00 EUMP2 =    -0.15264059416088D+03
 CCSD(T)
 CCSD(T)= -0.15266743605D+03

 The electronic state is 1-A'.
 Alpha  occ. eigenvalues --  -20.58793 -20.51888  -1.36408  -1.29587  -0.74042
 Alpha  occ. eigenvalues --   -0.67896  -0.59936  -0.53402  -0.52544  -0.46702
 Alpha virt. eigenvalues --    0.11966   0.18197   0.18964   0.32197   0.48858
 Alpha virt. eigenvalues --    0.54486   0.56142   0.63814   0.68355   0.72493
 Alpha virt. eigenvalues --    0.74148   0.76516   0.81267   0.82713   0.84225

 Mulliken charges:
               1
     1  O   -0.573081
     2  H    0.290099
     3  H    0.249652
     4  O   -0.467279
     5  H    0.260916
     6  H    0.239694
 Sum of Mulliken charges =  -0.00000

 Dipole moment (field-independent basis, Debye):
    X=              0.5667    Y=             -3.4752    Z=              0.0000  Tot=              3.5211
 Quadrupole moment (field-independent basis, Debye-Ang):
   XX=             -9.5296   YY=             -8.8790   ZZ=            -14.7144
   XY=              3.8668   XZ=              0.0000   YZ=              0.0000

 Normal termination of Gaussian 16 at Fri Aug 26 21:40:10 2022.
