 Gaussian 16, Revision A.03,
 Gaussian 16:  ES64L-G16RevA.03 25-Dec-2016

 ------------------
 #p CCSD(T)/cc-pVTZ
 ------------------

 -----------
 H2O_H2O_214
 -----------
 Symbolic Z-matrix:
 Charge =  0 Multiplicity = 1

                         Standard orientation:
 ---------------------------------------------------------------------
 Center     Atomic      Atomic             Coordinates (Angstroms)
 Number     Number       Type             X           Y           Z
 ---------------------------------------------------------------------
      1          8           0        0.048743    1.192424   -0.000000
      2          1           0        0.045327    0.209828   -0.000000
      3          1           0       -0.879636    1.514320    0.000000
      4          8           0        0.048743   -1.012209   -0.000000
      5          1           0        0.826210   -1.613085   -0.000000
      6          1           0       -0.771796   -1.552784    0.000000
 ---------------------------------------------------------------------

 SCF Done:  E(RHF) =  -152.071363426     A.U. after   11 cycles
 E2 =    -0.5343220328D+00 EUMP2 =    -0.15260568545899D+03
 CCSD(T)
 CCSD(T)= -0.15263153644D+03

 The electronic state is 1-A'.
 Alpha  occ. eigenvalues --  -20.61407 -20.45877  -1.41541  -1.25432  -0.77001
 Alpha  occ. eigenvalues --   -0.75889  -0.57313  -0.56087  -0.46271  -0.42111
 Alpha virt. eigenvalues --    0.10678   0.16844   0.20720   0.33299   0.47093
 Alpha virt. eigenvalues --    0.52563   0.62894   0.64603   0.70759   0.71563
 Alpha virt. eigenvalues --    0.78708   0.80227   0.80506   0.82050   0.84843

 Mulliken charges:
               1
     1  O   -0.650071
     2  H    0.303115
     3  H    0.211212
     4  O   -0.363383
     5  H    0.254327
     6  H    0.244800
 Sum of Mulliken charges =   0.00000

 Dipole moment (field-independent basis, Debye):
    X=             -1.5036    Y=             -4.7909    Z=             -0.0000  Tot=              5.0213
 Quadrupole moment (field-independent basis, Debye-Ang):
   XX=             -9.1417   YY=             -9.9467   ZZ=            -14.6069
   XY=             -2.7970   XZ=             -0.0000   YZ=             -0.0000

 Normal termination of Gaussian 16 at Fri Aug 26 16:39:25 2022.
