 Gaussian 16, Revision A.03,
 Gaussian 16:  ES64L-G16RevA.03 25-Dec-2016

 ------------------
 #p CCSD(T)/cc-pVTZ
 ------------------

 ------------
 H2O_H2O_2769
 ------------
 Symbolic Z-matrix:
 Charge =  0 Multiplicity = 1

                         Standard orientation:
 ---------------------------------------------------------------------
 Center     Atomic      Atomic             Coordinates (Angstroms)
 Number     Number       Type             X           Y           Z
 ---------------------------------------------------------------------
      1          8           0        0.030203    2.207046   -0.000000
      2          1           0        0.027690    1.224448   -0.000000
      3          1           0       -0.898472    2.528089    0.000000
      4          8           0        0.030203   -2.031448   -0.000000
      5          1           0        0.959848   -2.349674   -0.000000
      6          1           0       -0.572315   -2.807642    0.000000
 ---------------------------------------------------------------------

 SCF Done:  E(RHF) =  -152.110394301     A.U. after   10 cycles
 E2 =    -0.5259807831D+00 EUMP2 =    -0.15263637508444D+03
 CCSD(T)
 CCSD(T)= -0.15266350104D+03

 The electronic state is 1-A'.
 Alpha  occ. eigenvalues --  -20.56762 -20.54348  -1.34036  -1.31673  -0.71436
 Alpha  occ. eigenvalues --   -0.69075  -0.57604  -0.55166  -0.51169  -0.48815
 Alpha virt. eigenvalues --    0.12396   0.16177   0.19351   0.23387   0.53259
 Alpha virt. eigenvalues --    0.55589   0.56405   0.58641   0.68935   0.69546
 Alpha virt. eigenvalues --    0.77674   0.79065   0.80016   0.80041   0.83388

 Mulliken charges:
               1
     1  O   -0.521972
     2  H    0.265029
     3  H    0.252852
     4  O   -0.513794
     5  H    0.259963
     6  H    0.257922
 Sum of Mulliken charges =  -0.00000

 Dipole moment (field-independent basis, Debye):
    X=             -1.0298    Y=             -3.1851    Z=              0.0000  Tot=              3.3475
 Quadrupole moment (field-independent basis, Debye-Ang):
   XX=             -9.2294   YY=             -7.4874   ZZ=            -14.7214
   XY=             -5.1729   XZ=              0.0000   YZ=              0.0000

 CCSD(T)=-152.663501\RMSD=6.732e-09\PG=CS [SG(H4O2)]\\@
 Normal termination of Gaussian 16 at Fri Aug 26 17:11:24 2022.
