 Gaussian 16, Revision A.03,
 Gaussian 16:  ES64L-G16RevA.03 25-Dec-2016

 ------------------
 #p CCSD(T)/cc-pVTZ
 ------------------

 ------------
 H2O_H2O_2130
 ------------
 Symbolic Z-matrix:
 Charge =  0 Multiplicity = 1

                         Standard orientation:
 ---------------------------------------------------------------------
 Center     Atomic      Atomic             Coordinates (Angstroms)
 Number     Number       Type             X           Y           Z
 ---------------------------------------------------------------------
      1          8           0        0.079860    1.948749    0.000000
      2          1           0        0.079266    0.966148    0.000000
      3          1           0       -0.849440    2.267978    0.000000
      4          8           0        0.079860   -1.789705   -0.000000
      5          1           0        0.395145   -2.720351   -0.000000
      6          1           0       -0.902735   -1.786131   -0.000000
 ---------------------------------------------------------------------

 SCF Done:  E(RHF) =  -152.110330018     A.U. after   10 cycles
 E2 =    -0.5264621866D+00 EUMP2 =    -0.15263679220445D+03
 CCSD(T)
 CCSD(T)= -0.15266389647D+03

 The electronic state is 1-A'.
 Alpha  occ. eigenvalues --  -20.57218 -20.54319  -1.34493  -1.31647  -0.71936
 Alpha  occ. eigenvalues --   -0.69019  -0.58060  -0.55094  -0.51610  -0.48776
 Alpha virt. eigenvalues --    0.11836   0.16364   0.19611   0.25211   0.52255
 Alpha virt. eigenvalues --    0.55776   0.56302   0.58025   0.68779   0.72543
 Alpha virt. eigenvalues --    0.76581   0.78902   0.80199   0.82711   0.83378

 Mulliken charges:
               1
     1  O   -0.519710
     2  H    0.266487
     3  H    0.245879
     4  O   -0.504064
     5  H    0.259494
     6  H    0.251913
 Sum of Mulliken charges =  -0.00000

 Dipole moment (field-independent basis, Debye):
    X=             -2.7003    Y=             -2.9597    Z=             -0.0000  Tot=              4.0064
 Quadrupole moment (field-independent basis, Debye-Ang):
   XX=            -10.1186   YY=             -8.3096   ZZ=            -14.7207
   XY=             -3.0157   XZ=             -0.0000   YZ=              0.0000

 Normal termination of Gaussian 16 at Sun Aug 28 04:35:30 2022.
