 Gaussian 16, Revision A.03,
 Gaussian 16:  ES64L-G16RevA.03 25-Dec-2016

 ------------------
 #p CCSD(T)/cc-pVTZ
 ------------------

 ------------
 H2O_H2O_1976
 ------------
 Symbolic Z-matrix:
 Charge =  0 Multiplicity = 1

                         Standard orientation:
 ---------------------------------------------------------------------
 Center     Atomic      Atomic             Coordinates (Angstroms)
 Number     Number       Type             X           Y           Z
 ---------------------------------------------------------------------
      1          8           0        0.090686   -1.877869    0.000000
      2          1           0        0.090580   -0.895267    0.000000
      3          1           0       -0.838772   -2.196635    0.000000
      4          8           0        0.090686    1.739164    0.000000
      5          1           0        0.154846    2.719668    0.000000
      6          1           0       -0.857631    1.481868    0.000000
 ---------------------------------------------------------------------

 SCF Done:  E(RHF) =  -152.109241388     A.U. after   10 cycles
 E2 =    -0.5267408282D+00 EUMP2 =    -0.15263598221585D+03
 CCSD(T)
 CCSD(T)= -0.15266310633D+03

 The electronic state is 1-A'.
 Alpha  occ. eigenvalues --  -20.57333 -20.54693  -1.34630  -1.32009  -0.72160
 Alpha  occ. eigenvalues --   -0.69327  -0.58138  -0.55433  -0.51724  -0.49122
 Alpha virt. eigenvalues --    0.11518   0.16166   0.20112   0.25658   0.51887
 Alpha virt. eigenvalues --    0.55515   0.57055   0.57420   0.68203   0.73799
 Alpha virt. eigenvalues --    0.75979   0.78595   0.80000   0.82538   0.82915

 Mulliken charges:
               1
     1  O   -0.516322
     2  H    0.266357
     3  H    0.244213
     4  O   -0.498505
     5  H    0.257933
     6  H    0.246324
 Sum of Mulliken charges =  -0.00000

 Dipole moment (field-independent basis, Debye):
    X=             -3.0559    Y=              2.5965    Z=              0.0000  Tot=              4.0101
 Quadrupole moment (field-independent basis, Debye-Ang):
   XX=            -10.7368   YY=             -8.9567   ZZ=            -14.7154
   XY=              2.3195   XZ=              0.0000   YZ=              0.0000

 Normal termination of Gaussian 16 at Sun Aug 28 03:16:57 2022.
