 Gaussian 16, Revision A.03,
 Gaussian 16:  ES64L-G16RevA.03 25-Dec-2016

 ------------------
 #p CCSD(T)/cc-pVTZ
 ------------------

 ------------
 H2O_H2O_3919
 ------------
 Symbolic Z-matrix:
 Charge =  0 Multiplicity = 1

                         Standard orientation:
 ---------------------------------------------------------------------
 Center     Atomic      Atomic             Coordinates (Angstroms)
 Number     Number       Type             X           Y           Z
 ---------------------------------------------------------------------
      1          8           0        0.030163    2.665767   -0.000000
      2          1           0        0.028097    1.683168   -0.000000
      3          1           0       -0.898658    2.986387   -0.000000
      4          8           0        0.030163   -2.490142    0.000000
      5          1           0        0.959952   -2.807945    0.000000
      6          1           0       -0.572002   -3.266611    0.000000
 ---------------------------------------------------------------------

 SCF Done:  E(RHF) =  -152.108865254     A.U. after   10 cycles
 E2 =    -0.5258146433D+00 EUMP2 =    -0.15263467989771D+03
 CCSD(T)
 CCSD(T)= -0.15266186217D+03

 The electronic state is 1-A'.
 Alpha  occ. eigenvalues --  -20.56307 -20.54824  -1.33605  -1.32135  -0.71008
 Alpha  occ. eigenvalues --   -0.69538  -0.57115  -0.55615  -0.50727  -0.49263
 Alpha virt. eigenvalues --    0.12990   0.15253   0.19548   0.21473   0.53429
 Alpha virt. eigenvalues --    0.55028   0.56593   0.57852   0.66689   0.69118
 Alpha virt. eigenvalues --    0.78167   0.79107   0.79584   0.80087   0.82881

 Mulliken charges:
               1
     1  O   -0.515899
     2  H    0.261494
     3  H    0.253868
     4  O   -0.516025
     5  H    0.258540
     6  H    0.258022
 Sum of Mulliken charges =   0.00000

 Dipole moment (field-independent basis, Debye):
    X=             -1.0334    Y=             -3.1028    Z=              0.0000  Tot=              3.2703
 Quadrupole moment (field-independent basis, Debye-Ang):
   XX=             -9.2298   YY=             -6.8235   ZZ=            -14.7164
   XY=             -6.1681   XZ=              0.0000   YZ=             -0.0000

 Normal termination of Gaussian 16 at Sat Aug 27 00:28:09 2022.
