 Gaussian 16, Revision A.03,
 Gaussian 16:  ES64L-G16RevA.03 25-Dec-2016

 ------------------
 #p CCSD(T)/cc-pVTZ
 ------------------

 ------------
 H2O_H2O_3553
 ------------
 Symbolic Z-matrix:
 Charge =  0 Multiplicity = 1

                         Standard orientation:
 ---------------------------------------------------------------------
 Center     Atomic      Atomic             Coordinates (Angstroms)
 Number     Number       Type             X           Y           Z
 ---------------------------------------------------------------------
      1          8           0        0.085599   -2.512018    0.000000
      2          1           0        0.085343   -1.529417    0.000000
      3          1           0       -0.843811   -2.830927    0.000000
      4          8           0        0.085599    2.362418    0.000000
      5          1           0        0.277045    3.326189    0.000000
      6          1           0       -0.888168    2.230956    0.000000
 ---------------------------------------------------------------------

 SCF Done:  E(RHF) =  -152.108207458     A.U. after   10 cycles
 E2 =    -0.5259285284D+00 EUMP2 =    -0.15263413598677D+03
 CCSD(T)
 CCSD(T)= -0.15266132695D+03

 The electronic state is 1-A'.
 Alpha  occ. eigenvalues --  -20.56436 -20.55049  -1.33733  -1.32355  -0.71151
 Alpha  occ. eigenvalues --   -0.69744  -0.57210  -0.55814  -0.50846  -0.49472
 Alpha virt. eigenvalues --    0.12168   0.15309   0.19190   0.22193   0.53349
 Alpha virt. eigenvalues --    0.55016   0.56449   0.58031   0.66916   0.69040
 Alpha virt. eigenvalues --    0.78059   0.78690   0.79390   0.81073   0.82613

 Mulliken charges:
               1
     1  O   -0.511460
     2  H    0.259910
     3  H    0.250794
     4  O   -0.511601
     5  H    0.259670
     6  H    0.252687
 Sum of Mulliken charges =  -0.00000

 Dipole moment (field-independent basis, Debye):
    X=             -2.9249    Y=              2.6560    Z=              0.0000  Tot=              3.9509
 Quadrupole moment (field-independent basis, Debye-Ang):
   XX=            -10.4025   YY=             -8.3153   ZZ=            -14.7138
   XY=              2.8415   XZ=              0.0000   YZ=              0.0000

 Normal termination of Gaussian 16 at Fri Aug 26 22:21:15 2022.
