 Gaussian 16, Revision A.03,
 Gaussian 16:  ES64L-G16RevA.03 25-Dec-2016

 ------------------
 #p CCSD(T)/cc-pVTZ
 ------------------

 ------------
 H2O_H2O_1267
 ------------
 Symbolic Z-matrix:
 Charge =  0 Multiplicity = 1

                         Standard orientation:
 ---------------------------------------------------------------------
 Center     Atomic      Atomic             Coordinates (Angstroms)
 Number     Number       Type             X           Y           Z
 ---------------------------------------------------------------------
      1          8           0        0.037539    1.610520    0.000000
      2          1           0        0.034441    0.627923    0.000000
      3          1           0       -0.890945    1.932115    0.000000
      4          8           0        0.037539   -1.431633   -0.000000
      5          1           0        0.917433   -1.869003   -0.000000
      6          1           0       -0.661549   -2.122127   -0.000000
 ---------------------------------------------------------------------

 SCF Done:  E(RHF) =  -152.114264855     A.U. after   10 cycles
 E2 =    -0.5276759210D+00 EUMP2 =    -0.15264194077631D+03
 CCSD(T)
 CCSD(T)= -0.15266888281D+03

 The electronic state is 1-A'.
 Alpha  occ. eigenvalues --  -20.58314 -20.52382  -1.35666  -1.29917  -0.72972
 Alpha  occ. eigenvalues --   -0.67899  -0.59463  -0.53137  -0.52776  -0.47060
 Alpha virt. eigenvalues --    0.12018   0.18038   0.18795   0.30481   0.49420
 Alpha virt. eigenvalues --    0.54593   0.55899   0.60771   0.68690   0.71984
 Alpha virt. eigenvalues --    0.73436   0.77115   0.82022   0.82757   0.84869

 Mulliken charges:
               1
     1  O   -0.553941
     2  H    0.285640
     3  H    0.245882
     4  O   -0.501930
     5  H    0.266167
     6  H    0.258182
 Sum of Mulliken charges =  -0.00000

 Dipole moment (field-independent basis, Debye):
    X=             -1.2526    Y=             -3.6126    Z=             -0.0000  Tot=              3.8236
 Quadrupole moment (field-independent basis, Debye-Ang):
   XX=             -9.1579   YY=             -8.4969   ZZ=            -14.7341
   XY=             -3.7329   XZ=             -0.0000   YZ=              0.0000

 Normal termination of Gaussian 16 at Fri Aug 26 23:29:43 2022.
