 Gaussian 16, Revision A.03,
 Gaussian 16:  ES64L-G16RevA.03 25-Dec-2016

 ------------------
 #p CCSD(T)/cc-pVTZ
 ------------------

 ------------
 H2O_H2O_2200
 ------------
 Symbolic Z-matrix:
 Charge =  0 Multiplicity = 1

                         Standard orientation:
 ---------------------------------------------------------------------
 Center     Atomic      Atomic             Coordinates (Angstroms)
 Number     Number       Type             X           Y           Z
 ---------------------------------------------------------------------
      1          8           0        0.092949   -1.964402    0.000000
      2          1           0        0.092949   -0.981800    0.000000
      3          1           0       -0.836544   -2.283068    0.000000
      4          8           0        0.092949    1.831615    0.000000
      5          1           0        0.092949    2.814216    0.000000
      6          1           0       -0.836544    1.512948    0.000000
 ---------------------------------------------------------------------

 SCF Done:  E(RHF) =  -152.108653718     A.U. after   10 cycles
 E2 =    -0.5265371841D+00 EUMP2 =    -0.15263519090164D+03
 CCSD(T)
 CCSD(T)= -0.15266233844D+03

 The electronic state is 1-A'.
 Alpha  occ. eigenvalues --  -20.57135 -20.54939  -1.34429  -1.32243  -0.71935
 Alpha  occ. eigenvalues --   -0.69573  -0.57911  -0.55676  -0.51526  -0.49354
 Alpha virt. eigenvalues --    0.11423   0.15988   0.20084   0.24914   0.52769
 Alpha virt. eigenvalues --    0.55767   0.56750   0.57452   0.68115   0.72742
 Alpha virt. eigenvalues --    0.76676   0.79212   0.79696   0.80347   0.83123

 Mulliken charges:
               1
     1  O   -0.513480
     2  H    0.264161
     3  H    0.245645
     4  O   -0.500977
     5  H    0.258855
     6  H    0.245796
 Sum of Mulliken charges =  -0.00000

 Dipole moment (field-independent basis, Debye):
    X=             -3.1407    Y=              2.4516    Z=              0.0000  Tot=              3.9842
 Quadrupole moment (field-independent basis, Debye-Ang):
   XX=            -10.8763   YY=             -9.1642   ZZ=            -14.7134
   XY=              2.1393   XZ=              0.0000   YZ=              0.0000

 Normal termination of Gaussian 16 at Sun Aug 28 05:23:23 2022.
