 Gaussian 16, Revision A.03,
 Gaussian 16:  ES64L-G16RevA.03 25-Dec-2016

 ------------------
 #p CCSD(T)/cc-pVTZ
 ------------------

 ------------
 H2O_H2O_1443
 ------------
 Symbolic Z-matrix:
 Charge =  0 Multiplicity = 1

                         Standard orientation:
 ---------------------------------------------------------------------
 Center     Atomic      Atomic             Coordinates (Angstroms)
 Number     Number       Type             X           Y           Z
 ---------------------------------------------------------------------
      1          8           0        0.033875    1.679548    0.000000
      2          1           0        0.030719    0.696952    0.000000
      3          1           0       -0.894589    2.001198    0.000000
      4          8           0        0.033875   -1.502089    0.000000
      5          1           0        0.940468   -1.881029    0.000000
      6          1           0       -0.618600   -2.236788    0.000000
 ---------------------------------------------------------------------

 SCF Done:  E(RHF) =  -152.114055054     A.U. after   10 cycles
 E2 =    -0.5272199077D+00 EUMP2 =    -0.15264127496202D+03
 CCSD(T)
 CCSD(T)= -0.15266826061D+03

 The electronic state is 1-A'.
 Alpha  occ. eigenvalues --  -20.58021 -20.52831  -1.35324  -1.30295  -0.72674
 Alpha  occ. eigenvalues --   -0.67997  -0.59161  -0.53613  -0.52450  -0.47448
 Alpha virt. eigenvalues --    0.12104   0.17792   0.18892   0.29382   0.50137
 Alpha virt. eigenvalues --    0.54373   0.55948   0.60291   0.68800   0.72368
 Alpha virt. eigenvalues --    0.74070   0.77018   0.81628   0.82953   0.84737

 Mulliken charges:
               1
     1  O   -0.546157
     2  H    0.279063
     3  H    0.248243
     4  O   -0.504868
     5  H    0.265258
     6  H    0.258461
 Sum of Mulliken charges =  -0.00000

 Dipole moment (field-independent basis, Debye):
    X=             -1.1368    Y=             -3.5044    Z=             -0.0000  Tot=              3.6841
 Quadrupole moment (field-independent basis, Debye-Ang):
   XX=             -9.1863   YY=             -8.3507   ZZ=            -14.7350
   XY=             -3.9412   XZ=             -0.0000   YZ=             -0.0000

 Normal termination of Gaussian 16 at Sat Aug 27 00:37:01 2022.
