 Gaussian 16, Revision A.03,
 Gaussian 16:  ES64L-G16RevA.03 25-Dec-2016

 ------------------
 #p CCSD(T)/cc-pVTZ
 ------------------

 ------------
 H2O_H2O_1627
 ------------
 Symbolic Z-matrix:
 Charge =  0 Multiplicity = 1

                         Standard orientation:
 ---------------------------------------------------------------------
 Center     Atomic      Atomic             Coordinates (Angstroms)
 Number     Number       Type             X           Y           Z
 ---------------------------------------------------------------------
      1          8           0        0.088236   -1.741306    0.000000
      2          1           0        0.087996   -0.758704    0.000000
      3          1           0       -0.841179   -2.060199    0.000000
      4          8           0        0.088236    1.596998    0.000000
      5          1           0        0.216253    2.571224    0.000000
      6          1           0       -0.874852    1.402145    0.000000
 ---------------------------------------------------------------------

 SCF Done:  E(RHF) =  -152.109970657     A.U. after   10 cycles
 E2 =    -0.5272513871D+00 EUMP2 =    -0.15263722204436D+03
 CCSD(T)
 CCSD(T)= -0.15266430692D+03

 The electronic state is 1-A'.
 Alpha  occ. eigenvalues --  -20.57713 -20.54261  -1.35039  -1.31612  -0.72641
 Alpha  occ. eigenvalues --   -0.68925  -0.58587  -0.54996  -0.52118  -0.48723
 Alpha virt. eigenvalues --    0.11583   0.16397   0.20131   0.27286   0.50385
 Alpha virt. eigenvalues --    0.55001   0.57576   0.57723   0.68376   0.74549
 Alpha virt. eigenvalues --    0.74612   0.77747   0.80539   0.82431   0.83487

 Mulliken charges:
               1
     1  O   -0.522266
     2  H    0.271383
     3  H    0.241283
     4  O   -0.490236
     5  H    0.253556
     6  H    0.246280
 Sum of Mulliken charges =  -0.00000

 Dipole moment (field-independent basis, Debye):
    X=             -2.9564    Y=              2.7789    Z=              0.0000  Tot=              4.0574
 Quadrupole moment (field-independent basis, Debye-Ang):
   XX=            -10.5953   YY=             -8.8386   ZZ=            -14.7166
   XY=              2.4662   XZ=              0.0000   YZ=              0.0000

 Normal termination of Gaussian 16 at Sun Aug 28 00:01:18 2022.
