 Gaussian 16, Revision A.03,
 Gaussian 16:  ES64L-G16RevA.03 25-Dec-2016

 ------------------
 #p CCSD(T)/cc-pVTZ
 ------------------

 ------------
 H2O_H2O_1531
 ------------
 Symbolic Z-matrix:
 Charge =  0 Multiplicity = 1

                         Standard orientation:
 ---------------------------------------------------------------------
 Center     Atomic      Atomic             Coordinates (Angstroms)
 Number     Number       Type             X           Y           Z
 ---------------------------------------------------------------------
      1          8           0        0.076778    1.711666    0.000000
      2          1           0        0.075935    0.729065    0.000000
      3          1           0       -0.852442    2.031130    0.000000
      4          8           0        0.076778   -1.548495   -0.000000
      5          1           0        0.452025   -2.456622   -0.000000
      6          1           0       -0.903962   -1.608945   -0.000000
 ---------------------------------------------------------------------

 SCF Done:  E(RHF) =  -152.111810611     A.U. after   10 cycles
 E2 =    -0.5272657564D+00 EUMP2 =    -0.15263907636716D+03
 CCSD(T)
 CCSD(T)= -0.15266611072D+03

 The electronic state is 1-A'.
 Alpha  occ. eigenvalues --  -20.57876 -20.53567  -1.35188  -1.30965  -0.72666
 Alpha  occ. eigenvalues --   -0.68438  -0.58853  -0.54322  -0.52288  -0.48091
 Alpha virt. eigenvalues --    0.11787   0.16813   0.19616   0.28224   0.49750
 Alpha virt. eigenvalues --    0.55177   0.57149   0.58437   0.69460   0.74112
 Alpha virt. eigenvalues --    0.74344   0.77104   0.81083   0.82750   0.83987

 Mulliken charges:
               1
     1  O   -0.530949
     2  H    0.275260
     3  H    0.241436
     4  O   -0.494212
     5  H    0.256321
     6  H    0.252144
 Sum of Mulliken charges =  -0.00000

 Dipole moment (field-independent basis, Debye):
    X=             -2.5706    Y=             -3.1806    Z=             -0.0000  Tot=              4.0895
 Quadrupole moment (field-independent basis, Debye-Ang):
   XX=             -9.9828   YY=             -8.4802   ZZ=            -14.7251
   XY=             -3.0228   XZ=             -0.0000   YZ=              0.0000

 CCSD(T)=-152.6661107\RMSD=7.002e-09\PG=CS [SG(H4O2)]\\@
 Normal termination of Gaussian 16 at Sat Aug 27 01:10:20 2022.
