 Gaussian 16, Revision A.03,
 Gaussian 16:  ES64L-G16RevA.03 25-Dec-2016

 ------------------
 #p CCSD(T)/cc-pVTZ
 ------------------

 ------------
 H2O_H2O_3771
 ------------
 Symbolic Z-matrix:
 Charge =  0 Multiplicity = 1

                         Standard orientation:
 ---------------------------------------------------------------------
 Center     Atomic      Atomic             Coordinates (Angstroms)
 Number     Number       Type             X           Y           Z
 ---------------------------------------------------------------------
      1          8           0       -0.023186    2.603098    0.000000
      2          1           0       -0.020836    1.620500    0.000000
      3          1           0        0.905542    2.923988    0.000000
      4          8           0       -0.023186   -2.432699    0.000000
      5          1           0       -0.986447   -2.626700    0.000000
      6          1           0        0.472723   -3.280980    0.000000
 ---------------------------------------------------------------------

 SCF Done:  E(RHF) =  -152.108966031     A.U. after   10 cycles
 E2 =    -0.5258217234D+00 EUMP2 =    -0.15263478775404D+03
 CCSD(T)
 CCSD(T)= -0.15266196619D+03

 The electronic state is 1-A'.
 Alpha  occ. eigenvalues --  -20.56345 -20.54827  -1.33642  -1.32139  -0.71046
 Alpha  occ. eigenvalues --   -0.69544  -0.57154  -0.55621  -0.50765  -0.49268
 Alpha virt. eigenvalues --    0.12819   0.15338   0.19425   0.21721   0.53317
 Alpha virt. eigenvalues --    0.55155   0.56579   0.57886   0.66744   0.69168
 Alpha virt. eigenvalues --    0.78132   0.78904   0.79577   0.80339   0.82886

 Mulliken charges:
               1
     1  O   -0.516382
     2  H    0.261392
     3  H    0.254291
     4  O   -0.516130
     5  H    0.258319
     6  H    0.258509
 Sum of Mulliken charges =  -0.00000

 Dipole moment (field-independent basis, Debye):
    X=              0.7949    Y=             -3.0162    Z=              0.0000  Tot=              3.1192
 Quadrupole moment (field-independent basis, Debye-Ang):
   XX=             -9.3614   YY=             -7.1597   ZZ=            -14.7167
   XY=              6.4229   XZ=              0.0000   YZ=              0.0000

 Normal termination of Gaussian 16 at Fri Aug 26 23:34:57 2022.
