 Gaussian 16, Revision A.03,
 Gaussian 16:  ES64L-G16RevA.03 25-Dec-2016

 ------------------
 #p CCSD(T)/cc-pVTZ
 ------------------

 ------------
 H2O_H2O_2807
 ------------
 Symbolic Z-matrix:
 Charge =  0 Multiplicity = 1

                         Standard orientation:
 ---------------------------------------------------------------------
 Center     Atomic      Atomic             Coordinates (Angstroms)
 Number     Number       Type             X           Y           Z
 ---------------------------------------------------------------------
      1          8           0        0.073539    2.222278    0.000000
      2          1           0        0.072769    1.239677    0.000000
      3          1           0       -0.855703    2.541673   -0.000000
      4          8           0        0.073539   -2.055343    0.000000
      5          1           0        0.507442   -2.936952    0.000000
      6          1           0       -0.901139   -2.179879   -0.000000
 ---------------------------------------------------------------------

 SCF Done:  E(RHF) =  -152.109509168     A.U. after   10 cycles
 E2 =    -0.5260532391D+00 EUMP2 =    -0.15263556240706D+03
 CCSD(T)
 CCSD(T)= -0.15266270571D+03

 The electronic state is 1-A'.
 Alpha  occ. eigenvalues --  -20.56755 -20.54562  -1.34034  -1.31878  -0.71448
 Alpha  occ. eigenvalues --   -0.69261  -0.57559  -0.55350  -0.51157  -0.49007
 Alpha virt. eigenvalues --    0.12135   0.15951   0.19439   0.23103   0.53645
 Alpha virt. eigenvalues --    0.55320   0.56259   0.58597   0.68637   0.69443
 Alpha virt. eigenvalues --    0.77700   0.79001   0.79842   0.80256   0.83089

 Mulliken charges:
               1
     1  O   -0.516730
     2  H    0.264033
     3  H    0.249287
     4  O   -0.510596
     5  H    0.259888
     6  H    0.254118
 Sum of Mulliken charges =  -0.00000

 Dipole moment (field-independent basis, Debye):
    X=             -2.5028    Y=             -3.0215    Z=             -0.0000  Tot=              3.9235
 Quadrupole moment (field-independent basis, Debye-Ang):
   XX=             -9.8186   YY=             -7.7775   ZZ=            -14.7182
   XY=             -3.4942   XZ=              0.0000   YZ=             -0.0000

 Normal termination of Gaussian 16 at Fri Aug 26 17:27:23 2022.
