 Gaussian 16, Revision A.03,
 Gaussian 16:  ES64L-G16RevA.03 25-Dec-2016

 ------------------
 #p CCSD(T)/cc-pVTZ
 ------------------

 ------------
 H2O_H2O_1756
 ------------
 Symbolic Z-matrix:
 Charge =  0 Multiplicity = 1

                         Standard orientation:
 ---------------------------------------------------------------------
 Center     Atomic      Atomic             Coordinates (Angstroms)
 Number     Number       Type             X           Y           Z
 ---------------------------------------------------------------------
      1          8           0        0.076774    1.801417    0.000000
      2          1           0        0.075975    0.818816    0.000000
      3          1           0       -0.852459    2.120839    0.000000
      4          8           0        0.076774   -1.638238   -0.000000
      5          1           0        0.452062   -2.546349   -0.000000
      6          1           0       -0.903964   -1.698733   -0.000000
 ---------------------------------------------------------------------

 SCF Done:  E(RHF) =  -152.111418479     A.U. after   10 cycles
 E2 =    -0.5268630392D+00 EUMP2 =    -0.15263828151850D+03
 CCSD(T)
 CCSD(T)= -0.15266534526D+03

 The electronic state is 1-A'.
 Alpha  occ. eigenvalues --  -20.57596 -20.53868  -1.34879  -1.31230  -0.72333
 Alpha  occ. eigenvalues --   -0.68639  -0.58520  -0.54638  -0.51992  -0.48362
 Alpha virt. eigenvalues --    0.11837   0.16690   0.19579   0.26988   0.50616
 Alpha virt. eigenvalues --    0.55427   0.56649   0.58282   0.69202   0.73615
 Alpha virt. eigenvalues --    0.75290   0.77796   0.80725   0.83061   0.83781

 Mulliken charges:
               1
     1  O   -0.525818
     2  H    0.270721
     3  H    0.243555
     4  O   -0.500265
     5  H    0.259175
     6  H    0.252631
 Sum of Mulliken charges =  -0.00000

 Dipole moment (field-independent basis, Debye):
    X=             -2.5823    Y=             -3.1161    Z=             -0.0000  Tot=              4.0470
 Quadrupole moment (field-independent basis, Debye-Ang):
   XX=             -9.9782   YY=             -8.3644   ZZ=            -14.7249
   XY=             -3.0782   XZ=             -0.0000   YZ=             -0.0000

 Normal termination of Gaussian 16 at Sun Aug 28 01:20:42 2022.
