 Gaussian 16, Revision A.03,
 Gaussian 16:  ES64L-G16RevA.03 25-Dec-2016

 ------------------
 #p CCSD(T)/cc-pVTZ
 ------------------

 ------------
 H2O_H2O_4465
 ------------
 Symbolic Z-matrix:
 Charge =  0 Multiplicity = 1

                         Standard orientation:
 ---------------------------------------------------------------------
 Center     Atomic      Atomic             Coordinates (Angstroms)
 Number     Number       Type             X           Y           Z
 ---------------------------------------------------------------------
      1          8           0        0.044827    2.887757    0.000000
      2          1           0        0.043367    1.905157    0.000000
      3          1           0       -0.884192    3.207804    0.000000
      4          8           0        0.044827   -2.707326   -0.000000
      5          1           0        0.861018   -3.254443   -0.000000
      6          1           0       -0.737418   -3.301969   -0.000000
 ---------------------------------------------------------------------

 SCF Done:  E(RHF) =  -152.108460348     A.U. after   10 cycles
 E2 =    -0.5258067821D+00 EUMP2 =    -0.15263426712988D+03
 CCSD(T)
 CCSD(T)= -0.15266146312D+03

 The electronic state is 1-A'.
 Alpha  occ. eigenvalues --  -20.56191 -20.54931  -1.33492  -1.32239  -0.70896
 Alpha  occ. eigenvalues --   -0.69640  -0.56987  -0.55711  -0.50611  -0.49362
 Alpha virt. eigenvalues --    0.13352   0.14956   0.19700   0.21062   0.53655
 Alpha virt. eigenvalues --    0.54855   0.56661   0.57803   0.66814   0.68787
 Alpha virt. eigenvalues --    0.78276   0.79492   0.79679   0.80067   0.82708

 Mulliken charges:
               1
     1  O   -0.514101
     2  H    0.260572
     3  H    0.253383
     4  O   -0.514812
     5  H    0.258276
     6  H    0.256681
 Sum of Mulliken charges =   0.00000

 Dipole moment (field-independent basis, Debye):
    X=             -1.5373    Y=             -3.1684    Z=             -0.0000  Tot=              3.5216
 Quadrupole moment (field-independent basis, Debye-Ang):
   XX=             -9.1569   YY=             -6.2380   ZZ=            -14.7150
   XY=             -5.7644   XZ=             -0.0000   YZ=              0.0000

 Normal termination of Gaussian 16 at Sun Aug 28 03:10:05 2022.
