 Gaussian 16, Revision A.03,
 Gaussian 16:  ES64L-G16RevA.03 25-Dec-2016

 ------------------
 #p CCSD(T)/cc-pVTZ
 ------------------

 -----------
 H2O_H2O_816
 -----------
 Symbolic Z-matrix:
 Charge =  0 Multiplicity = 1

                         Standard orientation:
 ---------------------------------------------------------------------
 Center     Atomic      Atomic             Coordinates (Angstroms)
 Number     Number       Type             X           Y           Z
 ---------------------------------------------------------------------
      1          8           0        0.041263    1.431529    0.000000
      2          1           0        0.037985    0.448933    0.000000
      3          1           0       -0.887162    1.753295    0.000000
      4          8           0        0.041263   -1.251717   -0.000000
      5          1           0        0.890578   -1.745854   -0.000000
      6          1           0       -0.701606   -1.894875   -0.000000
 ---------------------------------------------------------------------

 SCF Done:  E(RHF) =  -152.111177767     A.U. after   10 cycles
 E2 =    -0.5295238507D+00 EUMP2 =    -0.15264070161815D+03
 CCSD(T)
 CCSD(T)= -0.15266741287D+03

 The electronic state is 1-A'.
 Alpha  occ. eigenvalues --  -20.59284 -20.50676  -1.37011  -1.28590  -0.74076
 Alpha  occ. eigenvalues --   -0.68738  -0.59644  -0.53978  -0.51328  -0.45661
 Alpha virt. eigenvalues --    0.11684   0.18133   0.19086   0.32884   0.47985
 Alpha virt. eigenvalues --    0.54381   0.57954   0.62608   0.69075   0.72030
 Alpha virt. eigenvalues --    0.72482   0.77883   0.81953   0.82972   0.84548

 Mulliken charges:
               1
     1  O   -0.585722
     2  H    0.306449
     3  H    0.237768
     4  O   -0.478527
     5  H    0.265062
     6  H    0.254970
 Sum of Mulliken charges =   0.00000

 Dipole moment (field-independent basis, Debye):
    X=             -1.3499    Y=             -3.9468    Z=             -0.0000  Tot=              4.1713
 Quadrupole moment (field-independent basis, Debye-Ang):
   XX=             -9.1372   YY=             -8.9945   ZZ=            -14.7135
   XY=             -3.3279   XZ=             -0.0000   YZ=              0.0000

 Normal termination of Gaussian 16 at Fri Aug 26 20:41:28 2022.
