 Gaussian 16, Revision A.03,
 Gaussian 16:  ES64L-G16RevA.03 25-Dec-2016

 ------------------
 #p CCSD(T)/cc-pVTZ
 ------------------

 ------------
 H2O_H2O_3241
 ------------
 Symbolic Z-matrix:
 Charge =  0 Multiplicity = 1

                         Standard orientation:
 ---------------------------------------------------------------------
 Center     Atomic      Atomic             Coordinates (Angstroms)
 Number     Number       Type             X           Y           Z
 ---------------------------------------------------------------------
      1          8           0        0.041137    2.398862    0.000000
      2          1           0        0.039232    1.416262    0.000000
      3          1           0       -0.887736    2.719329    0.000000
      4          8           0        0.041137   -2.218934   -0.000000
      5          1           0        0.891142   -2.711883   -0.000000
      6          1           0       -0.700833   -2.863128   -0.000000
 ---------------------------------------------------------------------

 SCF Done:  E(RHF) =  -152.109583108     A.U. after   10 cycles
 E2 =    -0.5258870080D+00 EUMP2 =    -0.15263547011552D+03
 CCSD(T)
 CCSD(T)= -0.15266262388D+03

 The electronic state is 1-A'.
 Alpha  occ. eigenvalues --  -20.56540 -20.54542  -1.33824  -1.31860  -0.71224
 Alpha  occ. eigenvalues --   -0.69257  -0.57358  -0.55347  -0.50952  -0.48993
 Alpha virt. eigenvalues --    0.12628   0.15751   0.19500   0.22227   0.53305
 Alpha virt. eigenvalues --    0.55296   0.56439   0.58255   0.67566   0.69357
 Alpha virt. eigenvalues --    0.77953   0.78999   0.79457   0.79838   0.83153

 Mulliken charges:
               1
     1  O   -0.518247
     2  H    0.263656
     3  H    0.252524
     4  O   -0.515325
     5  H    0.259802
     6  H    0.257590
 Sum of Mulliken charges =   0.00000

 Dipole moment (field-independent basis, Debye):
    X=             -1.4046    Y=             -3.2207    Z=             -0.0000  Tot=              3.5136
 Quadrupole moment (field-independent basis, Debye-Ang):
   XX=             -9.1491   YY=             -7.0451   ZZ=            -14.7189
   XY=             -5.1069   XZ=             -0.0000   YZ=             -0.0000

 Normal termination of Gaussian 16 at Fri Aug 26 20:35:14 2022.
