 Gaussian 16, Revision A.03,
 Gaussian 16:  ES64L-G16RevA.03 25-Dec-2016

 ------------------
 #p CCSD(T)/cc-pVTZ
 ------------------

 -----------
 H2O_H2O_578
 -----------
 Symbolic Z-matrix:
 Charge =  0 Multiplicity = 1

                         Standard orientation:
 ---------------------------------------------------------------------
 Center     Atomic      Atomic             Coordinates (Angstroms)
 Number     Number       Type             X           Y           Z
 ---------------------------------------------------------------------
      1          8           0        0.085618   -1.325337    0.000000
      2          1           0        0.085119   -0.342736    0.000000
      3          1           0       -0.843713   -1.644475    0.000000
      4          8           0        0.085618    1.175779    0.000000
      5          1           0        0.276825    2.139598    0.000000
      6          1           0       -0.888118    1.044077    0.000000
 ---------------------------------------------------------------------

 SCF Done:  E(RHF) =  -152.097183388     A.U. after   11 cycles
 E2 =    -0.5322913630D+00 EUMP2 =    -0.15262947475053D+03
 CCSD(T)
 CCSD(T)= -0.15265604442D+03

 The electronic state is 1-A'.
 Alpha  occ. eigenvalues --  -20.59824 -20.51080  -1.38303  -1.29116  -0.76821
 Alpha  occ. eigenvalues --   -0.68511  -0.59439  -0.54797  -0.51784  -0.46098
 Alpha virt. eigenvalues --    0.11241   0.16525   0.20658   0.32491   0.48476
 Alpha virt. eigenvalues --    0.52604   0.58965   0.63934   0.70590   0.71680
 Alpha virt. eigenvalues --    0.74053   0.78444   0.78503   0.83283   0.83716

 Mulliken charges:
               1
     1  O   -0.569648
     2  H    0.291836
     3  H    0.218621
     4  O   -0.405254
     5  H    0.232069
     6  H    0.232376
 Sum of Mulliken charges =  -0.00000

 Dipole moment (field-independent basis, Debye):
    X=             -2.7563    Y=              3.5150    Z=              0.0000  Tot=              4.4668
 Quadrupole moment (field-independent basis, Debye-Ang):
   XX=            -10.4351   YY=             -9.2928   ZZ=            -14.6541
   XY=              2.4314   XZ=              0.0000   YZ=              0.0000

 Normal termination of Gaussian 16 at Fri Aug 26 19:11:13 2022.
