 Gaussian 16, Revision A.03,
 Gaussian 16:  ES64L-G16RevA.03 25-Dec-2016

 ------------------
 #p CCSD(T)/cc-pVTZ
 ------------------

 -----------
 H2O_H2O_243
 -----------
 Symbolic Z-matrix:
 Charge =  0 Multiplicity = 1

                         Standard orientation:
 ---------------------------------------------------------------------
 Center     Atomic      Atomic             Coordinates (Angstroms)
 Number     Number       Type             X           Y           Z
 ---------------------------------------------------------------------
      1          8           0        0.033998    1.200852   -0.000000
      2          1           0        0.029483    0.218261   -0.000000
      3          1           0       -0.894021    1.523786   -0.000000
      4          8           0        0.033998   -1.023487    0.000000
      5          1           0        0.940066   -1.403680    0.000000
      6          1           0       -0.619493   -1.757283    0.000000
 ---------------------------------------------------------------------

 SCF Done:  E(RHF) =  -152.074782476     A.U. after   11 cycles
 E2 =    -0.5340259432D+00 EUMP2 =    -0.15260880841913D+03
 CCSD(T)
 CCSD(T)= -0.15263470983D+03

 The electronic state is 1-A'.
 Alpha  occ. eigenvalues --  -20.61227 -20.46196  -1.41208  -1.25622  -0.77753
 Alpha  occ. eigenvalues --   -0.74210  -0.57060  -0.56631  -0.46549  -0.42354
 Alpha virt. eigenvalues --    0.10832   0.17183   0.20488   0.33673   0.46863
 Alpha virt. eigenvalues --    0.52696   0.61389   0.67561   0.70050   0.71696
 Alpha virt. eigenvalues --    0.77963   0.79419   0.79455   0.83131   0.84543

 Mulliken charges:
               1
     1  O   -0.651719
     2  H    0.299866
     3  H    0.219946
     4  O   -0.369285
     5  H    0.260819
     6  H    0.240374
 Sum of Mulliken charges =  -0.00000

 Dipole moment (field-independent basis, Debye):
    X=             -1.0566    Y=             -4.6841    Z=              0.0000  Tot=              4.8018
 Quadrupole moment (field-independent basis, Debye-Ang):
   XX=             -9.1245   YY=             -9.8744   ZZ=            -14.6131
   XY=             -2.8602   XZ=              0.0000   YZ=             -0.0000

 Normal termination of Gaussian 16 at Fri Aug 26 16:51:49 2022.
