 Gaussian 16, Revision A.03,
 Gaussian 16:  ES64L-G16RevA.03 25-Dec-2016

 ------------------
 #p CCSD(T)/cc-pVTZ
 ------------------

 -----------
 H2O_H2O_809
 -----------
 Symbolic Z-matrix:
 Charge =  0 Multiplicity = 1

                         Standard orientation:
 ---------------------------------------------------------------------
 Center     Atomic      Atomic             Coordinates (Angstroms)
 Number     Number       Type             X           Y           Z
 ---------------------------------------------------------------------
      1          8           0        0.066820    1.427829   -0.000000
      2          1           0        0.065162    0.445229   -0.000000
      3          1           0       -0.862134    1.748063   -0.000000
      4          8           0        0.066820   -1.254817    0.000000
      5          1           0        0.611345   -2.072740    0.000000
      6          1           0       -0.883490   -1.504651    0.000000
 ---------------------------------------------------------------------

 SCF Done:  E(RHF) =  -152.109573270     A.U. after   10 cycles
 E2 =    -0.5298545369D+00 EUMP2 =    -0.15263942780649D+03
 CCSD(T)
 CCSD(T)= -0.15266615659D+03

 The electronic state is 1-A'.
 Alpha  occ. eigenvalues --  -20.59280 -20.51117  -1.37040  -1.28971  -0.74366
 Alpha  occ. eigenvalues --   -0.68644  -0.59597  -0.53969  -0.51787  -0.46026
 Alpha virt. eigenvalues --    0.11526   0.17277   0.19682   0.32542   0.48071
 Alpha virt. eigenvalues --    0.54212   0.59604   0.60301   0.70081   0.72385
 Alpha virt. eigenvalues --    0.73415   0.77324   0.81288   0.83085   0.84299

 Mulliken charges:
               1
     1  O   -0.574045
     2  H    0.303124
     3  H    0.230762
     4  O   -0.460712
     5  H    0.251715
     6  H    0.249155
 Sum of Mulliken charges =  -0.00000

 Dipole moment (field-independent basis, Debye):
    X=             -2.1785    Y=             -3.7930    Z=              0.0000  Tot=              4.3740
 Quadrupole moment (field-independent basis, Debye-Ang):
   XX=             -9.5809   YY=             -8.9832   ZZ=            -14.7043
   XY=             -3.0432   XZ=              0.0000   YZ=              0.0000

 Normal termination of Gaussian 16 at Fri Aug 26 20:38:47 2022.
