 Gaussian 16, Revision A.03,
 Gaussian 16:  ES64L-G16RevA.03 25-Dec-2016

 ------------------
 #p CCSD(T)/cc-pVTZ
 ------------------

 ------------
 H2O_H2O_1127
 ------------
 Symbolic Z-matrix:
 Charge =  0 Multiplicity = 1

                         Standard orientation:
 ---------------------------------------------------------------------
 Center     Atomic      Atomic             Coordinates (Angstroms)
 Number     Number       Type             X           Y           Z
 ---------------------------------------------------------------------
      1          8           0        0.088239   -1.541864    0.000000
      2          1           0        0.087966   -0.559263    0.000000
      3          1           0       -0.841166   -1.860788    0.000000
      4          8           0        0.088239    1.397562    0.000000
      5          1           0        0.216224    2.371792    0.000000
      6          1           0       -0.874843    1.202678    0.000000
 ---------------------------------------------------------------------

 SCF Done:  E(RHF) =  -152.108838737     A.U. after   10 cycles
 E2 =    -0.5287980315D+00 EUMP2 =    -0.15263763676887D+03
 CCSD(T)
 CCSD(T)= -0.15266462517D+03

 The electronic state is 1-A'.
 Alpha  occ. eigenvalues --  -20.58471 -20.53461  -1.35993  -1.30944  -0.73923
 Alpha  occ. eigenvalues --   -0.68340  -0.59376  -0.54172  -0.52974  -0.48024
 Alpha virt. eigenvalues --    0.11516   0.16522   0.20344   0.30095   0.48660
 Alpha virt. eigenvalues --    0.53808   0.58148   0.59646   0.68425   0.72401
 Alpha virt. eigenvalues --    0.74352   0.77736   0.80919   0.81637   0.83376

 Mulliken charges:
               1
     1  O   -0.534911
     2  H    0.281995
     3  H    0.234013
     4  O   -0.458459
     5  H    0.238508
     6  H    0.238854
 Sum of Mulliken charges =  -0.00000

 Dipole moment (field-independent basis, Debye):
    X=             -2.9172    Y=              2.9670    Z=              0.0000  Tot=              4.1609
 Quadrupole moment (field-independent basis, Debye-Ang):
   XX=            -10.6060   YY=             -8.9837   ZZ=            -14.7040
   XY=              2.4082   XZ=              0.0000   YZ=              0.0000

 CCSD(T)=-152.6646252\RMSD=7.661e-09\PG=CS [SG(H4O2)]\\@
 Normal termination of Gaussian 16 at Fri Aug 26 22:37:27 2022.
