 Gaussian 16, Revision A.03,
 Gaussian 16:  ES64L-G16RevA.03 25-Dec-2016

 ------------------
 #p CCSD(T)/cc-pVTZ
 ------------------

 -----------
 H2O_H2O_703
 -----------
 Symbolic Z-matrix:
 Charge =  0 Multiplicity = 1

                         Standard orientation:
 ---------------------------------------------------------------------
 Center     Atomic      Atomic             Coordinates (Angstroms)
 Number     Number       Type             X           Y           Z
 ---------------------------------------------------------------------
      1          8           0        0.085616   -1.375199    0.000000
      2          1           0        0.085137   -0.392597    0.000000
      3          1           0       -0.843721   -1.694318    0.000000
      4          8           0        0.085616    1.225637    0.000000
      5          1           0        0.276843    2.189452    0.000000
      6          1           0       -0.888121    1.093954    0.000000
 ---------------------------------------------------------------------

 SCF Done:  E(RHF) =  -152.102418763     A.U. after   10 cycles
 E2 =    -0.5312178301D+00 EUMP2 =    -0.15263363659312D+03
 CCSD(T)
 CCSD(T)= -0.15266034799D+03

 The electronic state is 1-A'.
 Alpha  occ. eigenvalues --  -20.59457 -20.51763  -1.37567  -1.29611  -0.75882
 Alpha  occ. eigenvalues --   -0.68234  -0.59676  -0.54259  -0.52463  -0.46626
 Alpha virt. eigenvalues --    0.11342   0.16584   0.20505   0.32212   0.48303
 Alpha virt. eigenvalues --    0.52949   0.58766   0.62828   0.69617   0.71729
 Alpha virt. eigenvalues --    0.74134   0.78117   0.79254   0.83145   0.83330

 Mulliken charges:
               1
     1  O   -0.560733
     2  H    0.292264
     3  H    0.223360
     4  O   -0.422162
     5  H    0.233768
     6  H    0.233504
 Sum of Mulliken charges =  -0.00000

 Dipole moment (field-independent basis, Debye):
    X=             -2.7774    Y=              3.3837    Z=              0.0000  Tot=              4.3776
 Quadrupole moment (field-independent basis, Debye-Ang):
   XX=            -10.4433   YY=             -9.1788   ZZ=            -14.6722
   XY=              2.4641   XZ=              0.0000   YZ=              0.0000

 Normal termination of Gaussian 16 at Fri Aug 26 19:57:18 2022.
