 Gaussian 16, Revision A.03,
 Gaussian 16:  ES64L-G16RevA.03 25-Dec-2016

 ------------------
 #p CCSD(T)/cc-pVTZ
 ------------------

 ------------
 H2O_H2O_2921
 ------------
 Symbolic Z-matrix:
 Charge =  0 Multiplicity = 1

                         Standard orientation:
 ---------------------------------------------------------------------
 Center     Atomic      Atomic             Coordinates (Angstroms)
 Number     Number       Type             X           Y           Z
 ---------------------------------------------------------------------
      1          8           0       -0.023218    2.264045    0.000000
      2          1           0       -0.020502    1.281447    0.000000
      3          1           0        0.905390    2.585280    0.000000
      4          8           0       -0.023218   -2.093663    0.000000
      5          1           0       -0.986407   -2.288023    0.000000
      6          1           0        0.473007   -2.941759    0.000000
 ---------------------------------------------------------------------

 SCF Done:  E(RHF) =  -152.110041530     A.U. after   10 cycles
 E2 =    -0.5259389327D+00 EUMP2 =    -0.15263598046232D+03
 CCSD(T)
 CCSD(T)= -0.15266311848D+03

 The electronic state is 1-A'.
 Alpha  occ. eigenvalues --  -20.56672 -20.54499  -1.33954  -1.31820  -0.71357
 Alpha  occ. eigenvalues --   -0.69224  -0.57504  -0.55312  -0.51083  -0.48959
 Alpha virt. eigenvalues --    0.12374   0.16010   0.19329   0.23092   0.53521
 Alpha virt. eigenvalues --    0.55567   0.56421   0.58418   0.68437   0.69379
 Alpha virt. eigenvalues --    0.77792   0.78953   0.79874   0.80197   0.83236

 Mulliken charges:
               1
     1  O   -0.520812
     2  H    0.263904
     3  H    0.253797
     4  O   -0.514681
     5  H    0.259355
     6  H    0.258436
 Sum of Mulliken charges =  -0.00000

 Dipole moment (field-independent basis, Debye):
    X=              0.7938    Y=             -3.0734    Z=              0.0000  Tot=              3.1743
 Quadrupole moment (field-independent basis, Debye-Ang):
   XX=             -9.3612   YY=             -7.5858   ZZ=            -14.7203
   XY=              5.6064   XZ=              0.0000   YZ=              0.0000

 Normal termination of Gaussian 16 at Fri Aug 26 18:22:26 2022.
