 Gaussian 16, Revision A.03,
 Gaussian 16:  ES64L-G16RevA.03 25-Dec-2016

 ------------------
 #p CCSD(T)/cc-pVTZ
 ------------------

 ------------
 H2O_H2O_4115
 ------------
 Symbolic Z-matrix:
 Charge =  0 Multiplicity = 1

                         Standard orientation:
 ---------------------------------------------------------------------
 Center     Atomic      Atomic             Coordinates (Angstroms)
 Number     Number       Type             X           Y           Z
 ---------------------------------------------------------------------
      1          8           0        0.044834    2.748147    0.000000
      2          1           0        0.043298    1.765547    0.000000
      3          1           0       -0.884160    3.068266    0.000000
      4          8           0        0.044834   -2.567722    0.000000
      5          1           0        0.860983   -3.114903    0.000000
      6          1           0       -0.737458   -3.162304    0.000000
 ---------------------------------------------------------------------

 SCF Done:  E(RHF) =  -152.108673389     A.U. after   10 cycles
 E2 =    -0.5258143705D+00 EUMP2 =    -0.15263448775902D+03
 CCSD(T)
 CCSD(T)= -0.15266167606D+03

 The electronic state is 1-A'.
 Alpha  occ. eigenvalues --  -20.56264 -20.54844  -1.33562  -1.32154  -0.70966
 Alpha  occ. eigenvalues --   -0.69554  -0.57065  -0.55629  -0.50683  -0.49279
 Alpha virt. eigenvalues --    0.13160   0.15135   0.19657   0.21245   0.53585
 Alpha virt. eigenvalues --    0.54896   0.56609   0.57822   0.66685   0.69025
 Alpha virt. eigenvalues --    0.78209   0.79570   0.79577   0.79701   0.82851

 Mulliken charges:
               1
     1  O   -0.514909
     2  H    0.261392
     3  H    0.253161
     4  O   -0.515450
     5  H    0.258805
     6  H    0.257002
 Sum of Mulliken charges =  -0.00000

 Dipole moment (field-independent basis, Debye):
    X=             -1.5359    Y=             -3.1801    Z=              0.0000  Tot=              3.5316
 Quadrupole moment (field-independent basis, Debye-Ang):
   XX=             -9.1568   YY=             -6.4656   ZZ=            -14.7157
   XY=             -5.5321   XZ=             -0.0000   YZ=              0.0000

 Normal termination of Gaussian 16 at Sat Aug 27 23:52:08 2022.
