 Gaussian 16, Revision A.03,
 Gaussian 16:  ES64L-G16RevA.03 25-Dec-2016

 ------------------
 #p CCSD(T)/cc-pVTZ
 ------------------

 ------------
 H2O_H2O_1684
 ------------
 Symbolic Z-matrix:
 Charge =  0 Multiplicity = 1

                         Standard orientation:
 ---------------------------------------------------------------------
 Center     Atomic      Atomic             Coordinates (Angstroms)
 Number     Number       Type             X           Y           Z
 ---------------------------------------------------------------------
      1          8           0        0.066790    1.776870    0.000000
      2          1           0        0.065475    0.794269    0.000000
      3          1           0       -0.862276    2.096780    0.000000
      4          8           0        0.066790   -1.603811    0.000000
      5          1           0        0.611601   -2.421543    0.000000
      6          1           0       -0.883433   -1.853977    0.000000
 ---------------------------------------------------------------------

 SCF Done:  E(RHF) =  -152.112462138     A.U. after   10 cycles
 E2 =    -0.5268982958D+00 EUMP2 =    -0.15263936043415D+03
 CCSD(T)
 CCSD(T)= -0.15266639988D+03

 The electronic state is 1-A'.
 Alpha  occ. eigenvalues --  -20.57701 -20.53491  -1.34975  -1.30878  -0.72379
 Alpha  occ. eigenvalues --   -0.68355  -0.58689  -0.54274  -0.52099  -0.48018
 Alpha virt. eigenvalues --    0.11962   0.17007   0.19316   0.27644   0.50248
 Alpha virt. eigenvalues --    0.55229   0.56439   0.58756   0.69368   0.72967
 Alpha virt. eigenvalues --    0.75049   0.77189   0.81031   0.83110   0.84215

 Mulliken charges:
               1
     1  O   -0.531017
     2  H    0.272909
     3  H    0.244159
     4  O   -0.502991
     5  H    0.261791
     6  H    0.255150
 Sum of Mulliken charges =  -0.00000

 Dipole moment (field-independent basis, Debye):
    X=             -2.2449    Y=             -3.3300    Z=             -0.0000  Tot=              4.0160
 Quadrupole moment (field-independent basis, Debye-Ang):
   XX=             -9.5808   YY=             -8.2219   ZZ=            -14.7295
   XY=             -3.4034   XZ=             -0.0000   YZ=             -0.0000

 Normal termination of Gaussian 16 at Sun Aug 28 00:37:21 2022.
