 Gaussian 16, Revision A.03,
 Gaussian 16:  ES64L-G16RevA.03 25-Dec-2016

 ------------------
 #p CCSD(T)/cc-pVTZ
 ------------------

 ------------
 H2O_H2O_2175
 ------------
 Symbolic Z-matrix:
 Charge =  0 Multiplicity = 1

                         Standard orientation:
 ---------------------------------------------------------------------
 Center     Atomic      Atomic             Coordinates (Angstroms)
 Number     Number       Type             X           Y           Z
 ---------------------------------------------------------------------
      1          8           0        0.092949   -1.954430    0.000000
      2          1           0        0.092949   -0.971828    0.000000
      3          1           0       -0.836544   -2.273096    0.000000
      4          8           0        0.092949    1.821643    0.000000
      5          1           0        0.092949    2.804244    0.000000
      6          1           0       -0.836544    1.502976    0.000000
 ---------------------------------------------------------------------

 SCF Done:  E(RHF) =  -152.108674952     A.U. after   10 cycles
 E2 =    -0.5265608002D+00 EUMP2 =    -0.15263523575238D+03
 CCSD(T)
 CCSD(T)= -0.15266238194D+03

 The electronic state is 1-A'.
 Alpha  occ. eigenvalues --  -20.57155 -20.54929  -1.34450  -1.32233  -0.71960
 Alpha  occ. eigenvalues --   -0.69561  -0.57932  -0.55665  -0.51546  -0.49344
 Alpha virt. eigenvalues --    0.11424   0.16001   0.20104   0.24988   0.52688
 Alpha virt. eigenvalues --    0.55736   0.56789   0.57431   0.68099   0.72876
 Alpha virt. eigenvalues --    0.76604   0.79134   0.79716   0.80547   0.83088

 Mulliken charges:
               1
     1  O   -0.513618
     2  H    0.264334
     3  H    0.245492
     4  O   -0.500651
     5  H    0.258785
     6  H    0.245658
 Sum of Mulliken charges =  -0.00000

 Dipole moment (field-independent basis, Debye):
    X=             -3.1397    Y=              2.4547    Z=              0.0000  Tot=              3.9854
 Quadrupole moment (field-independent basis, Debye-Ang):
   XX=            -10.8770   YY=             -9.1627   ZZ=            -14.7134
   XY=              2.1388   XZ=              0.0000   YZ=              0.0000

 Normal termination of Gaussian 16 at Sun Aug 28 05:07:34 2022.
