 Gaussian 16, Revision A.03,
 Gaussian 16:  ES64L-G16RevA.03 25-Dec-2016

 ------------------
 #p CCSD(T)/cc-pVTZ
 ------------------

 -----------
 H2O_H2O_773
 -----------
 Symbolic Z-matrix:
 Charge =  0 Multiplicity = 1

                         Standard orientation:
 ---------------------------------------------------------------------
 Center     Atomic      Atomic             Coordinates (Angstroms)
 Number     Number       Type             X           Y           Z
 ---------------------------------------------------------------------
      1          8           0        0.016796   -1.402634    0.000000
      2          1           0        0.011894   -0.420045    0.000000
      3          1           0       -0.911095   -1.725934    0.000000
      4          8           0        0.016796    1.239314    0.000000
      5          1           0        0.996962    1.308470    0.000000
      6          1           0       -0.366499    2.144074    0.000000
 ---------------------------------------------------------------------

 SCF Done:  E(RHF) =  -152.108469577     A.U. after   10 cycles
 E2 =    -0.5299156192D+00 EUMP2 =    -0.15263838519644D+03
 CCSD(T)
 CCSD(T)= -0.15266508373D+03

 The electronic state is 1-A'.
 Alpha  occ. eigenvalues --  -20.59271 -20.50995  -1.37180  -1.28914  -0.74931
 Alpha  occ. eigenvalues --   -0.68145  -0.60007  -0.54043  -0.51582  -0.45990
 Alpha virt. eigenvalues --    0.11816   0.18255   0.19095   0.33227   0.48263
 Alpha virt. eigenvalues --    0.54047   0.57023   0.65907   0.68269   0.72229
 Alpha virt. eigenvalues --    0.74220   0.76476   0.80390   0.83389   0.84077

 Mulliken charges:
               1
     1  O   -0.589978
     2  H    0.295505
     3  H    0.246849
     4  O   -0.448921
     5  H    0.259348
     6  H    0.237196
 Sum of Mulliken charges =  -0.00000

 Dipole moment (field-independent basis, Debye):
    X=             -0.5619    Y=              3.6418    Z=              0.0000  Tot=              3.6849
 Quadrupole moment (field-independent basis, Debye-Ang):
   XX=             -9.5168   YY=             -9.0704   ZZ=            -14.6978
   XY=              3.6479   XZ=              0.0000   YZ=              0.0000

 Normal termination of Gaussian 16 at Fri Aug 26 20:25:19 2022.
