 Gaussian 16, Revision A.03,
 Gaussian 16:  ES64L-G16RevA.03 25-Dec-2016

 ------------------
 #p CCSD(T)/cc-pVTZ
 ------------------

 ------------
 H2O_H2O_2247
 ------------
 Symbolic Z-matrix:
 Charge =  0 Multiplicity = 1

                         Standard orientation:
 ---------------------------------------------------------------------
 Center     Atomic      Atomic             Coordinates (Angstroms)
 Number     Number       Type             X           Y           Z
 ---------------------------------------------------------------------
      1          8           0       -0.019904    1.993014    0.000000
      2          1           0       -0.016656    1.010418    0.000000
      3          1           0        0.908530    2.314751    0.000000
      4          8           0       -0.019904   -1.825931    0.000000
      5          1           0       -0.993670   -1.957406    0.000000
      6          1           0        0.420266   -2.704428    0.000000
 ---------------------------------------------------------------------

 SCF Done:  E(RHF) =  -152.111437668     A.U. after   10 cycles
 E2 =    -0.5262079573D+00 EUMP2 =    -0.15263764562578D+03
 CCSD(T)
 CCSD(T)= -0.15266473731D+03

 The electronic state is 1-A'.
 Alpha  occ. eigenvalues --  -20.57097 -20.54118  -1.34367  -1.31459  -0.71777
 Alpha  occ. eigenvalues --   -0.68875  -0.57994  -0.54940  -0.51500  -0.48610
 Alpha virt. eigenvalues --    0.12230   0.16672   0.19238   0.25247   0.53277
 Alpha virt. eigenvalues --    0.55064   0.56168   0.58692   0.68819   0.71951
 Alpha virt. eigenvalues --    0.76887   0.78889   0.80296   0.82665   0.83588

 Mulliken charges:
               1
     1  O   -0.527446
     2  H    0.266296
     3  H    0.253574
     4  O   -0.510875
     5  H    0.260375
     6  H    0.258076
 Sum of Mulliken charges =  -0.00000

 Dipole moment (field-independent basis, Debye):
    X=              0.6803    Y=             -3.0951    Z=              0.0000  Tot=              3.1689
 Quadrupole moment (field-independent basis, Debye-Ang):
   XX=             -9.4478   YY=             -8.0275   ZZ=            -14.7249
   XY=              5.0863   XZ=              0.0000   YZ=              0.0000

 Normal termination of Gaussian 16 at Sun Aug 28 05:43:37 2022.
