 Gaussian 16, Revision A.03,
 Gaussian 16:  ES64L-G16RevA.03 25-Dec-2016

 ------------------
 #p CCSD(T)/cc-pVTZ
 ------------------

 -----------
 H2O_H2O_432
 -----------
 Symbolic Z-matrix:
 Charge =  0 Multiplicity = 1

                         Standard orientation:
 ---------------------------------------------------------------------
 Center     Atomic      Atomic             Coordinates (Angstroms)
 Number     Number       Type             X           Y           Z
 ---------------------------------------------------------------------
      1          8           0        0.073591    1.274898    0.000000
      2          1           0        0.072209    0.292298    0.000000
      3          1           0       -0.855452    1.594873    0.000000
      4          8           0        0.073591   -1.108055    0.000000
      5          1           0        0.506944   -1.989935    0.000000
      6          1           0       -0.901164   -1.231985    0.000000
 ---------------------------------------------------------------------

 SCF Done:  E(RHF) =  -152.092404313     A.U. after   11 cycles
 E2 =    -0.5330620583D+00 EUMP2 =    -0.15262546637125D+03
 CCSD(T)
 CCSD(T)= -0.15265176148D+03

 The electronic state is 1-A'.
 Alpha  occ. eigenvalues --  -20.60419 -20.49087  -1.39307  -1.27593  -0.77006
 Alpha  occ. eigenvalues --   -0.70616  -0.58307  -0.55660  -0.49705  -0.44500
 Alpha virt. eigenvalues --    0.11062   0.16713   0.20491   0.32999   0.48510
 Alpha virt. eigenvalues --    0.52951   0.59802   0.63879   0.72041   0.72349
 Alpha virt. eigenvalues --    0.74535   0.78867   0.79018   0.83985   0.84287

 Mulliken charges:
               1
     1  O   -0.600160
     2  H    0.299179
     3  H    0.215467
     4  O   -0.392088
     5  H    0.237603
     6  H    0.239999
 Sum of Mulliken charges =   0.00000

 Dipole moment (field-independent basis, Debye):
    X=             -2.3331    Y=             -4.0878    Z=              0.0000  Tot=              4.7067
 Quadrupole moment (field-independent basis, Debye-Ang):
   XX=             -9.8211   YY=             -9.4514   ZZ=            -14.6432
   XY=             -2.7429   XZ=              0.0000   YZ=              0.0000

 Normal termination of Gaussian 16 at Fri Aug 26 18:13:34 2022.
