 Gaussian 16, Revision A.03,
 Gaussian 16:  ES64L-G16RevA.03 25-Dec-2016

 ------------------
 #p CCSD(T)/cc-pVTZ
 ------------------

 -----------
 H2O_H2O_494
 -----------
 Symbolic Z-matrix:
 Charge =  0 Multiplicity = 1

                         Standard orientation:
 ---------------------------------------------------------------------
 Center     Atomic      Atomic             Coordinates (Angstroms)
 Number     Number       Type             X           Y           Z
 ---------------------------------------------------------------------
      1          8           0        0.030371    1.299547    0.000000
      2          1           0        0.025976    0.316955    0.000000
      3          1           0       -0.897687    1.622368    0.000000
      4          8           0        0.030371   -1.124065   -0.000000
      5          1           0        0.959404   -1.444071   -0.000000
      6          1           0       -0.573632   -1.899105   -0.000000
 ---------------------------------------------------------------------

 SCF Done:  E(RHF) =  -152.098933667     A.U. after   11 cycles
 E2 =    -0.5317849620D+00 EUMP2 =    -0.15263071862903D+03
 CCSD(T)
 CCSD(T)= -0.15265706543D+03

 The electronic state is 1-A'.
 Alpha  occ. eigenvalues --  -20.60217 -20.48697  -1.38801  -1.27223  -0.75854
 Alpha  occ. eigenvalues --   -0.70769  -0.58664  -0.55374  -0.49203  -0.44170
 Alpha virt. eigenvalues --    0.11344   0.17832   0.19709   0.33826   0.47328
 Alpha virt. eigenvalues --    0.53579   0.59595   0.67376   0.69058   0.72230
 Alpha virt. eigenvalues --    0.74335   0.78047   0.80154   0.83583   0.83846

 Mulliken charges:
               1
     1  O   -0.620520
     2  H    0.306505
     3  H    0.232833
     4  O   -0.424088
     5  H    0.261694
     6  H    0.243576
 Sum of Mulliken charges =  -0.00000

 Dipole moment (field-independent basis, Debye):
    X=             -0.9750    Y=             -4.2307    Z=             -0.0000  Tot=              4.3416
 Quadrupole moment (field-independent basis, Debye-Ang):
   XX=             -9.1890   YY=             -9.4355   ZZ=            -14.6684
   XY=             -3.1342   XZ=             -0.0000   YZ=             -0.0000

 Normal termination of Gaussian 16 at Fri Aug 26 18:38:22 2022.
