 Gaussian 16, Revision A.03,
 Gaussian 16:  ES64L-G16RevA.03 25-Dec-2016

 ------------------
 #p CCSD(T)/cc-pVTZ
 ------------------

 ------------
 H2O_H2O_3044
 ------------
 Symbolic Z-matrix:
 Charge =  0 Multiplicity = 1

                         Standard orientation:
 ---------------------------------------------------------------------
 Center     Atomic      Atomic             Coordinates (Angstroms)
 Number     Number       Type             X           Y           Z
 ---------------------------------------------------------------------
      1          8           0        0.030192    2.316741   -0.000000
      2          1           0        0.027802    1.334142   -0.000000
      3          1           0       -0.898523    2.637667   -0.000000
      4          8           0        0.030192   -2.141135    0.000000
      5          1           0        0.959877   -2.459244    0.000000
      6          1           0       -0.572228   -2.917405    0.000000
 ---------------------------------------------------------------------

 SCF Done:  E(RHF) =  -152.109895954     A.U. after   10 cycles
 E2 =    -0.5259138903D+00 EUMP2 =    -0.15263580984449D+03
 CCSD(T)
 CCSD(T)= -0.15266295314D+03

 The electronic state is 1-A'.
 Alpha  occ. eigenvalues --  -20.56620 -20.54495  -1.33901  -1.31815  -0.71302
 Alpha  occ. eigenvalues --   -0.69216  -0.57447  -0.55306  -0.51031  -0.48952
 Alpha virt. eigenvalues --    0.12489   0.15919   0.19404   0.22707   0.53339
 Alpha virt. eigenvalues --    0.55487   0.56436   0.58395   0.68110   0.69345
 Alpha virt. eigenvalues --    0.77863   0.78929   0.79830   0.79877   0.83210

 Mulliken charges:
               1
     1  O   -0.519857
     2  H    0.263928
     3  H    0.253207
     4  O   -0.515073
     5  H    0.259613
     6  H    0.258183
 Sum of Mulliken charges =  -0.00000

 Dipole moment (field-independent basis, Debye):
    X=             -1.0309    Y=             -3.1581    Z=              0.0000  Tot=              3.3221
 Quadrupole moment (field-independent basis, Debye-Ang):
   XX=             -9.2294   YY=             -7.3268   ZZ=            -14.7199
   XY=             -5.4110   XZ=              0.0000   YZ=              0.0000

 Normal termination of Gaussian 16 at Fri Aug 26 19:27:29 2022.
