 Gaussian 16, Revision A.03,
 Gaussian 16:  ES64L-G16RevA.03 25-Dec-2016

 ------------------
 #p CCSD(T)/cc-pVTZ
 ------------------

 ------------
 H2O_H2O_4147
 ------------
 Symbolic Z-matrix:
 Charge =  0 Multiplicity = 1

                         Standard orientation:
 ---------------------------------------------------------------------
 Center     Atomic      Atomic             Coordinates (Angstroms)
 Number     Number       Type             X           Y           Z
 ---------------------------------------------------------------------
      1          8           0       -0.019826    2.750896    0.000000
      2          1           0       -0.017501    1.768298    0.000000
      3          1           0        0.908910    3.071762    0.000000
      4          8           0       -0.019826   -2.583776    0.000000
      5          1           0       -0.993715   -2.714336    0.000000
      6          1           0        0.419519   -3.462686    0.000000
 ---------------------------------------------------------------------

 SCF Done:  E(RHF) =  -152.108654934     A.U. after   10 cycles
 E2 =    -0.5258044923D+00 EUMP2 =    -0.15263445942642D+03
 CCSD(T)
 CCSD(T)= -0.15266164966D+03

 The electronic state is 1-A'.
 Alpha  occ. eigenvalues --  -20.56249 -20.54956  -1.33550  -1.32265  -0.70956
 Alpha  occ. eigenvalues --   -0.69671  -0.57051  -0.55742  -0.50671  -0.49392
 Alpha virt. eigenvalues --    0.13038   0.15096   0.19424   0.21457   0.53351
 Alpha virt. eigenvalues --    0.55031   0.56632   0.57824   0.66701   0.68913
 Alpha virt. eigenvalues --    0.78219   0.79205   0.79461   0.80560   0.82726

 Mulliken charges:
               1
     1  O   -0.515227
     2  H    0.260338
     3  H    0.254603
     4  O   -0.515622
     5  H    0.257634
     6  H    0.258274
 Sum of Mulliken charges =   0.00000

 Dipole moment (field-independent basis, Debye):
    X=              0.6808    Y=             -2.9427    Z=              0.0000  Tot=              3.0204
 Quadrupole moment (field-independent basis, Debye-Ang):
   XX=             -9.4471   YY=             -7.1505   ZZ=            -14.7156
   XY=              6.9981   XZ=              0.0000   YZ=              0.0000

 Normal termination of Gaussian 16 at Sun Aug 28 00:08:22 2022.
