 Gaussian 16, Revision A.03,
 Gaussian 16:  ES64L-G16RevA.03 25-Dec-2016

 ------------------
 #p CCSD(T)/cc-pVTZ
 ------------------

 ------------
 H2O_H2O_1889
 ------------
 Symbolic Z-matrix:
 Charge =  0 Multiplicity = 1

                         Standard orientation:
 ---------------------------------------------------------------------
 Center     Atomic      Atomic             Coordinates (Angstroms)
 Number     Number       Type             X           Y           Z
 ---------------------------------------------------------------------
      1          8           0        0.048625    1.860605    0.000000
      2          1           0        0.046498    0.878006    0.000000
      3          1           0       -0.880176    2.181283   -0.000000
      4          8           0        0.048625   -1.680262    0.000000
      5          1           0        0.826879   -2.280117    0.000000
      6          1           0       -0.771204   -2.221912   -0.000000
 ---------------------------------------------------------------------

 SCF Done:  E(RHF) =  -152.112682396     A.U. after   10 cycles
 E2 =    -0.5265409117D+00 EUMP2 =    -0.15263922330806D+03
 CCSD(T)
 CCSD(T)= -0.15266627484D+03

 The electronic state is 1-A'.
 Alpha  occ. eigenvalues --  -20.57477 -20.53533  -1.34729  -1.30906  -0.72104
 Alpha  occ. eigenvalues --   -0.68359  -0.58452  -0.54347  -0.51868  -0.48058
 Alpha virt. eigenvalues --    0.12176   0.17118   0.19129   0.26815   0.51198
 Alpha virt. eigenvalues --    0.54932   0.56376   0.59039   0.69063   0.72383
 Alpha virt. eigenvalues --    0.75864   0.77271   0.80889   0.83352   0.84439

 Mulliken charges:
               1
     1  O   -0.531459
     2  H    0.270734
     3  H    0.248036
     4  O   -0.507580
     5  H    0.262792
     6  H    0.257476
 Sum of Mulliken charges =  -0.00000

 Dipole moment (field-independent basis, Debye):
    X=             -1.6413    Y=             -3.4201    Z=             -0.0000  Tot=              3.7935
 Quadrupole moment (field-independent basis, Debye-Ang):
   XX=             -9.1876   YY=             -7.9514   ZZ=            -14.7306
   XY=             -3.9624   XZ=             -0.0000   YZ=             -0.0000

 Normal termination of Gaussian 16 at Sun Aug 28 02:27:04 2022.
