 Gaussian 16, Revision A.03,
 Gaussian 16:  ES64L-G16RevA.03 25-Dec-2016

 ------------------
 #p CCSD(T)/cc-pVTZ
 ------------------

 ------------
 H2O_H2O_1157
 ------------
 Symbolic Z-matrix:
 Charge =  0 Multiplicity = 1

                         Standard orientation:
 ---------------------------------------------------------------------
 Center     Atomic      Atomic             Coordinates (Angstroms)
 Number     Number       Type             X           Y           Z
 ---------------------------------------------------------------------
      1          8           0        0.073568    1.564105   -0.000000
      2          1           0        0.072456    0.581504   -0.000000
      3          1           0       -0.855563    1.883823   -0.000000
      4          8           0        0.073568   -1.397221    0.000000
      5          1           0        0.507164   -2.278981    0.000000
      6          1           0       -0.901152   -1.521418    0.000000
 ---------------------------------------------------------------------

 SCF Done:  E(RHF) =  -152.112031199     A.U. after   10 cycles
 E2 =    -0.5283005771D+00 EUMP2 =    -0.15264033177608D+03
 CCSD(T)
 CCSD(T)= -0.15266726857D+03

 The electronic state is 1-A'.
 Alpha  occ. eigenvalues --  -20.58484 -20.52665  -1.35919  -1.30200  -0.73406
 Alpha  occ. eigenvalues --   -0.68121  -0.59474  -0.53387  -0.52974  -0.47308
 Alpha virt. eigenvalues --    0.11699   0.17051   0.19616   0.30582   0.48589
 Alpha virt. eigenvalues --    0.54734   0.58312   0.58944   0.69697   0.72984
 Alpha virt. eigenvalues --    0.74213   0.76547   0.81872   0.82177   0.84210

 Mulliken charges:
               1
     1  O   -0.546750
     2  H    0.287382
     3  H    0.236851
     4  O   -0.477851
     5  H    0.249915
     6  H    0.250453
 Sum of Mulliken charges =  -0.00000

 Dipole moment (field-independent basis, Debye):
    X=             -2.4369    Y=             -3.4154    Z=              0.0000  Tot=              4.1957
 Quadrupole moment (field-independent basis, Debye-Ang):
   XX=             -9.8443   YY=             -8.6781   ZZ=            -14.7206
   XY=             -3.0243   XZ=              0.0000   YZ=              0.0000

 Normal termination of Gaussian 16 at Fri Aug 26 22:48:20 2022.
