 Gaussian 16, Revision A.03,
 Gaussian 16:  ES64L-G16RevA.03 25-Dec-2016

 ------------------
 #p CCSD(T)/cc-pVTZ
 ------------------

 ------------
 H2O_H2O_2534
 ------------
 Symbolic Z-matrix:
 Charge =  0 Multiplicity = 1

                         Standard orientation:
 ---------------------------------------------------------------------
 Center     Atomic      Atomic             Coordinates (Angstroms)
 Number     Number       Type             X           Y           Z
 ---------------------------------------------------------------------
      1          8           0        0.066770    2.115930    0.000000
      2          1           0        0.065675    1.133329    0.000000
      3          1           0       -0.862367    2.435632   -0.000000
      4          8           0        0.066770   -1.942841    0.000000
      5          1           0        0.611763   -2.760453    0.000000
      6          1           0       -0.883397   -2.193219   -0.000000
 ---------------------------------------------------------------------

 SCF Done:  E(RHF) =  -152.110299058     A.U. after   10 cycles
 E2 =    -0.5261355681D+00 EUMP2 =    -0.15263643462615D+03
 CCSD(T)
 CCSD(T)= -0.15266355351D+03

 The electronic state is 1-A'.
 Alpha  occ. eigenvalues --  -20.56924 -20.54301  -1.34192  -1.31626  -0.71600
 Alpha  occ. eigenvalues --   -0.69011  -0.57755  -0.55101  -0.51321  -0.48762
 Alpha virt. eigenvalues --    0.12175   0.16260   0.19395   0.23900   0.53065
 Alpha virt. eigenvalues --    0.55683   0.56067   0.58803   0.68901   0.70437
 Alpha virt. eigenvalues --    0.77415   0.78916   0.80094   0.80797   0.83397

 Mulliken charges:
               1
     1  O   -0.520016
     2  H    0.265848
     3  H    0.248784
     4  O   -0.509527
     5  H    0.260031
     6  H    0.254881
 Sum of Mulliken charges =  -0.00000

 Dipole moment (field-independent basis, Debye):
    X=             -2.2683    Y=             -3.1665    Z=             -0.0000  Tot=              3.8951
 Quadrupole moment (field-independent basis, Debye-Ang):
   XX=             -9.5693   YY=             -7.7079   ZZ=            -14.7208
   XY=             -3.7175   XZ=              0.0000   YZ=             -0.0000

 Normal termination of Gaussian 16 at Fri Aug 26 15:25:31 2022.
