 Gaussian 16, Revision A.03,
 Gaussian 16:  ES64L-G16RevA.03 25-Dec-2016

 ------------------
 #p CCSD(T)/cc-pVTZ
 ------------------

 ------------
 H2O_H2O_4396
 ------------
 Symbolic Z-matrix:
 Charge =  0 Multiplicity = 1

                         Standard orientation:
 ---------------------------------------------------------------------
 Center     Atomic      Atomic             Coordinates (Angstroms)
 Number     Number       Type             X           Y           Z
 ---------------------------------------------------------------------
      1          8           0       -0.023168    2.852401    0.000000
      2          1           0       -0.021029    1.869802    0.000000
      3          1           0        0.905629    3.173090    0.000000
      4          8           0       -0.023168   -2.681992    0.000000
      5          1           0       -0.986470   -2.875785    0.000000
      6          1           0        0.472559   -3.530379    0.000000
 ---------------------------------------------------------------------

 SCF Done:  E(RHF) =  -152.108524027     A.U. after   10 cycles
 E2 =    -0.5257997535D+00 EUMP2 =    -0.15263432378045D+03
 CCSD(T)
 CCSD(T)= -0.15266151867D+03

 The electronic state is 1-A'.
 Alpha  occ. eigenvalues --  -20.56199 -20.54985  -1.33501  -1.32294  -0.70906
 Alpha  occ. eigenvalues --   -0.69699  -0.56998  -0.55768  -0.50620  -0.49418
 Alpha virt. eigenvalues --    0.13238   0.14972   0.19541   0.21220   0.53490
 Alpha virt. eigenvalues --    0.54927   0.56661   0.57800   0.66788   0.68767
 Alpha virt. eigenvalues --    0.78266   0.79432   0.79437   0.80492   0.82635

 Mulliken charges:
               1
     1  O   -0.514656
     2  H    0.260071
     3  H    0.254427
     4  O   -0.515200
     5  H    0.257548
     6  H    0.257809
 Sum of Mulliken charges =  -0.00000

 Dipole moment (field-independent basis, Debye):
    X=              0.7954    Y=             -2.9931    Z=              0.0000  Tot=              3.0970
 Quadrupole moment (field-independent basis, Debye-Ang):
   XX=             -9.3620   YY=             -6.8440   ZZ=            -14.7151
   XY=              7.0227   XZ=              0.0000   YZ=              0.0000

 Normal termination of Gaussian 16 at Sun Aug 28 02:28:51 2022.
