 Gaussian 16, Revision A.03,
 Gaussian 16:  ES64L-G16RevA.03 25-Dec-2016

 ------------------
 #p CCSD(T)/cc-pVTZ
 ------------------

 ------------
 H2O_H2O_3271
 ------------
 Symbolic Z-matrix:
 Charge =  0 Multiplicity = 1

                         Standard orientation:
 ---------------------------------------------------------------------
 Center     Atomic      Atomic             Coordinates (Angstroms)
 Number     Number       Type             X           Y           Z
 ---------------------------------------------------------------------
      1          8           0       -0.023204    2.403656    0.000000
      2          1           0       -0.020651    1.421058    0.000000
      3          1           0        0.905458    2.724736    0.000000
      4          8           0       -0.023204   -2.233266    0.000000
      5          1           0       -0.986425   -2.427465    0.000000
      6          1           0        0.472880   -3.081444    0.000000
 ---------------------------------------------------------------------

 SCF Done:  E(RHF) =  -152.109511413     A.U. after   10 cycles
 E2 =    -0.5258730583D+00 EUMP2 =    -0.15263538447148D+03
 CCSD(T)
 CCSD(T)= -0.15266254185D+03

 The electronic state is 1-A'.
 Alpha  occ. eigenvalues --  -20.56515 -20.54655  -1.33804  -1.31972  -0.71208
 Alpha  occ. eigenvalues --   -0.69376  -0.57334  -0.55460  -0.50930  -0.49106
 Alpha virt. eigenvalues --    0.12515   0.15709   0.19365   0.22385   0.53408
 Alpha virt. eigenvalues --    0.55405   0.56493   0.58130   0.67429   0.69337
 Alpha virt. eigenvalues --    0.77972   0.78747   0.79729   0.80221   0.83064

 Mulliken charges:
               1
     1  O   -0.518512
     2  H    0.262660
     3  H    0.254063
     4  O   -0.515792
     5  H    0.258912
     6  H    0.258669
 Sum of Mulliken charges =  -0.00000

 Dipole moment (field-independent basis, Debye):
    X=              0.7943    Y=             -3.0452    Z=              0.0000  Tot=              3.1470
 Quadrupole moment (field-independent basis, Debye-Ang):
   XX=             -9.3612   YY=             -7.4096   ZZ=            -14.7186
   XY=              5.9427   XZ=              0.0000   YZ=              0.0000

 Normal termination of Gaussian 16 at Fri Aug 26 20:45:16 2022.
