 Gaussian 16, Revision A.03,
 Gaussian 16:  ES64L-G16RevA.03 25-Dec-2016

 ------------------
 #p CCSD(T)/cc-pVTZ
 ------------------

 ------------
 H2O_H2O_2043
 ------------
 Symbolic Z-matrix:
 Charge =  0 Multiplicity = 1

                         Standard orientation:
 ---------------------------------------------------------------------
 Center     Atomic      Atomic             Coordinates (Angstroms)
 Number     Number       Type             X           Y           Z
 ---------------------------------------------------------------------
      1          8           0        0.033838    1.918887    0.000000
      2          1           0        0.031094    0.936290    0.000000
      3          1           0       -0.894762    2.240148    0.000000
      4          8           0        0.033838   -1.741400   -0.000000
      5          1           0        0.940590   -2.119959   -0.000000
      6          1           0       -0.618328   -2.476374   -0.000000
 ---------------------------------------------------------------------

 SCF Done:  E(RHF) =  -152.112298976     A.U. after   10 cycles
 E2 =    -0.5263585418D+00 EUMP2 =    -0.15263865751801D+03
 CCSD(T)
 CCSD(T)= -0.15266572397D+03

 The electronic state is 1-A'.
 Alpha  occ. eigenvalues --  -20.57306 -20.53740  -1.34561  -1.31099  -0.71947
 Alpha  occ. eigenvalues --   -0.68531  -0.58251  -0.54564  -0.51701  -0.48253
 Alpha virt. eigenvalues --    0.12256   0.16987   0.19160   0.26087   0.52072
 Alpha virt. eigenvalues --    0.54905   0.56386   0.58904   0.69073   0.72370
 Alpha virt. eigenvalues --    0.76361   0.77846   0.80666   0.83471   0.84230

 Mulliken charges:
               1
     1  O   -0.530329
     2  H    0.268787
     3  H    0.250890
     4  O   -0.509222
     5  H    0.261808
     6  H    0.258067
 Sum of Mulliken charges =   0.00000

 Dipole moment (field-independent basis, Debye):
    X=             -1.1464    Y=             -3.3313    Z=             -0.0000  Tot=              3.5230
 Quadrupole moment (field-independent basis, Debye-Ang):
   XX=             -9.1874   YY=             -7.8951   ZZ=            -14.7287
   XY=             -4.4403   XZ=             -0.0000   YZ=              0.0000

 122\MP4DQ=-152.6475543\MP4SDQ=-152.6506304\CCSD=-152.6500245\CCSD(T)=-
 Normal termination of Gaussian 16 at Sun Aug 28 03:48:55 2022.
