 Gaussian 16, Revision A.03,
 Gaussian 16:  ES64L-G16RevA.03 25-Dec-2016

 ------------------
 #p CCSD(T)/cc-pVTZ
 ------------------

 ------------
 H2O_H2O_4178
 ------------
 Symbolic Z-matrix:
 Charge =  0 Multiplicity = 1

                         Standard orientation:
 ---------------------------------------------------------------------
 Center     Atomic      Atomic             Coordinates (Angstroms)
 Number     Number       Type             X           Y           Z
 ---------------------------------------------------------------------
      1          8           0        0.085598   -2.761319    0.000000
      2          1           0        0.085365   -1.778717    0.000000
      3          1           0       -0.843820   -3.080205    0.000000
      4          8           0        0.085598    2.611714    0.000000
      5          1           0        0.277065    3.575481    0.000000
      6          1           0       -0.888173    2.480276    0.000000
 ---------------------------------------------------------------------

 SCF Done:  E(RHF) =  -152.107937148     A.U. after   10 cycles
 E2 =    -0.5258713392D+00 EUMP2 =    -0.15263380848730D+03
 CCSD(T)
 CCSD(T)= -0.15266101383D+03

 The electronic state is 1-A'.
 Alpha  occ. eigenvalues --  -20.56268 -20.55165  -1.33569  -1.32469  -0.70983
 Alpha  occ. eigenvalues --   -0.69864  -0.57039  -0.55926  -0.50681  -0.49585
 Alpha virt. eigenvalues --    0.12709   0.14940   0.19131   0.21627   0.53199
 Alpha virt. eigenvalues --    0.54949   0.56531   0.57811   0.66768   0.68738
 Alpha virt. eigenvalues --    0.78212   0.79278   0.79282   0.81113   0.82380

 Mulliken charges:
               1
     1  O   -0.510843
     2  H    0.258832
     3  H    0.251819
     4  O   -0.511901
     5  H    0.258887
     6  H    0.253206
 Sum of Mulliken charges =  -0.00000

 Dipole moment (field-independent basis, Debye):
    X=             -2.9324    Y=              2.6333    Z=              0.0000  Tot=              3.9412
 Quadrupole moment (field-independent basis, Debye-Ang):
   XX=            -10.3984   YY=             -8.1901   ZZ=            -14.7129
   XY=              2.9076   XZ=              0.0000   YZ=              0.0000

 Normal termination of Gaussian 16 at Sun Aug 28 00:27:26 2022.
