 Gaussian 16, Revision A.03,
 Gaussian 16:  ES64L-G16RevA.03 25-Dec-2016

 ------------------
 #p CCSD(T)/cc-pVTZ
 ------------------

 ------------
 H2O_H2O_2025
 ------------
 Symbolic Z-matrix:
 Charge =  0 Multiplicity = 1

                         Standard orientation:
 ---------------------------------------------------------------------
 Center     Atomic      Atomic             Coordinates (Angstroms)
 Number     Number       Type             X           Y           Z
 ---------------------------------------------------------------------
      1          8           0        0.092949   -1.894598    0.000000
      2          1           0        0.092949   -0.911997    0.000000
      3          1           0       -0.836544   -2.213265    0.000000
      4          8           0        0.092949    1.761811    0.000000
      5          1           0        0.092949    2.744413    0.000000
      6          1           0       -0.836544    1.443144    0.000000
 ---------------------------------------------------------------------

 SCF Done:  E(RHF) =  -152.108795372     A.U. after   10 cycles
 E2 =    -0.5267219137D+00 EUMP2 =    -0.15263551728544D+03
 CCSD(T)
 CCSD(T)= -0.15266265518D+03

 The electronic state is 1-A'.
 Alpha  occ. eigenvalues --  -20.57282 -20.54862  -1.34581  -1.32170  -0.72124
 Alpha  occ. eigenvalues --   -0.69477  -0.58068  -0.55594  -0.51673  -0.49279
 Alpha virt. eigenvalues --    0.11433   0.16074   0.20215   0.25472   0.52149
 Alpha virt. eigenvalues --    0.55475   0.57042   0.57359   0.67996   0.73548
 Alpha virt. eigenvalues --    0.76111   0.78675   0.79847   0.81987   0.82853

 Mulliken charges:
               1
     1  O   -0.514556
     2  H    0.265504
     3  H    0.244493
     4  O   -0.498392
     5  H    0.258158
     6  H    0.244793
 Sum of Mulliken charges =  -0.00000

 Dipole moment (field-independent basis, Debye):
    X=             -3.1334    Y=              2.4756    Z=              0.0000  Tot=              3.9934
 Quadrupole moment (field-independent basis, Debye-Ang):
   XX=            -10.8814   YY=             -9.1543   ZZ=            -14.7134
   XY=              2.1354   XZ=              0.0000   YZ=              0.0000

 Normal termination of Gaussian 16 at Sun Aug 28 03:42:02 2022.
