 Gaussian 16, Revision A.03,
 Gaussian 16:  ES64L-G16RevA.03 25-Dec-2016

 ------------------
 #p CCSD(T)/cc-pVTZ
 ------------------

 ------------
 H2O_H2O_2324
 ------------
 Symbolic Z-matrix:
 Charge =  0 Multiplicity = 1

                         Standard orientation:
 ---------------------------------------------------------------------
 Center     Atomic      Atomic             Coordinates (Angstroms)
 Number     Number       Type             X           Y           Z
 ---------------------------------------------------------------------
      1          8           0       -0.013560    2.018675    0.000000
      2          1           0       -0.010084    1.036080    0.000000
      3          1           0        0.914800    2.340627    0.000000
      4          8           0       -0.013560   -1.859427    0.000000
      5          1           0       -0.996155   -1.862903    0.000000
      6          1           0        0.308393   -2.787787    0.000000
 ---------------------------------------------------------------------

 SCF Done:  E(RHF) =  -152.110993131     A.U. after   10 cycles
 E2 =    -0.5261684189D+00 EUMP2 =    -0.15263716155010D+03
 CCSD(T)
 CCSD(T)= -0.15266426654D+03

 The electronic state is 1-A'.
 Alpha  occ. eigenvalues --  -20.57020 -20.54317  -1.34299  -1.31651  -0.71722
 Alpha  occ. eigenvalues --   -0.69063  -0.57899  -0.55133  -0.51428  -0.48798
 Alpha virt. eigenvalues --    0.12162   0.16523   0.19264   0.25057   0.53846
 Alpha virt. eigenvalues --    0.55027   0.56059   0.58667   0.68623   0.71764
 Alpha virt. eigenvalues --    0.77044   0.79303   0.80112   0.81555   0.83615

 Mulliken charges:
               1
     1  O   -0.526105
     2  H    0.265086
     3  H    0.254749
     4  O   -0.511376
     5  H    0.259349
     6  H    0.258297
 Sum of Mulliken charges =  -0.00000

 Dipole moment (field-independent basis, Debye):
    X=              0.4683    Y=             -2.9349    Z=              0.0000  Tot=              2.9720
 Quadrupole moment (field-independent basis, Debye-Ang):
   XX=             -9.6495   YY=             -8.2234   ZZ=            -14.7230
   XY=              5.4475   XZ=              0.0000   YZ=              0.0000

 Normal termination of Gaussian 16 at Sun Aug 28 06:19:21 2022.
