 Gaussian 16, Revision A.03,
 Gaussian 16:  ES64L-G16RevA.03 25-Dec-2016

 ------------------
 #p CCSD(T)/cc-pVTZ
 ------------------

 ------------
 H2O_H2O_3331
 ------------
 Symbolic Z-matrix:
 Charge =  0 Multiplicity = 1

                         Standard orientation:
 ---------------------------------------------------------------------
 Center     Atomic      Atomic             Coordinates (Angstroms)
 Number     Number       Type             X           Y           Z
 ---------------------------------------------------------------------
      1          8           0        0.076756    2.429665    0.000000
      2          1           0        0.076171    1.447064    0.000000
      3          1           0       -0.852547    2.748885    0.000000
      4          8           0        0.076756   -2.266453    0.000000
      5          1           0        0.452242   -3.174483    0.000000
      6          1           0       -0.903968   -2.327161    0.000000
 ---------------------------------------------------------------------

 SCF Done:  E(RHF) =  -152.108739791     A.U. after   10 cycles
 E2 =    -0.5259358640D+00 EUMP2 =    -0.15263467565522D+03
 CCSD(T)
 CCSD(T)= -0.15266184923D+03

 The electronic state is 1-A'.
 Alpha  occ. eigenvalues --  -20.56512 -20.54821  -1.33803  -1.32131  -0.71217
 Alpha  occ. eigenvalues --   -0.69519  -0.57300  -0.55599  -0.50922  -0.49254
 Alpha virt. eigenvalues --    0.12306   0.15526   0.19385   0.22160   0.53500
 Alpha virt. eigenvalues --    0.55087   0.56400   0.58196   0.67238   0.69243
 Alpha virt. eigenvalues --    0.77985   0.78660   0.79596   0.80506   0.82849

 Mulliken charges:
               1
     1  O   -0.513727
     2  H    0.261718
     3  H    0.250585
     4  O   -0.512558
     5  H    0.259941
     6  H    0.254040
 Sum of Mulliken charges =  -0.00000

 Dipole moment (field-independent basis, Debye):
    X=             -2.6203    Y=             -2.9124    Z=             -0.0000  Tot=              3.9177
 Quadrupole moment (field-independent basis, Debye-Ang):
   XX=             -9.9537   YY=             -7.7102   ZZ=            -14.7158
   XY=             -3.4410   XZ=             -0.0000   YZ=             -0.0000

 Normal termination of Gaussian 16 at Fri Aug 26 21:06:37 2022.
