 Gaussian 16, Revision A.03,
 Gaussian 16:  ES64L-G16RevA.03 25-Dec-2016

 ------------------
 #p CCSD(T)/cc-pVTZ
 ------------------

 ------------
 H2O_H2O_1526
 ------------
 Symbolic Z-matrix:
 Charge =  0 Multiplicity = 1

                         Standard orientation:
 ---------------------------------------------------------------------
 Center     Atomic      Atomic             Coordinates (Angstroms)
 Number     Number       Type             X           Y           Z
 ---------------------------------------------------------------------
      1          8           0        0.090687   -1.698373    0.000000
      2          1           0        0.090569   -0.715771    0.000000
      3          1           0       -0.838768   -2.017151    0.000000
      4          8           0        0.090687    1.559670    0.000000
      5          1           0        0.154834    2.540176    0.000000
      6          1           0       -0.857628    1.302364    0.000000
 ---------------------------------------------------------------------

 SCF Done:  E(RHF) =  -152.109419989     A.U. after   10 cycles
 E2 =    -0.5275417036D+00 EUMP2 =    -0.15263696169276D+03
 CCSD(T)
 CCSD(T)= -0.15266404842D+03

 The electronic state is 1-A'.
 Alpha  occ. eigenvalues --  -20.57832 -20.54318  -1.35185  -1.31675  -0.72888
 Alpha  occ. eigenvalues --   -0.68932  -0.58698  -0.55042  -0.52246  -0.48777
 Alpha virt. eigenvalues --    0.11520   0.16348   0.20339   0.27718   0.50002
 Alpha virt. eigenvalues --    0.54563   0.57640   0.58055   0.68042   0.73969
 Alpha virt. eigenvalues --    0.74472   0.77825   0.80571   0.82017   0.83400

 Mulliken charges:
               1
     1  O   -0.521925
     2  H    0.272460
     3  H    0.239945
     4  O   -0.484146
     5  H    0.250672
     6  H    0.242994
 Sum of Mulliken charges =  -0.00000

 Dipole moment (field-independent basis, Debye):
    X=             -3.0309    Y=              2.6965    Z=              0.0000  Tot=              4.0567
 Quadrupole moment (field-independent basis, Debye-Ang):
   XX=            -10.7501   YY=             -8.9941   ZZ=            -14.7128
   XY=              2.2910   XZ=              0.0000   YZ=              0.0000

 Normal termination of Gaussian 16 at Sat Aug 27 01:08:22 2022.
