 Gaussian 16, Revision A.03,
 Gaussian 16:  ES64L-G16RevA.03 25-Dec-2016

 ------------------
 #p CCSD(T)/cc-pVTZ
 ------------------

 ------------
 H2O_H2O_3236
 ------------
 Symbolic Z-matrix:
 Charge =  0 Multiplicity = 1

                         Standard orientation:
 ---------------------------------------------------------------------
 Center     Atomic      Atomic             Coordinates (Angstroms)
 Number     Number       Type             X           Y           Z
 ---------------------------------------------------------------------
      1          8           0        0.059639    2.397512    0.000000
      2          1           0        0.058414    1.414911    0.000000
      3          1           0       -0.869457    2.717336    0.000000
      4          8           0        0.059639   -2.220064   -0.000000
      5          1           0        0.706592   -2.959630   -0.000000
      6          1           0       -0.849768   -2.592202   -0.000000
 ---------------------------------------------------------------------

 SCF Done:  E(RHF) =  -152.109340235     A.U. after   10 cycles
 E2 =    -0.5259131825D+00 EUMP2 =    -0.15263525341727D+03
 CCSD(T)
 CCSD(T)= -0.15266241156D+03

 The electronic state is 1-A'.
 Alpha  occ. eigenvalues --  -20.56548 -20.54591  -1.33833  -1.31907  -0.71237
 Alpha  occ. eigenvalues --   -0.69298  -0.57356  -0.55387  -0.50958  -0.49036
 Alpha virt. eigenvalues --    0.12547   0.15704   0.19493   0.22186   0.53358
 Alpha virt. eigenvalues --    0.55220   0.56381   0.58306   0.67533   0.69348
 Alpha virt. eigenvalues --    0.77948   0.78912   0.79627   0.79799   0.83093

 Mulliken charges:
               1
     1  O   -0.516660
     2  H    0.263398
     3  H    0.251251
     4  O   -0.514168
     5  H    0.260088
     6  H    0.256092
 Sum of Mulliken charges =  -0.00000

 Dipole moment (field-independent basis, Debye):
    X=             -2.0355    Y=             -3.1763    Z=             -0.0000  Tot=              3.7726
 Quadrupole moment (field-independent basis, Debye-Ang):
   XX=             -9.3641   YY=             -7.1490   ZZ=            -14.7181
   XY=             -4.3131   XZ=             -0.0000   YZ=             -0.0000

 Normal termination of Gaussian 16 at Fri Aug 26 20:33:35 2022.
