 Gaussian 16, Revision A.03,
 Gaussian 16:  ES64L-G16RevA.03 25-Dec-2016

 ------------------
 #p CCSD(T)/cc-pVTZ
 ------------------

 ------------
 H2O_H2O_2062
 ------------
 Symbolic Z-matrix:
 Charge =  0 Multiplicity = 1

                         Standard orientation:
 ---------------------------------------------------------------------
 Center     Atomic      Atomic             Coordinates (Angstroms)
 Number     Number       Type             X           Y           Z
 ---------------------------------------------------------------------
      1          8           0        0.056019    1.929607    0.000000
      2          1           0        0.054314    0.947007    0.000000
      3          1           0       -0.872920    2.249886   -0.000000
      4          8           0        0.056019   -1.750736    0.000000
      5          1           0        0.749616   -2.446744    0.000000
      6          1           0       -0.827311   -2.181123   -0.000000
 ---------------------------------------------------------------------

 SCF Done:  E(RHF) =  -152.111923996     A.U. after   10 cycles
 E2 =    -0.5263942675D+00 EUMP2 =    -0.15263831826390D+03
 CCSD(T)
 CCSD(T)= -0.15266539073D+03

 The electronic state is 1-A'.
 Alpha  occ. eigenvalues --  -20.57304 -20.53783  -1.34557  -1.31136  -0.71946
 Alpha  occ. eigenvalues --   -0.68551  -0.58223  -0.54595  -0.51694  -0.48283
 Alpha virt. eigenvalues --    0.12175   0.16848   0.19230   0.25887   0.51665
 Alpha virt. eigenvalues --    0.55299   0.56285   0.58923   0.68998   0.72231
 Alpha virt. eigenvalues --    0.76430   0.77805   0.80631   0.83450   0.84037

 Mulliken charges:
               1
     1  O   -0.527164
     2  H    0.268938
     3  H    0.247871
     4  O   -0.507489
     5  H    0.261639
     6  H    0.256205
 Sum of Mulliken charges =  -0.00000

 Dipole moment (field-independent basis, Debye):
    X=             -1.8947    Y=             -3.3530    Z=             -0.0000  Tot=              3.8513
 Quadrupole moment (field-independent basis, Debye-Ang):
   XX=             -9.2931   YY=             -7.8531   ZZ=            -14.7272
   XY=             -3.8733   XZ=              0.0000   YZ=              0.0000

 Normal termination of Gaussian 16 at Sun Aug 28 04:01:30 2022.
