 Gaussian 16, Revision A.03,
 Gaussian 16:  ES64L-G16RevA.03 25-Dec-2016

 ------------------
 #p CCSD(T)/cc-pVTZ
 ------------------

 ------------
 H2O_H2O_3219
 ------------
 Symbolic Z-matrix:
 Charge =  0 Multiplicity = 1

                         Standard orientation:
 ---------------------------------------------------------------------
 Center     Atomic      Atomic             Coordinates (Angstroms)
 Number     Number       Type             X           Y           Z
 ---------------------------------------------------------------------
      1          8           0        0.030186    2.386546    0.000000
      2          1           0        0.027868    1.403947    0.000000
      3          1           0       -0.898553    2.707403    0.000000
      4          8           0        0.030186   -2.210936   -0.000000
      5          1           0        0.959894   -2.528977   -0.000000
      6          1           0       -0.572177   -2.987251   -0.000000
 ---------------------------------------------------------------------

 SCF Done:  E(RHF) =  -152.109629876     A.U. after   10 cycles
 E2 =    -0.5258828224D+00 EUMP2 =    -0.15263551269837D+03
 CCSD(T)
 CCSD(T)= -0.15266266567D+03

 The electronic state is 1-A'.
 Alpha  occ. eigenvalues --  -20.56542 -20.54575  -1.33827  -1.31893  -0.71229
 Alpha  occ. eigenvalues --   -0.69294  -0.57363  -0.55382  -0.50955  -0.49028
 Alpha virt. eigenvalues --    0.12566   0.15767   0.19434   0.22359   0.53353
 Alpha virt. eigenvalues --    0.55382   0.56469   0.58221   0.67594   0.69351
 Alpha virt. eigenvalues --    0.77947   0.78842   0.79804   0.79861   0.83129

 Mulliken charges:
               1
     1  O   -0.518774
     2  H    0.263322
     3  H    0.253391
     4  O   -0.515612
     5  H    0.259403
     6  H    0.258269
 Sum of Mulliken charges =  -0.00000

 Dipole moment (field-independent basis, Debye):
    X=             -1.0315    Y=             -3.1438    Z=             -0.0000  Tot=              3.3087
 Quadrupole moment (field-independent basis, Debye-Ang):
   XX=             -9.2294   YY=             -7.2257   ZZ=            -14.7191
   XY=             -5.5625   XZ=             -0.0000   YZ=              0.0000

 Normal termination of Gaussian 16 at Fri Aug 26 20:27:58 2022.
