 Gaussian 16, Revision A.03,
 Gaussian 16:  ES64L-G16RevA.03 25-Dec-2016

 ------------------
 #p CCSD(T)/cc-pVTZ
 ------------------

 ------------
 H2O_H2O_4923
 ------------
 Symbolic Z-matrix:
 Charge =  0 Multiplicity = 1

                         Standard orientation:
 ---------------------------------------------------------------------
 Center     Atomic      Atomic             Coordinates (Angstroms)
 Number     Number       Type             X           Y           Z
 ---------------------------------------------------------------------
      1          8           0       -0.016570    3.058012    0.000000
      2          1           0       -0.014393    2.075413    0.000000
      3          1           0        0.912216    3.378736    0.000000
      4          8           0       -0.016570   -2.894599    0.000000
      5          1           0       -0.996923   -2.961034    0.000000
      6          1           0        0.364213   -3.800419    0.000000
 ---------------------------------------------------------------------

 SCF Done:  E(RHF) =  -152.108259825     A.U. after   10 cycles
 E2 =    -0.5258006905D+00 EUMP2 =    -0.15263406051600D+03
 CCSD(T)
 CCSD(T)= -0.15266126351D+03

 The electronic state is 1-A'.
 Alpha  occ. eigenvalues --  -20.56114 -20.55132  -1.33417  -1.32438  -0.70823
 Alpha  occ. eigenvalues --   -0.69845  -0.56903  -0.55908  -0.50535  -0.49560
 Alpha virt. eigenvalues --    0.13453   0.14724   0.19558   0.21002   0.53616
 Alpha virt. eigenvalues --    0.54780   0.56717   0.57708   0.67060   0.68422
 Alpha virt. eigenvalues --    0.78348   0.79302   0.79727   0.80725   0.81956

 Mulliken charges:
               1
     1  O   -0.513523
     2  H    0.258683
     3  H    0.254809
     4  O   -0.513965
     5  H    0.256631
     6  H    0.257365
 Sum of Mulliken charges =  -0.00000

 Dipole moment (field-independent basis, Debye):
    X=              0.5701    Y=             -2.8581    Z=              0.0000  Tot=              2.9144
 Quadrupole moment (field-independent basis, Debye-Ang):
   XX=             -9.5442   YY=             -7.0377   ZZ=            -14.7142
   XY=              8.0300   XZ=              0.0000   YZ=              0.0000

 Normal termination of Gaussian 16 at Sun Aug 28 06:56:17 2022.
