 Gaussian 16, Revision A.03,
 Gaussian 16:  ES64L-G16RevA.03 25-Dec-2016

 ------------------
 #p CCSD(T)/cc-pVTZ
 ------------------

 ------------
 H2O_H2O_4948
 ------------
 Symbolic Z-matrix:
 Charge =  0 Multiplicity = 1

                         Standard orientation:
 ---------------------------------------------------------------------
 Center     Atomic      Atomic             Coordinates (Angstroms)
 Number     Number       Type             X           Y           Z
 ---------------------------------------------------------------------
      1          8           0       -0.016569    3.067984    0.000000
      2          1           0       -0.014400    2.085385    0.000000
      3          1           0        0.912218    3.388701    0.000000
      4          8           0       -0.016569   -2.904571    0.000000
      5          1           0       -0.996923   -2.970999    0.000000
      6          1           0        0.364207   -3.810394    0.000000
 ---------------------------------------------------------------------

 SCF Done:  E(RHF) =  -152.108251132     A.U. after   10 cycles
 E2 =    -0.5258009028D+00 EUMP2 =    -0.15263405203513D+03
 CCSD(T)
 CCSD(T)= -0.15266125526D+03

 The electronic state is 1-A'.
 Alpha  occ. eigenvalues --  -20.56111 -20.55136  -1.33414  -1.32442  -0.70820
 Alpha  occ. eigenvalues --   -0.69848  -0.56899  -0.55912  -0.50532  -0.49564
 Alpha virt. eigenvalues --    0.13464   0.14715   0.19565   0.20988   0.53624
 Alpha virt. eigenvalues --    0.54774   0.56720   0.57704   0.67071   0.68410
 Alpha virt. eigenvalues --    0.78351   0.79298   0.79735   0.80724   0.81939

 Mulliken charges:
               1
     1  O   -0.513481
     2  H    0.258644
     3  H    0.254808
     4  O   -0.513916
     5  H    0.256610
     6  H    0.257335
 Sum of Mulliken charges =  -0.00000

 Dipole moment (field-independent basis, Debye):
    X=              0.5701    Y=             -2.8576    Z=              0.0000  Tot=              2.9139
 Quadrupole moment (field-independent basis, Debye-Ang):
   XX=             -9.5442   YY=             -7.0273   ZZ=            -14.7142
   XY=              8.0562   XZ=              0.0000   YZ=              0.0000

 Normal termination of Gaussian 16 at Sun Aug 28 07:10:55 2022.
