 Gaussian 16, Revision A.03,
 Gaussian 16:  ES64L-G16RevA.03 25-Dec-2016

 ------------------
 #p CCSD(T)/cc-pVTZ
 ------------------

 -----------
 H2O_H2O_914
 -----------
 Symbolic Z-matrix:
 Charge =  0 Multiplicity = 1

                         Standard orientation:
 ---------------------------------------------------------------------
 Center     Atomic      Atomic             Coordinates (Angstroms)
 Number     Number       Type             X           Y           Z
 ---------------------------------------------------------------------
      1          8           0        0.048680    1.471671    0.000000
      2          1           0        0.045954    0.489073    0.000000
      3          1           0       -0.879925    1.792915    0.000000
      4          8           0        0.048680   -1.291387   -0.000000
      5          1           0        0.826567   -1.891717   -0.000000
      6          1           0       -0.771480   -1.832538   -0.000000
 ---------------------------------------------------------------------

 SCF Done:  E(RHF) =  -152.112499492     A.U. after   10 cycles
 E2 =    -0.5290565316D+00 EUMP2 =    -0.15264155602391D+03
 CCSD(T)
 CCSD(T)= -0.15266834098D+03

 The electronic state is 1-A'.
 Alpha  occ. eigenvalues --  -20.59049 -20.51172  -1.36641  -1.28961  -0.73768
 Alpha  occ. eigenvalues --   -0.68380  -0.59705  -0.53661  -0.51856  -0.46051
 Alpha virt. eigenvalues --    0.11731   0.17967   0.19107   0.32403   0.48178
 Alpha virt. eigenvalues --    0.54526   0.57681   0.61183   0.69544   0.71629
 Alpha virt. eigenvalues --    0.72600   0.77623   0.82245   0.82782   0.84736

 Mulliken charges:
               1
     1  O   -0.575053
     2  H    0.302865
     3  H    0.237699
     4  O   -0.486978
     5  H    0.264897
     6  H    0.256570
 Sum of Mulliken charges =  -0.00000

 Dipole moment (field-independent basis, Debye):
    X=             -1.5987    Y=             -3.8676    Z=             -0.0000  Tot=              4.1850
 Quadrupole moment (field-independent basis, Debye-Ang):
   XX=             -9.1800   YY=             -8.8686   ZZ=            -14.7207
   XY=             -3.3317   XZ=             -0.0000   YZ=             -0.0000

 Normal termination of Gaussian 16 at Fri Aug 26 21:18:41 2022.
