 Gaussian 16, Revision A.03,
 Gaussian 16:  ES64L-G16RevA.03 25-Dec-2016

 ------------------
 #p CCSD(T)/cc-pVTZ
 ------------------

 -----------
 H2O_H2O_828
 -----------
 Symbolic Z-matrix:
 Charge =  0 Multiplicity = 1

                         Standard orientation:
 ---------------------------------------------------------------------
 Center     Atomic      Atomic             Coordinates (Angstroms)
 Number     Number       Type             X           Y           Z
 ---------------------------------------------------------------------
      1          8           0        0.085615   -1.425060    0.000000
      2          1           0        0.085153   -0.442459    0.000000
      3          1           0       -0.843728   -1.744163    0.000000
      4          8           0        0.085615    1.275496    0.000000
      5          1           0        0.276859    2.239307    0.000000
      6          1           0       -0.888125    1.143829    0.000000
 ---------------------------------------------------------------------

 SCF Done:  E(RHF) =  -152.105812735     A.U. after   10 cycles
 E2 =    -0.5303133836D+00 EUMP2 =    -0.15263612611892D+03
 CCSD(T)
 CCSD(T)= -0.15266294408D+03

 The electronic state is 1-A'.
 Alpha  occ. eigenvalues --  -20.59131 -20.52318  -1.36982  -1.30025  -0.75118
 Alpha  occ. eigenvalues --   -0.68133  -0.59723  -0.53807  -0.53018  -0.47067
 Alpha virt. eigenvalues --    0.11422   0.16614   0.20382   0.31764   0.48256
 Alpha virt. eigenvalues --    0.53286   0.58590   0.61690   0.69090   0.71857
 Alpha virt. eigenvalues --    0.74236   0.77866   0.79923   0.82648   0.83380

 Mulliken charges:
               1
     1  O   -0.552753
     2  H    0.290580
     3  H    0.227320
     4  O   -0.435325
     5  H    0.234785
     6  H    0.235393
 Sum of Mulliken charges =  -0.00000

 Dipole moment (field-independent basis, Debye):
    X=             -2.7957    Y=              3.2729    Z=              0.0000  Tot=              4.3044
 Quadrupole moment (field-independent basis, Debye-Ang):
   XX=            -10.4483   YY=             -9.0816   ZZ=            -14.6863
   XY=              2.4931   XZ=              0.0000   YZ=              0.0000

 Normal termination of Gaussian 16 at Fri Aug 26 20:45:49 2022.
