 Gaussian 16, Revision A.03,
 Gaussian 16:  ES64L-G16RevA.03 25-Dec-2016

 ------------------
 #p CCSD(T)/cc-pVTZ
 ------------------

 -----------
 H2O_H2O_305
 -----------
 Symbolic Z-matrix:
 Charge =  0 Multiplicity = 1

                         Standard orientation:
 ---------------------------------------------------------------------
 Center     Atomic      Atomic             Coordinates (Angstroms)
 Number     Number       Type             X           Y           Z
 ---------------------------------------------------------------------
      1          8           0        0.079891   -1.220768    0.000000
      2          1           0        0.078917   -0.238167    0.000000
      3          1           0       -0.849286   -1.540355    0.000000
      4          8           0        0.079891    1.061785    0.000000
      5          1           0        0.394815    1.992553    0.000000
      6          1           0       -0.902703    1.057832    0.000000
 ---------------------------------------------------------------------

 SCF Done:  E(RHF) =  -152.077951964     A.U. after   11 cycles
 E2 =    -0.5348121274D+00 EUMP2 =    -0.15261276409089D+03
 CCSD(T)
 CCSD(T)= -0.15263885031D+03

 The electronic state is 1-A'.
 Alpha  occ. eigenvalues --  -20.60853 -20.48463  -1.40591  -1.27248  -0.78986
 Alpha  occ. eigenvalues --   -0.70887  -0.57683  -0.56429  -0.49091  -0.44098
 Alpha virt. eigenvalues --    0.10882   0.16368   0.20946   0.32640   0.48997
 Alpha virt. eigenvalues --    0.52230   0.59638   0.64844   0.71784   0.72706
 Alpha virt. eigenvalues --    0.76181   0.77368   0.79752   0.84013   0.85156

 Mulliken charges:
               1
     1  O   -0.602991
     2  H    0.287703
     3  H    0.206799
     4  O   -0.358635
     5  H    0.231001
     6  H    0.236123
 Sum of Mulliken charges =  -0.00000

 Dipole moment (field-independent basis, Debye):
    X=             -2.5078    Y=              4.1012    Z=              0.0000  Tot=              4.8072
 Quadrupole moment (field-independent basis, Debye-Ang):
   XX=            -10.0976   YY=             -9.6142   ZZ=            -14.6051
   XY=              2.5369   XZ=              0.0000   YZ=              0.0000

 Normal termination of Gaussian 16 at Fri Aug 26 17:18:27 2022.
