 Gaussian 16, Revision A.03,
 Gaussian 16:  ES64L-G16RevA.03 25-Dec-2016

 ------------------
 #p CCSD(T)/cc-pVTZ
 ------------------

 ------------
 H2O_H2O_1231
 ------------
 Symbolic Z-matrix:
 Charge =  0 Multiplicity = 1

                         Standard orientation:
 ---------------------------------------------------------------------
 Center     Atomic      Atomic             Coordinates (Angstroms)
 Number     Number       Type             X           Y           Z
 ---------------------------------------------------------------------
      1          8           0        0.076783    1.591998   -0.000000
      2          1           0        0.075874    0.609397   -0.000000
      3          1           0       -0.852414    1.911524   -0.000000
      4          8           0        0.076783   -1.428837    0.000000
      5          1           0        0.451969   -2.336989    0.000000
      6          1           0       -0.903961   -1.489220    0.000000
 ---------------------------------------------------------------------

 SCF Done:  E(RHF) =  -152.111768514     A.U. after   10 cycles
 E2 =    -0.5280877458D+00 EUMP2 =    -0.15263985625931D+03
 CCSD(T)
 CCSD(T)= -0.15266682577D+03

 The electronic state is 1-A'.
 Alpha  occ. eigenvalues --  -20.58338 -20.52995  -1.35744  -1.30484  -0.73277
 Alpha  occ. eigenvalues --   -0.68198  -0.59338  -0.53722  -0.52806  -0.47594
 Alpha virt. eigenvalues --    0.11694   0.16917   0.19703   0.30019   0.48804
 Alpha virt. eigenvalues --    0.54784   0.58198   0.58695   0.69573   0.73169
 Alpha virt. eigenvalues --    0.74476   0.76653   0.81667   0.82165   0.84069

 Mulliken charges:
               1
     1  O   -0.541259
     2  H    0.283841
     3  H    0.237537
     4  O   -0.478455
     5  H    0.248629
     6  H    0.249707
 Sum of Mulliken charges =  -0.00000

 Dipole moment (field-independent basis, Debye):
    X=             -2.5493    Y=             -3.3006    Z=              0.0000  Tot=              4.1705
 Quadrupole moment (field-independent basis, Debye-Ang):
   XX=             -9.9876   YY=             -8.6625   ZZ=            -14.7204
   XY=             -2.9442   XZ=              0.0000   YZ=             -0.0000

 Normal termination of Gaussian 16 at Fri Aug 26 23:16:20 2022.
