 Gaussian 16, Revision A.03,
 Gaussian 16:  ES64L-G16RevA.03 25-Dec-2016

 ------------------
 #p CCSD(T)/cc-pVTZ
 ------------------

 ------------
 H2O_H2O_2626
 ------------
 Symbolic Z-matrix:
 Charge =  0 Multiplicity = 1

                         Standard orientation:
 ---------------------------------------------------------------------
 Center     Atomic      Atomic             Coordinates (Angstroms)
 Number     Number       Type             X           Y           Z
 ---------------------------------------------------------------------
      1          8           0        0.090685   -2.137140    0.000000
      2          1           0        0.090592   -1.154539    0.000000
      3          1           0       -0.838778   -2.455894    0.000000
      4          8           0        0.090685    1.998433    0.000000
      5          1           0        0.154859    2.978937    0.000000
      6          1           0       -0.857635    1.741151    0.000000
 ---------------------------------------------------------------------

 SCF Done:  E(RHF) =  -152.108553939     A.U. after   10 cycles
 E2 =    -0.5262179364D+00 EUMP2 =    -0.15263477187499D+03
 CCSD(T)
 CCSD(T)= -0.15266193412D+03

 The electronic state is 1-A'.
 Alpha  occ. eigenvalues --  -20.56847 -20.54970  -1.34137  -1.32274  -0.71586
 Alpha  occ. eigenvalues --   -0.69641  -0.57618  -0.55723  -0.51244  -0.49390
 Alpha virt. eigenvalues --    0.11536   0.15810   0.19676   0.23793   0.53903
 Alpha virt. eigenvalues --    0.55353   0.56493   0.57992   0.68474   0.70117
 Alpha virt. eigenvalues --    0.77512   0.78754   0.79524   0.80511   0.83012

 Mulliken charges:
               1
     1  O   -0.512598
     2  H    0.262212
     3  H    0.247861
     4  O   -0.505962
     5  H    0.259432
     6  H    0.249055
 Sum of Mulliken charges =  -0.00000

 Dipole moment (field-independent basis, Debye):
    X=             -3.0788    Y=              2.5174    Z=              0.0000  Tot=              3.9770
 Quadrupole moment (field-independent basis, Debye-Ang):
   XX=            -10.7199   YY=             -8.9363   ZZ=            -14.7141
   XY=              2.3500   XZ=              0.0000   YZ=              0.0000

 Normal termination of Gaussian 16 at Fri Aug 26 16:07:56 2022.
