 Gaussian 16, Revision A.03,
 Gaussian 16:  ES64L-G16RevA.03 25-Dec-2016

 ------------------
 #p CCSD(T)/cc-pVTZ
 ------------------

 ------------
 H2O_H2O_4953
 ------------
 Symbolic Z-matrix:
 Charge =  0 Multiplicity = 1

                         Standard orientation:
 ---------------------------------------------------------------------
 Center     Atomic      Atomic             Coordinates (Angstroms)
 Number     Number       Type             X           Y           Z
 ---------------------------------------------------------------------
      1          8           0        0.085596   -3.070451    0.000000
      2          1           0        0.085388   -2.087849    0.000000
      3          1           0       -0.843830   -3.389314    0.000000
      4          8           0        0.085596    2.920842    0.000000
      5          1           0        0.277088    3.884604    0.000000
      6          1           0       -0.888178    2.789428    0.000000
 ---------------------------------------------------------------------

 SCF Done:  E(RHF) =  -152.107764681     A.U. after   10 cycles
 E2 =    -0.5258504335D+00 EUMP2 =    -0.15263361511420D+03
 CCSD(T)
 CCSD(T)= -0.15266082786D+03

 The electronic state is 1-A'.
 Alpha  occ. eigenvalues --  -20.56132 -20.55268  -1.33434  -1.32570  -0.70845
 Alpha  occ. eigenvalues --   -0.69969  -0.56898  -0.56025  -0.50546  -0.49685
 Alpha virt. eigenvalues --    0.13301   0.14588   0.19334   0.21036   0.53537
 Alpha virt. eigenvalues --    0.54709   0.56645   0.57603   0.67109   0.68322
 Alpha virt. eigenvalues --    0.78340   0.79186   0.79733   0.80823   0.81748

 Mulliken charges:
               1
     1  O   -0.510405
     2  H    0.257766
     3  H    0.252618
     4  O   -0.511218
     5  H    0.257717
     6  H    0.253522
 Sum of Mulliken charges =  -0.00000

 Dipole moment (field-independent basis, Debye):
    X=             -2.9385    Y=              2.6170    Z=              0.0000  Tot=              3.9349
 Quadrupole moment (field-independent basis, Debye-Ang):
   XX=            -10.3958   YY=             -8.0245   ZZ=            -14.7125
   XY=              2.9898   XZ=              0.0000   YZ=              0.0000

 Normal termination of Gaussian 16 at Sun Aug 28 07:12:36 2022.
