 Gaussian 16, Revision A.03,
 Gaussian 16:  ES64L-G16RevA.03 25-Dec-2016

 ------------------
 #p CCSD(T)/cc-pVTZ
 ------------------

 ------------
 H2O_H2O_3932
 ------------
 Symbolic Z-matrix:
 Charge =  0 Multiplicity = 1

                         Standard orientation:
 ---------------------------------------------------------------------
 Center     Atomic      Atomic             Coordinates (Angstroms)
 Number     Number       Type             X           Y           Z
 ---------------------------------------------------------------------
      1          8           0        0.073528    2.671024    0.000000
      2          1           0        0.072891    1.688423    0.000000
      3          1           0       -0.855758    2.990293    0.000000
      4          8           0        0.073528   -2.504069   -0.000000
      5          1           0        0.507550   -3.385620   -0.000000
      6          1           0       -0.901133   -2.628739   -0.000000
 ---------------------------------------------------------------------

 SCF Done:  E(RHF) =  -152.108384758     A.U. after   10 cycles
 E2 =    -0.5258595203D+00 EUMP2 =    -0.15263424427829D+03
 CCSD(T)
 CCSD(T)= -0.15266143638D+03

 The electronic state is 1-A'.
 Alpha  occ. eigenvalues --  -20.56319 -20.54945  -1.33618  -1.32252  -0.71027
 Alpha  occ. eigenvalues --   -0.69647  -0.57106  -0.55719  -0.50734  -0.49373
 Alpha virt. eigenvalues --    0.12811   0.15148   0.19425   0.21478   0.53308
 Alpha virt. eigenvalues --    0.55004   0.56523   0.57884   0.66702   0.69031
 Alpha virt. eigenvalues --    0.78162   0.78986   0.79483   0.80485   0.82740

 Mulliken charges:
               1
     1  O   -0.512902
     2  H    0.260670
     3  H    0.251778
     4  O   -0.513641
     5  H    0.259402
     6  H    0.254693
 Sum of Mulliken charges =  -0.00000

 Dipole moment (field-independent basis, Debye):
    X=             -2.5168    Y=             -2.9489    Z=             -0.0000  Tot=              3.8769
 Quadrupole moment (field-independent basis, Debye-Ang):
   XX=             -9.8108   YY=             -7.2733   ZZ=            -14.7146
   XY=             -3.7992   XZ=             -0.0000   YZ=              0.0000

 Normal termination of Gaussian 16 at Sat Aug 27 00:32:35 2022.
