 Gaussian 16, Revision A.03,
 Gaussian 16:  ES64L-G16RevA.03 25-Dec-2016

 ------------------
 #p CCSD(T)/cc-pVTZ
 ------------------

 ------------
 H2O_H2O_4833
 ------------
 Symbolic Z-matrix:
 Charge =  0 Multiplicity = 1

                         Standard orientation:
 ---------------------------------------------------------------------
 Center     Atomic      Atomic             Coordinates (Angstroms)
 Number     Number       Type             X           Y           Z
 ---------------------------------------------------------------------
      1          8           0        0.070181    3.031816   -0.000000
      2          1           0        0.069526    2.049215   -0.000000
      3          1           0       -0.859099    3.351102   -0.000000
      4          8           0        0.070181   -2.861543    0.000000
      5          1           0        0.560915   -3.712828    0.000000
      6          1           0       -0.894242   -3.049673    0.000000
 ---------------------------------------------------------------------

 SCF Done:  E(RHF) =  -152.108059326     A.U. after   10 cycles
 E2 =    -0.5258278806D+00 EUMP2 =    -0.15263388720660D+03
 CCSD(T)
 CCSD(T)= -0.15266109323D+03

 The electronic state is 1-A'.
 Alpha  occ. eigenvalues --  -20.56139 -20.55095  -1.33441  -1.32400  -0.70849
 Alpha  occ. eigenvalues --   -0.69799  -0.56919  -0.55862  -0.50557  -0.49518
 Alpha virt. eigenvalues --    0.13421   0.14729   0.19613   0.20932   0.53627
 Alpha virt. eigenvalues --    0.54793   0.56676   0.57717   0.67033   0.68500
 Alpha virt. eigenvalues --    0.78328   0.79345   0.79671   0.80623   0.82158

 Mulliken charges:
               1
     1  O   -0.511990
     2  H    0.259154
     3  H    0.252793
     4  O   -0.512819
     5  H    0.258021
     6  H    0.254841
 Sum of Mulliken charges =   0.00000

 Dipole moment (field-independent basis, Debye):
    X=             -2.4086    Y=             -2.9813    Z=              0.0000  Tot=              3.8327
 Quadrupole moment (field-independent basis, Debye-Ang):
   XX=             -9.6785   YY=             -6.6433   ZZ=            -14.7136
   XY=             -4.3012   XZ=              0.0000   YZ=             -0.0000

 Normal termination of Gaussian 16 at Sun Aug 28 06:15:23 2022.
