 Gaussian 16, Revision A.03,
 Gaussian 16:  ES64L-G16RevA.03 25-Dec-2016

 ------------------
 #p CCSD(T)/cc-pVTZ
 ------------------

 ------------
 H2O_H2O_4378
 ------------
 Symbolic Z-matrix:
 Charge =  0 Multiplicity = 1

                         Standard orientation:
 ---------------------------------------------------------------------
 Center     Atomic      Atomic             Coordinates (Angstroms)
 Number     Number       Type             X           Y           Z
 ---------------------------------------------------------------------
      1          8           0        0.085597   -2.841094    0.000000
      2          1           0        0.085372   -1.858493    0.000000
      3          1           0       -0.843823   -3.159974    0.000000
      4          8           0        0.085597    2.691489    0.000000
      5          1           0        0.277072    3.655255    0.000000
      6          1           0       -0.888175    2.560058    0.000000
 ---------------------------------------------------------------------

 SCF Done:  E(RHF) =  -152.107879507     A.U. after   10 cycles
 E2 =    -0.5258625387D+00 EUMP2 =    -0.15263374204602D+03
 CCSD(T)
 CCSD(T)= -0.15266095015D+03

 The electronic state is 1-A'.
 Alpha  occ. eigenvalues --  -20.56227 -20.55195  -1.33528  -1.32499  -0.70941
 Alpha  occ. eigenvalues --   -0.69895  -0.56997  -0.55955  -0.50641  -0.49614
 Alpha virt. eigenvalues --    0.12885   0.14835   0.19160   0.21463   0.53273
 Alpha virt. eigenvalues --    0.54889   0.56560   0.57752   0.66842   0.68619
 Alpha virt. eigenvalues --    0.78251   0.79254   0.79461   0.81074   0.82150

 Mulliken charges:
               1
     1  O   -0.510712
     2  H    0.258535
     3  H    0.252063
     4  O   -0.511764
     5  H    0.258572
     6  H    0.253307
 Sum of Mulliken charges =  -0.00000

 Dipole moment (field-independent basis, Debye):
    X=             -2.9342    Y=              2.6281    Z=              0.0000  Tot=              3.9391
 Quadrupole moment (field-independent basis, Debye-Ang):
   XX=            -10.3975   YY=             -8.1484   ZZ=            -14.7127
   XY=              2.9288   XZ=              0.0000   YZ=              0.0000

 Normal termination of Gaussian 16 at Sun Aug 28 02:22:19 2022.
