 Gaussian 16, Revision A.03,
 Gaussian 16:  ES64L-G16RevA.03 25-Dec-2016

 ------------------
 #p CCSD(T)/cc-pVTZ
 ------------------

 -----------
 H2O_H2O_236
 -----------
 Symbolic Z-matrix:
 Charge =  0 Multiplicity = 1

                         Standard orientation:
 ---------------------------------------------------------------------
 Center     Atomic      Atomic             Coordinates (Angstroms)
 Number     Number       Type             X           Y           Z
 ---------------------------------------------------------------------
      1          8           0        0.059758    1.200802   -0.000000
      2          1           0        0.057215    0.218204   -0.000000
      3          1           0       -0.868908    1.521872   -0.000000
      4          8           0        0.059758   -1.023514    0.000000
      5          1           0        0.705718   -1.763947    0.000000
      6          1           0       -0.850147   -1.394432    0.000000
 ---------------------------------------------------------------------

 SCF Done:  E(RHF) =  -152.074078591     A.U. after   11 cycles
 E2 =    -0.5344325766D+00 EUMP2 =    -0.15260851116789D+03
 CCSD(T)
 CCSD(T)= -0.15263441296D+03

 The electronic state is 1-A'.
 Alpha  occ. eigenvalues --  -20.61291 -20.46456  -1.41268  -1.25817  -0.77709
 Alpha  occ. eigenvalues --   -0.74472  -0.57098  -0.56370  -0.46916  -0.42538
 Alpha virt. eigenvalues --    0.10713   0.16673   0.20768   0.33065   0.47850
 Alpha virt. eigenvalues --    0.52557   0.61989   0.63855   0.71542   0.71668
 Alpha virt. eigenvalues --    0.78226   0.79453   0.80639   0.82882   0.84661

 Mulliken charges:
               1
     1  O   -0.637969
     2  H    0.301381
     3  H    0.208744
     4  O   -0.363139
     5  H    0.246464
     6  H    0.244518
 Sum of Mulliken charges =  -0.00000

 Dipole moment (field-independent basis, Debye):
    X=             -1.8489    Y=             -4.6643    Z=              0.0000  Tot=              5.0174
 Quadrupole moment (field-independent basis, Debye-Ang):
   XX=             -9.3381   YY=             -9.8606   ZZ=            -14.6083
   XY=             -2.7822   XZ=              0.0000   YZ=             -0.0000

 Normal termination of Gaussian 16 at Fri Aug 26 16:49:00 2022.
