 Gaussian 16, Revision A.03,
 Gaussian 16:  ES64L-G16RevA.03 25-Dec-2016

 ------------------
 #p CCSD(T)/cc-pVTZ
 ------------------

 ------------
 H2O_H2O_2152
 ------------
 Symbolic Z-matrix:
 Charge =  0 Multiplicity = 1

                         Standard orientation:
 ---------------------------------------------------------------------
 Center     Atomic      Atomic             Coordinates (Angstroms)
 Number     Number       Type             X           Y           Z
 ---------------------------------------------------------------------
      1          8           0        0.088234   -1.950719    0.000000
      2          1           0        0.088021   -0.968117    0.000000
      3          1           0       -0.841190   -2.269587    0.000000
      4          8           0        0.088234    1.806406    0.000000
      5          1           0        0.216278    2.780629    0.000000
      6          1           0       -0.874859    1.611580    0.000000
 ---------------------------------------------------------------------

 SCF Done:  E(RHF) =  -152.109390718     A.U. after   10 cycles
 E2 =    -0.5265194374D+00 EUMP2 =    -0.15263591015561D+03
 CCSD(T)
 CCSD(T)= -0.15266303662D+03

 The electronic state is 1-A'.
 Alpha  occ. eigenvalues --  -20.57184 -20.54663  -1.34471  -1.31978  -0.71951
 Alpha  occ. eigenvalues --   -0.69325  -0.57987  -0.55416  -0.51576  -0.49096
 Alpha virt. eigenvalues --    0.11602   0.16143   0.19896   0.25032   0.52503
 Alpha virt. eigenvalues --    0.55775   0.56695   0.57587   0.68449   0.72915
 Alpha virt. eigenvalues --    0.76593   0.79203   0.79928   0.81276   0.83249

 Mulliken charges:
               1
     1  O   -0.516154
     2  H    0.265264
     3  H    0.245505
     4  O   -0.501970
     5  H    0.258820
     6  H    0.248534
 Sum of Mulliken charges =  -0.00000

 Dipole moment (field-independent basis, Debye):
    X=             -2.9814    Y=              2.6760    Z=              0.0000  Tot=              4.0063
 Quadrupole moment (field-independent basis, Debye-Ang):
   XX=            -10.5802   YY=             -8.7585   ZZ=            -14.7167
   XY=              2.5129   XZ=              0.0000   YZ=              0.0000

 524092\MP4DQ=-152.6448239\MP4SDQ=-152.647923\CCSD=-152.647312\CCSD(T)=
 Normal termination of Gaussian 16 at Sun Aug 28 04:49:14 2022.
