 Gaussian 16, Revision A.03,
 Gaussian 16:  ES64L-G16RevA.03 25-Dec-2016

 ------------------
 #p CCSD(T)/cc-pVTZ
 ------------------

 -----------
 H2O_H2O_132
 -----------
 Symbolic Z-matrix:
 Charge =  0 Multiplicity = 1

                         Standard orientation:
 ---------------------------------------------------------------------
 Center     Atomic      Atomic             Coordinates (Angstroms)
 Number     Number       Type             X           Y           Z
 ---------------------------------------------------------------------
      1          8           0        0.073605   -1.155224    0.000000
      2          1           0        0.072067   -0.172624    0.000000
      3          1           0       -0.855389   -1.475344    0.000000
      4          8           0        0.073605    0.988404    0.000000
      5          1           0        0.506819    1.870352    0.000000
      6          1           0       -0.901170    1.112179    0.000000
 ---------------------------------------------------------------------

 SCF Done:  E(RHF) =  -152.053193668     A.U. after   11 cycles
 E2 =    -0.5364050824D+00 EUMP2 =    -0.15258959875070D+03
 CCSD(T)
 CCSD(T)= -0.15261529558D+03

 The electronic state is 1-A'.
 Alpha  occ. eigenvalues --  -20.61656 -20.46085  -1.42798  -1.25695  -0.80694
 Alpha  occ. eigenvalues --   -0.73756  -0.57872  -0.55759  -0.46537  -0.42363
 Alpha virt. eigenvalues --    0.10528   0.16125   0.21293   0.32325   0.49065
 Alpha virt. eigenvalues --    0.51853   0.60266   0.64506   0.71170   0.72026
 Alpha virt. eigenvalues --    0.77330   0.78855   0.81216   0.84652   0.86600

 Mulliken charges:
               1
     1  O   -0.634138
     2  H    0.283154
     3  H    0.197448
     4  O   -0.320162
     5  H    0.233363
     6  H    0.240335
 Sum of Mulliken charges =  -0.00000

 Dipole moment (field-independent basis, Debye):
    X=             -2.2564    Y=              4.5976    Z=              0.0000  Tot=              5.1214
 Quadrupole moment (field-independent basis, Debye-Ang):
   XX=             -9.7838   YY=             -9.9486   ZZ=            -14.5609
   XY=              2.5802   XZ=              0.0000   YZ=              0.0000

 Normal termination of Gaussian 16 at Fri Aug 26 16:05:32 2022.
