 Gaussian 16, Revision A.03,
 Gaussian 16:  ES64L-G16RevA.03 25-Dec-2016

 ------------------
 #p CCSD(T)/cc-pVTZ
 ------------------

 ------------
 H2O_H2O_2195
 ------------
 Symbolic Z-matrix:
 Charge =  0 Multiplicity = 1

                         Standard orientation:
 ---------------------------------------------------------------------
 Center     Atomic      Atomic             Coordinates (Angstroms)
 Number     Number       Type             X           Y           Z
 ---------------------------------------------------------------------
      1          8           0        0.026700    1.976390   -0.000000
      2          1           0        0.023723    0.993794   -0.000000
      3          1           0       -0.901823    2.297872   -0.000000
      4          8           0        0.026700   -1.803192    0.000000
      5          1           0        0.975046   -2.060383    0.000000
      6          1           0       -0.524146   -2.616871    0.000000
 ---------------------------------------------------------------------

 SCF Done:  E(RHF) =  -152.111752773     A.U. after   10 cycles
 E2 =    -0.5262395075D+00 EUMP2 =    -0.15263799228081D+03
 CCSD(T)
 CCSD(T)= -0.15266507506D+03

 The electronic state is 1-A'.
 Alpha  occ. eigenvalues --  -20.57156 -20.53965  -1.34418  -1.31311  -0.71816
 Alpha  occ. eigenvalues --   -0.68730  -0.58067  -0.54789  -0.51555  -0.48464
 Alpha virt. eigenvalues --    0.12267   0.16780   0.19214   0.25417   0.52767
 Alpha virt. eigenvalues --    0.55083   0.56315   0.58741   0.68970   0.72037
 Alpha virt. eigenvalues --    0.76773   0.78466   0.80436   0.83380   0.83564

 Mulliken charges:
               1
     1  O   -0.528251
     2  H    0.267278
     3  H    0.252378
     4  O   -0.510356
     5  H    0.260990
     6  H    0.257960
 Sum of Mulliken charges =  -0.00000

 Dipole moment (field-independent basis, Debye):
    X=             -0.9079    Y=             -3.2203    Z=              0.0000  Tot=              3.3458
 Quadrupole moment (field-independent basis, Debye-Ang):
   XX=             -9.2891   YY=             -7.8959   ZZ=            -14.7263
   XY=             -4.7885   XZ=              0.0000   YZ=             -0.0000

 Normal termination of Gaussian 16 at Sun Aug 28 05:21:10 2022.
