 Gaussian 16, Revision A.03,
 Gaussian 16:  ES64L-G16RevA.03 25-Dec-2016

 ------------------
 #p CCSD(T)/cc-pVTZ
 ------------------

 ------------
 H2O_H2O_3124
 ------------
 Symbolic Z-matrix:
 Charge =  0 Multiplicity = 1

                         Standard orientation:
 ---------------------------------------------------------------------
 Center     Atomic      Atomic             Coordinates (Angstroms)
 Number     Number       Type             X           Y           Z
 ---------------------------------------------------------------------
      1          8           0       -0.013520    2.337782    0.000000
      2          1           0       -0.010535    1.355185    0.000000
      3          1           0        0.915001    2.659270    0.000000
      4          8           0       -0.013520   -2.178521    0.000000
      5          1           0       -0.996117   -2.181504    0.000000
      6          1           0        0.307968   -3.107042    0.000000
 ---------------------------------------------------------------------

 SCF Done:  E(RHF) =  -152.109540685     A.U. after   10 cycles
 E2 =    -0.5258985221D+00 EUMP2 =    -0.15263543920733D+03
 CCSD(T)
 CCSD(T)= -0.15266259479D+03

 The electronic state is 1-A'.
 Alpha  occ. eigenvalues --  -20.56565 -20.54731  -1.33857  -1.32047  -0.71267
 Alpha  occ. eigenvalues --   -0.69456  -0.57386  -0.55536  -0.50982  -0.49182
 Alpha virt. eigenvalues --    0.12271   0.15786   0.19207   0.22953   0.53683
 Alpha virt. eigenvalues --    0.55534   0.56435   0.58143   0.67713   0.69325
 Alpha virt. eigenvalues --    0.77912   0.78659   0.79658   0.80753   0.83060

 Mulliken charges:
               1
     1  O   -0.519055
     2  H    0.262053
     3  H    0.255010
     4  O   -0.515267
     5  H    0.258127
     6  H    0.259133
 Sum of Mulliken charges =  -0.00000

 Dipole moment (field-independent basis, Debye):
    X=              0.4660    Y=             -2.8533    Z=              0.0000  Tot=              2.8911
 Quadrupole moment (field-independent basis, Debye-Ang):
   XX=             -9.6480   YY=             -7.9434   ZZ=            -14.7185
   XY=              6.3204   XZ=              0.0000   YZ=              0.0000

 Normal termination of Gaussian 16 at Fri Aug 26 19:54:08 2022.
