 Gaussian 16, Revision A.03,
 Gaussian 16:  ES64L-G16RevA.03 25-Dec-2016

 ------------------
 #p CCSD(T)/cc-pVTZ
 ------------------

 ------------
 H2O_H2O_2632
 ------------
 Symbolic Z-matrix:
 Charge =  0 Multiplicity = 1

                         Standard orientation:
 ---------------------------------------------------------------------
 Center     Atomic      Atomic             Coordinates (Angstroms)
 Number     Number       Type             X           Y           Z
 ---------------------------------------------------------------------
      1          8           0        0.073542    2.152472   -0.000000
      2          1           0        0.072745    1.169871   -0.000000
      3          1           0       -0.855693    2.471892   -0.000000
      4          8           0        0.073542   -1.985541    0.000000
      5          1           0        0.507421   -2.867161    0.000000
      6          1           0       -0.901139   -2.110052    0.000000
 ---------------------------------------------------------------------

 SCF Done:  E(RHF) =  -152.109797071     A.U. after   10 cycles
 E2 =    -0.5261188757D+00 EUMP2 =    -0.15263591594696D+03
 CCSD(T)
 CCSD(T)= -0.15266304800D+03

 The electronic state is 1-A'.
 Alpha  occ. eigenvalues --  -20.56857 -20.54473  -1.34132  -1.31793  -0.71548
 Alpha  occ. eigenvalues --   -0.69173  -0.57669  -0.55263  -0.51256  -0.48923
 Alpha virt. eigenvalues --    0.12080   0.16092   0.19445   0.23566   0.53495
 Alpha virt. eigenvalues --    0.55474   0.56198   0.58618   0.68818   0.69995
 Alpha virt. eigenvalues --    0.77534   0.79084   0.79936   0.80509   0.83181

 Mulliken charges:
               1
     1  O   -0.517850
     2  H    0.264824
     3  H    0.248669
     4  O   -0.509347
     5  H    0.259770
     6  H    0.253935
 Sum of Mulliken charges =  -0.00000

 Dipole moment (field-independent basis, Debye):
    X=             -2.4997    Y=             -3.0398    Z=             -0.0000  Tot=              3.9356
 Quadrupole moment (field-independent basis, Debye-Ang):
   XX=             -9.8207   YY=             -7.8574   ZZ=            -14.7190
   XY=             -3.4467   XZ=              0.0000   YZ=             -0.0000

 Normal termination of Gaussian 16 at Fri Aug 26 16:10:29 2022.
