 Gaussian 16, Revision A.03,
 Gaussian 16:  ES64L-G16RevA.03 25-Dec-2016

 ------------------
 #p CCSD(T)/cc-pVTZ
 ------------------

 -----------
 H2O_H2O_478
 -----------
 Symbolic Z-matrix:
 Charge =  0 Multiplicity = 1

                         Standard orientation:
 ---------------------------------------------------------------------
 Center     Atomic      Atomic             Coordinates (Angstroms)
 Number     Number       Type             X           Y           Z
 ---------------------------------------------------------------------
      1          8           0        0.085619   -1.285448    0.000000
      2          1           0        0.085104   -0.302847    0.000000
      3          1           0       -0.843707   -1.604602    0.000000
      4          8           0        0.085619    1.135893    0.000000
      5          1           0        0.276811    2.099715    0.000000
      6          1           0       -0.888114    1.004175    0.000000
 ---------------------------------------------------------------------

 SCF Done:  E(RHF) =  -152.091107843     A.U. after   11 cycles
 E2 =    -0.5332834430D+00 EUMP2 =    -0.15262439128555D+03
 CCSD(T)
 CCSD(T)= -0.15265081821D+03

 The electronic state is 1-A'.
 Alpha  occ. eigenvalues --  -20.60149 -20.50426  -1.39033  -1.28655  -0.77727
 Alpha  occ. eigenvalues --   -0.68891  -0.59079  -0.55303  -0.51131  -0.45603
 Alpha virt. eigenvalues --    0.11143   0.16453   0.20808   0.32578   0.48685
 Alpha virt. eigenvalues --    0.52317   0.59143   0.64672   0.71677   0.71711
 Alpha virt. eigenvalues --    0.74107   0.77851   0.78768   0.83256   0.84231

 Mulliken charges:
               1
     1  O   -0.577312
     2  H    0.289406
     3  H    0.214159
     4  O   -0.388748
     5  H    0.230360
     6  H    0.232134
 Sum of Mulliken charges =  -0.00000

 Dipole moment (field-independent basis, Debye):
    X=             -2.7371    Y=              3.6369    Z=              0.0000  Tot=              4.5518
 Quadrupole moment (field-independent basis, Debye-Ang):
   XX=            -10.4257   YY=             -9.3980   ZZ=            -14.6359
   XY=              2.4022   XZ=              0.0000   YZ=              0.0000

 Normal termination of Gaussian 16 at Fri Aug 26 18:32:13 2022.
