 Gaussian 16, Revision A.03,
 Gaussian 16:  ES64L-G16RevA.03 25-Dec-2016

 ------------------
 #p CCSD(T)/cc-pVTZ
 ------------------

 ------------
 H2O_H2O_1391
 ------------
 Symbolic Z-matrix:
 Charge =  0 Multiplicity = 1

                         Standard orientation:
 ---------------------------------------------------------------------
 Center     Atomic      Atomic             Coordinates (Angstroms)
 Number     Number       Type             X           Y           Z
 ---------------------------------------------------------------------
      1          8           0        0.041219    1.660903    0.000000
      2          1           0        0.038420    0.678306    0.000000
      3          1           0       -0.887362    1.982216   -0.000000
      4          8           0        0.041219   -1.481050    0.000000
      5          1           0        0.890774   -1.974774    0.000000
      6          1           0       -0.701337   -2.124569   -0.000000
 ---------------------------------------------------------------------

 SCF Done:  E(RHF) =  -152.114179219     A.U. after   10 cycles
 E2 =    -0.5273610648D+00 EUMP2 =    -0.15264154028405D+03
 CCSD(T)
 CCSD(T)= -0.15266851409D+03

 The electronic state is 1-A'.
 Alpha  occ. eigenvalues --  -20.58116 -20.52675  -1.35425  -1.30157  -0.72746
 Alpha  occ. eigenvalues --   -0.67940  -0.59252  -0.53450  -0.52549  -0.47306
 Alpha virt. eigenvalues --    0.12052   0.17820   0.18884   0.29716   0.49743
 Alpha virt. eigenvalues --    0.54540   0.55979   0.60129   0.68848   0.71903
 Alpha virt. eigenvalues --    0.73888   0.76957   0.81761   0.82922   0.84895

 Mulliken charges:
               1
     1  O   -0.547409
     2  H    0.281402
     3  H    0.246166
     4  O   -0.505134
     5  H    0.265873
     6  H    0.259102
 Sum of Mulliken charges =  -0.00000

 Dipole moment (field-independent basis, Debye):
    X=             -1.3790    Y=             -3.5729    Z=             -0.0000  Tot=              3.8298
 Quadrupole moment (field-independent basis, Debye-Ang):
   XX=             -9.1510   YY=             -8.3720   ZZ=            -14.7354
   XY=             -3.7695   XZ=              0.0000   YZ=             -0.0000

 Normal termination of Gaussian 16 at Sat Aug 27 00:18:02 2022.
