 Gaussian 16, Revision A.03,
 Gaussian 16:  ES64L-G16RevA.03 25-Dec-2016

 ------------------
 #p CCSD(T)/cc-pVTZ
 ------------------

 ------------
 H2O_H2O_4764
 ------------
 Symbolic Z-matrix:
 Charge =  0 Multiplicity = 1

                         Standard orientation:
 ---------------------------------------------------------------------
 Center     Atomic      Atomic             Coordinates (Angstroms)
 Number     Number       Type             X           Y           Z
 ---------------------------------------------------------------------
      1          8           0        0.048549    3.007417    0.000000
      2          1           0        0.047257    2.024816    0.000000
      3          1           0       -0.880525    3.327304    0.000000
      4          8           0        0.048549   -2.826991   -0.000000
      5          1           0        0.827312   -3.426184   -0.000000
      6          1           0       -0.770820   -3.369339   -0.000000
 ---------------------------------------------------------------------

 SCF Done:  E(RHF) =  -152.108298794     A.U. after   10 cycles
 E2 =    -0.5258080477D+00 EUMP2 =    -0.15263410684217D+03
 CCSD(T)
 CCSD(T)= -0.15266130773D+03

 The electronic state is 1-A'.
 Alpha  occ. eigenvalues --  -20.56142 -20.54997  -1.33444  -1.32303  -0.70848
 Alpha  occ. eigenvalues --   -0.69705  -0.56932  -0.55772  -0.50562  -0.49425
 Alpha virt. eigenvalues --    0.13476   0.14829   0.19728   0.20945   0.53703
 Alpha virt. eigenvalues --    0.54821   0.56697   0.57781   0.66976   0.68603
 Alpha virt. eigenvalues --    0.78323   0.79434   0.79731   0.80363   0.82434

 Mulliken charges:
               1
     1  O   -0.513377
     2  H    0.259914
     3  H    0.253400
     4  O   -0.514076
     5  H    0.257923
     6  H    0.256215
 Sum of Mulliken charges =  -0.00000

 Dipole moment (field-independent basis, Debye):
    X=             -1.6660    Y=             -3.1606    Z=             -0.0000  Tot=              3.5729
 Quadrupole moment (field-independent basis, Debye-Ang):
   XX=             -9.1821   YY=             -6.0435   ZZ=            -14.7144
   XY=             -5.7294   XZ=             -0.0000   YZ=              0.0000

 Normal termination of Gaussian 16 at Sun Aug 28 05:42:59 2022.
