 Gaussian 16, Revision A.03,
 Gaussian 16:  ES64L-G16RevA.03 25-Dec-2016

 ------------------
 #p CCSD(T)/cc-pVTZ
 ------------------

 ------------
 H2O_H2O_3613
 ------------
 Symbolic Z-matrix:
 Charge =  0 Multiplicity = 1

                         Standard orientation:
 ---------------------------------------------------------------------
 Center     Atomic      Atomic             Coordinates (Angstroms)
 Number     Number       Type             X           Y           Z
 ---------------------------------------------------------------------
      1          8           0        0.052287    2.548425    0.000000
      2          1           0        0.050884    1.565825    0.000000
      3          1           0       -0.876749    2.868419   -0.000000
      4          8           0        0.052287   -2.368521    0.000000
      5          1           0        0.790120   -3.017450    0.000000
      6          1           0       -0.800854   -2.856022   -0.000000
 ---------------------------------------------------------------------

 SCF Done:  E(RHF) =  -152.109029184     A.U. after   10 cycles
 E2 =    -0.5258531376D+00 EUMP2 =    -0.15263488232182D+03
 CCSD(T)
 CCSD(T)= -0.15266205518D+03

 The electronic state is 1-A'.
 Alpha  occ. eigenvalues --  -20.56406 -20.54700  -1.33698  -1.32013  -0.71101
 Alpha  occ. eigenvalues --   -0.69409  -0.57212  -0.55492  -0.50821  -0.49141
 Alpha virt. eigenvalues --    0.12824   0.15443   0.19576   0.21658   0.53447
 Alpha virt. eigenvalues --    0.55024   0.56499   0.57969   0.66883   0.69294
 Alpha virt. eigenvalues --    0.78081   0.79124   0.79552   0.79700   0.82998

 Mulliken charges:
               1
     1  O   -0.515911
     2  H    0.262573
     3  H    0.252286
     4  O   -0.515363
     5  H    0.259662
     6  H    0.256754
 Sum of Mulliken charges =   0.00000

 Dipole moment (field-independent basis, Debye):
    X=             -1.7878    Y=             -3.1952    Z=             -0.0000  Tot=              3.6614
 Quadrupole moment (field-independent basis, Debye-Ang):
   XX=             -9.2255   YY=             -6.8128   ZZ=            -14.7170
   XY=             -4.8477   XZ=              0.0000   YZ=             -0.0000

 CCSD(T)=-152.6620552\RMSD=7.038e-09\PG=CS [SG(H4O2)]\\@
 Normal termination of Gaussian 16 at Fri Aug 26 22:41:05 2022.
