 Gaussian 16, Revision A.03,
 Gaussian 16:  ES64L-G16RevA.03 25-Dec-2016

 ------------------
 #p CCSD(T)/cc-pVTZ
 ------------------

 -----------
 H2O_H2O_230
 -----------
 Symbolic Z-matrix:
 Charge =  0 Multiplicity = 1

                         Standard orientation:
 ---------------------------------------------------------------------
 Center     Atomic      Atomic             Coordinates (Angstroms)
 Number     Number       Type             X           Y           Z
 ---------------------------------------------------------------------
      1          8           0        0.079893   -1.190850    0.000000
      2          1           0        0.078893   -0.208249    0.000000
      3          1           0       -0.849275   -1.510462    0.000000
      4          8           0        0.079893    1.031871    0.000000
      5          1           0        0.394793    1.962647    0.000000
      6          1           0       -0.902700    1.027892    0.000000
 ---------------------------------------------------------------------

 SCF Done:  E(RHF) =  -152.067814513     A.U. after   11 cycles
 E2 =    -0.5357209200D+00 EUMP2 =    -0.15260353543311D+03
 CCSD(T)
 CCSD(T)= -0.15262946395D+03

 The electronic state is 1-A'.
 Alpha  occ. eigenvalues --  -20.61160 -20.47719  -1.41493  -1.26769  -0.79973
 Alpha  occ. eigenvalues --   -0.71586  -0.57051  -0.56985  -0.48316  -0.43568
 Alpha virt. eigenvalues --    0.10758   0.16233   0.21135   0.32456   0.49165
 Alpha virt. eigenvalues --    0.51969   0.59790   0.64976   0.71612   0.72574
 Alpha virt. eigenvalues --    0.76939   0.77449   0.80250   0.84567   0.85426

 Mulliken charges:
               1
     1  O   -0.610909
     2  H    0.283295
     3  H    0.202094
     4  O   -0.341774
     5  H    0.230518
     6  H    0.236776
 Sum of Mulliken charges =  -0.00000

 Dipole moment (field-independent basis, Debye):
    X=             -2.4881    Y=              4.2282    Z=              0.0000  Tot=              4.9060
 Quadrupole moment (field-independent basis, Debye-Ang):
   XX=            -10.0860   YY=             -9.7319   ZZ=            -14.5837
   XY=              2.5023   XZ=              0.0000   YZ=              0.0000

 Normal termination of Gaussian 16 at Fri Aug 26 16:46:30 2022.
