 Gaussian 16, Revision A.03,
 Gaussian 16:  ES64L-G16RevA.03 25-Dec-2016

 ------------------
 #p CCSD(T)/cc-pVTZ
 ------------------

 ------------
 H2O_H2O_1622
 ------------
 Symbolic Z-matrix:
 Charge =  0 Multiplicity = 1

                         Standard orientation:
 ---------------------------------------------------------------------
 Center     Atomic      Atomic             Coordinates (Angstroms)
 Number     Number       Type             X           Y           Z
 ---------------------------------------------------------------------
      1          8           0       -0.019946    1.743707    0.000000
      2          1           0       -0.016210    0.761113    0.000000
      3          1           0        0.908329    2.065906    0.000000
      4          8           0       -0.019946   -1.576644    0.000000
      5          1           0       -0.993646   -1.708602    0.000000
      6          1           0        0.420661   -2.454922    0.000000
 ---------------------------------------------------------------------

 SCF Done:  E(RHF) =  -152.113155232     A.U. after   10 cycles
 E2 =    -0.5268628006D+00 EUMP2 =    -0.15264001803227D+03
 CCSD(T)
 CCSD(T)= -0.15266704507D+03

 The electronic state is 1-A'.
 Alpha  occ. eigenvalues --  -20.57726 -20.53404  -1.35022  -1.30814  -0.72455
 Alpha  occ. eigenvalues --   -0.68325  -0.58807  -0.54198  -0.52146  -0.47970
 Alpha virt. eigenvalues --    0.12176   0.17428   0.19111   0.28237   0.51201
 Alpha virt. eigenvalues --    0.54308   0.55880   0.60096   0.68926   0.73579
 Alpha virt. eigenvalues --    0.74726   0.77457   0.81131   0.83036   0.84318

 Mulliken charges:
               1
     1  O   -0.540063
     2  H    0.272668
     3  H    0.252497
     4  O   -0.504734
     5  H    0.263231
     6  H    0.256401
 Sum of Mulliken charges =  -0.00000

 Dipole moment (field-independent basis, Debye):
    X=              0.6784    Y=             -3.2354    Z=              0.0000  Tot=              3.3057
 Quadrupole moment (field-independent basis, Debye-Ang):
   XX=             -9.4476   YY=             -8.3658   ZZ=            -14.7313
   XY=              4.4527   XZ=              0.0000   YZ=              0.0000

 Normal termination of Gaussian 16 at Sat Aug 27 23:58:24 2022.
