 Gaussian 16, Revision A.03,
 Gaussian 16:  ES64L-G16RevA.03 25-Dec-2016

 ------------------
 #p CCSD(T)/cc-pVTZ
 ------------------

 ------------
 H2O_H2O_2771
 ------------
 Symbolic Z-matrix:
 Charge =  0 Multiplicity = 1

                         Standard orientation:
 ---------------------------------------------------------------------
 Center     Atomic      Atomic             Coordinates (Angstroms)
 Number     Number       Type             X           Y           Z
 ---------------------------------------------------------------------
      1          8           0       -0.023225    2.204212    0.000000
      2          1           0       -0.020432    1.221614    0.000000
      3          1           0        0.905359    2.525519    0.000000
      4          8           0       -0.023225   -2.033834    0.000000
      5          1           0       -0.986397   -2.228268    0.000000
      6          1           0        0.473067   -2.881891    0.000000
 ---------------------------------------------------------------------

 SCF Done:  E(RHF) =  -152.110316251     A.U. after   10 cycles
 E2 =    -0.5259786376D+00 EUMP2 =    -0.15263629488857D+03
 CCSD(T)
 CCSD(T)= -0.15266342333D+03

 The electronic state is 1-A'.
 Alpha  occ. eigenvalues --  -20.56752 -20.54420  -1.34030  -1.31744  -0.71433
 Alpha  occ. eigenvalues --   -0.69149  -0.57593  -0.55236  -0.51161  -0.48886
 Alpha virt. eigenvalues --    0.12334   0.16151   0.19311   0.23473   0.53529
 Alpha virt. eigenvalues --    0.55593   0.56393   0.58519   0.68814   0.69585
 Alpha virt. eigenvalues --    0.77678   0.79071   0.79951   0.80307   0.83343

 Mulliken charges:
               1
     1  O   -0.522050
     2  H    0.264524
     3  H    0.253654
     4  O   -0.513944
     5  H    0.259565
     6  H    0.258251
 Sum of Mulliken charges =  -0.00000

 Dipole moment (field-independent basis, Debye):
    X=              0.7936    Y=             -3.0883    Z=              0.0000  Tot=              3.1886
 Quadrupole moment (field-independent basis, Debye-Ang):
   XX=             -9.3613   YY=             -7.6623   ZZ=            -14.7211
   XY=              5.4623   XZ=              0.0000   YZ=              0.0000

 Normal termination of Gaussian 16 at Fri Aug 26 17:12:14 2022.
