 Gaussian 16, Revision A.03,
 Gaussian 16:  ES64L-G16RevA.03 25-Dec-2016

 ------------------
 #p CCSD(T)/cc-pVTZ
 ------------------

 ------------
 H2O_H2O_3325
 ------------
 Symbolic Z-matrix:
 Charge =  0 Multiplicity = 1

                         Standard orientation:
 ---------------------------------------------------------------------
 Center     Atomic      Atomic             Coordinates (Angstroms)
 Number     Number       Type             X           Y           Z
 ---------------------------------------------------------------------
      1          8           0        0.092949   -2.413138    0.000000
      2          1           0        0.092949   -1.430537    0.000000
      3          1           0       -0.836544   -2.731805    0.000000
      4          8           0        0.092949    2.280351    0.000000
      5          1           0        0.092950    3.262954    0.000000
      6          1           0       -0.836544    1.961685    0.000000
 ---------------------------------------------------------------------

 SCF Done:  E(RHF) =  -152.107891882     A.U. after   10 cycles
 E2 =    -0.5260002967D+00 EUMP2 =    -0.15263389217832D+03
 CCSD(T)
 CCSD(T)= -0.15266108809D+03

 The electronic state is 1-A'.
 Alpha  occ. eigenvalues --  -20.56519 -20.55214  -1.33816  -1.32515  -0.71244
 Alpha  occ. eigenvalues --   -0.69900  -0.57280  -0.55965  -0.50924  -0.49627
 Alpha virt. eigenvalues --    0.11643   0.15373   0.19121   0.22974   0.53765
 Alpha virt. eigenvalues --    0.54757   0.56457   0.58009   0.67260   0.68842
 Alpha virt. eigenvalues --    0.77981   0.78550   0.79247   0.81265   0.82480

 Mulliken charges:
               1
     1  O   -0.509872
     2  H    0.258946
     3  H    0.250175
     4  O   -0.509361
     5  H    0.259659
     6  H    0.250453
 Sum of Mulliken charges =  -0.00000

 Dipole moment (field-independent basis, Debye):
    X=             -3.1717    Y=              2.3649    Z=              0.0000  Tot=              3.9563
 Quadrupole moment (field-independent basis, Debye-Ang):
   XX=            -10.8540   YY=             -9.2361   ZZ=            -14.7123
   XY=              2.1511   XZ=              0.0000   YZ=              0.0000

 Normal termination of Gaussian 16 at Fri Aug 26 21:04:39 2022.
