 Gaussian 16, Revision A.03,
 Gaussian 16:  ES64L-G16RevA.03 25-Dec-2016

 ------------------
 #p CCSD(T)/cc-pVTZ
 ------------------

 ------------
 H2O_H2O_2502
 ------------
 Symbolic Z-matrix:
 Charge =  0 Multiplicity = 1

                         Standard orientation:
 ---------------------------------------------------------------------
 Center     Atomic      Atomic             Coordinates (Angstroms)
 Number     Number       Type             X           Y           Z
 ---------------------------------------------------------------------
      1          8           0        0.088233   -2.090327    0.000000
      2          1           0        0.088035   -1.107725    0.000000
      3          1           0       -0.841195   -2.409181    0.000000
      4          8           0        0.088233    1.946011    0.000000
      5          1           0        0.216292    2.920233    0.000000
      6          1           0       -0.874863    1.751200    0.000000
 ---------------------------------------------------------------------

 SCF Done:  E(RHF) =  -152.108938163     A.U. after   10 cycles
 E2 =    -0.5262645680D+00 EUMP2 =    -0.15263520273063D+03
 CCSD(T)
 CCSD(T)= -0.15266235132D+03

 The electronic state is 1-A'.
 Alpha  occ. eigenvalues --  -20.56926 -20.54825  -1.34213  -1.32133  -0.71661
 Alpha  occ. eigenvalues --   -0.69498  -0.57709  -0.55584  -0.51322  -0.49252
 Alpha virt. eigenvalues --    0.11625   0.15935   0.19705   0.23996   0.53637
 Alpha virt. eigenvalues --    0.55526   0.56502   0.57945   0.68537   0.70808
 Alpha virt. eigenvalues --    0.77349   0.79141   0.79672   0.80365   0.83151

 Mulliken charges:
               1
     1  O   -0.514133
     2  H    0.263305
     3  H    0.247374
     4  O   -0.505490
     5  H    0.259268
     6  H    0.249675
 Sum of Mulliken charges =  -0.00000

 Dipole moment (field-independent basis, Debye):
    X=             -2.9928    Y=              2.6332    Z=              0.0000  Tot=              3.9863
 Quadrupole moment (field-independent basis, Debye-Ang):
   XX=            -10.5715   YY=             -8.7174   ZZ=            -14.7154
   XY=              2.5402   XZ=              0.0000   YZ=              0.0000

 Normal termination of Gaussian 16 at Fri Aug 26 15:12:33 2022.
