 Gaussian 16, Revision A.03,
 Gaussian 16:  ES64L-G16RevA.03 25-Dec-2016

 ------------------
 #p CCSD(T)/cc-pVTZ
 ------------------

 -----------
 H2O_H2O_700
 -----------
 Symbolic Z-matrix:
 Charge =  0 Multiplicity = 1

                         Standard orientation:
 ---------------------------------------------------------------------
 Center     Atomic      Atomic             Coordinates (Angstroms)
 Number     Number       Type             X           Y           Z
 ---------------------------------------------------------------------
      1          8           0        0.092949   -1.366086    0.000000
      2          1           0        0.092949   -0.383484    0.000000
      3          1           0       -0.836544   -1.684752    0.000000
      4          8           0        0.092949    1.233299    0.000000
      5          1           0        0.092949    2.215900    0.000000
      6          1           0       -0.836544    0.914632    0.000000
 ---------------------------------------------------------------------

 SCF Done:  E(RHF) =  -152.098043337     A.U. after   11 cycles
 E2 =    -0.5317647964D+00 EUMP2 =    -0.15262980813319D+03
 CCSD(T)
 CCSD(T)= -0.15265657053D+03

 The electronic state is 1-A'.
 Alpha  occ. eigenvalues --  -20.59392 -20.52534  -1.37661  -1.30307  -0.76647
 Alpha  occ. eigenvalues --   -0.67770  -0.59835  -0.54208  -0.53269  -0.47312
 Alpha virt. eigenvalues --    0.11366   0.16378   0.21011   0.31784   0.48184
 Alpha virt. eigenvalues --    0.52142   0.58726   0.63561   0.69128   0.71049
 Alpha virt. eigenvalues --    0.73736   0.78561   0.78563   0.82625   0.82718

 Mulliken charges:
               1
     1  O   -0.547306
     2  H    0.286048
     3  H    0.221371
     4  O   -0.420621
     5  H    0.234043
     6  H    0.226465
 Sum of Mulliken charges =   0.00000

 Dipole moment (field-independent basis, Debye):
    X=             -3.0221    Y=              3.0300    Z=              0.0000  Tot=              4.2795
 Quadrupole moment (field-independent basis, Debye-Ang):
   XX=            -10.8939   YY=             -9.3655   ZZ=            -14.6581
   XY=              2.0437   XZ=              0.0000   YZ=              0.0000

 Normal termination of Gaussian 16 at Fri Aug 26 19:56:08 2022.
