 Gaussian 16, Revision A.03,
 Gaussian 16:  ES64L-G16RevA.03 25-Dec-2016

 ------------------
 #p CCSD(T)/cc-pVTZ
 ------------------

 ------------
 H2O_H2O_3142
 ------------
 Symbolic Z-matrix:
 Charge =  0 Multiplicity = 1

                         Standard orientation:
 ---------------------------------------------------------------------
 Center     Atomic      Atomic             Coordinates (Angstroms)
 Number     Number       Type             X           Y           Z
 ---------------------------------------------------------------------
      1          8           0        0.037446    2.358451   -0.000000
      2          1           0        0.035369    1.375852   -0.000000
      3          1           0       -0.891372    2.679081   -0.000000
      4          8           0        0.037446   -2.179487    0.000000
      5          1           0        0.917794   -2.615942    0.000000
      6          1           0       -0.660924   -2.870707    0.000000
 ---------------------------------------------------------------------

 SCF Done:  E(RHF) =  -152.109745023     A.U. after   10 cycles
 E2 =    -0.5259001880D+00 EUMP2 =    -0.15263564521112D+03
 CCSD(T)
 CCSD(T)= -0.15266279349D+03

 The electronic state is 1-A'.
 Alpha  occ. eigenvalues --  -20.56580 -20.54505  -1.33862  -1.31824  -0.71262
 Alpha  occ. eigenvalues --   -0.69222  -0.57403  -0.55313  -0.50991  -0.48960
 Alpha virt. eigenvalues --    0.12571   0.15838   0.19466   0.22436   0.53278
 Alpha virt. eigenvalues --    0.55388   0.56430   0.58347   0.67837   0.69349
 Alpha virt. eigenvalues --    0.77910   0.78967   0.79547   0.79869   0.83191

 Mulliken charges:
               1
     1  O   -0.518988
     2  H    0.263895
     3  H    0.252684
     4  O   -0.515188
     5  H    0.259792
     6  H    0.257804
 Sum of Mulliken charges =  -0.00000

 Dipole moment (field-independent basis, Debye):
    X=             -1.2782    Y=             -3.2111    Z=              0.0000  Tot=              3.4561
 Quadrupole moment (field-independent basis, Debye-Ang):
   XX=             -9.1589   YY=             -7.1435   ZZ=            -14.7195
   XY=             -5.1872   XZ=              0.0000   YZ=             -0.0000

 Normal termination of Gaussian 16 at Fri Aug 26 20:00:42 2022.
