 Gaussian 16, Revision A.03,
 Gaussian 16:  ES64L-G16RevA.03 25-Dec-2016

 ------------------
 #p CCSD(T)/cc-pVTZ
 ------------------

 ------------
 H2O_H2O_2884
 ------------
 Symbolic Z-matrix:
 Charge =  0 Multiplicity = 1

                         Standard orientation:
 ---------------------------------------------------------------------
 Center     Atomic      Atomic             Coordinates (Angstroms)
 Number     Number       Type             X           Y           Z
 ---------------------------------------------------------------------
      1          8           0        0.066764    2.255542    0.000000
      2          1           0        0.065739    1.272941    0.000000
      3          1           0       -0.862396    2.575177   -0.000000
      4          8           0        0.066764   -2.082443    0.000000
      5          1           0        0.611816   -2.900015    0.000000
      6          1           0       -0.883385   -2.332890   -0.000000
 ---------------------------------------------------------------------

 SCF Done:  E(RHF) =  -152.109656309     A.U. after   10 cycles
 E2 =    -0.5260078843D+00 EUMP2 =    -0.15263566419299D+03
 CCSD(T)
 CCSD(T)= -0.15266280658D+03

 The electronic state is 1-A'.
 Alpha  occ. eigenvalues --  -20.56715 -20.54498  -1.33993  -1.31816  -0.71401
 Alpha  occ. eigenvalues --   -0.69202  -0.57526  -0.55294  -0.51119  -0.48947
 Alpha virt. eigenvalues --    0.12290   0.15953   0.19432   0.22911   0.53409
 Alpha virt. eigenvalues --    0.55400   0.56246   0.58660   0.68527   0.69361
 Alpha virt. eigenvalues --    0.77758   0.79016   0.79886   0.79891   0.83171

 Mulliken charges:
               1
     1  O   -0.517531
     2  H    0.264285
     3  H    0.249946
     4  O   -0.511945
     5  H    0.260098
     6  H    0.255147
 Sum of Mulliken charges =  -0.00000

 Dipole moment (field-independent basis, Debye):
    X=             -2.2738    Y=             -3.1274    Z=             -0.0000  Tot=              3.8666
 Quadrupole moment (field-independent basis, Debye-Ang):
   XX=             -9.5663   YY=             -7.5151   ZZ=            -14.7189
   XY=             -3.8451   XZ=              0.0000   YZ=             -0.0000

 CCSD(T)=-152.6628066\RMSD=6.909e-09\PG=CS [SG(H4O2)]\\@
 Normal termination of Gaussian 16 at Fri Aug 26 18:01:15 2022.
