 Gaussian 16, Revision A.03,
 Gaussian 16:  ES64L-G16RevA.03 25-Dec-2016

 ------------------
 #p CCSD(T)/cc-pVTZ
 ------------------

 ------------
 H2O_H2O_4410
 ------------
 Symbolic Z-matrix:
 Charge =  0 Multiplicity = 1

                         Standard orientation:
 ---------------------------------------------------------------------
 Center     Atomic      Atomic             Coordinates (Angstroms)
 Number     Number       Type             X           Y           Z
 ---------------------------------------------------------------------
      1          8           0        0.063218    2.865151   -0.000000
      2          1           0        0.062310    1.882550   -0.000000
      3          1           0       -0.865980    3.184677   -0.000000
      4          8           0        0.063218   -2.689617    0.000000
      5          1           0        0.660667   -3.469720    0.000000
      6          1           0       -0.868480   -3.001780    0.000000
 ---------------------------------------------------------------------

 SCF Done:  E(RHF) =  -152.108315076     A.U. after   10 cycles
 E2 =    -0.5258241369D+00 EUMP2 =    -0.15263413921280D+03
 CCSD(T)
 CCSD(T)= -0.15266133769D+03

 The electronic state is 1-A'.
 Alpha  occ. eigenvalues --  -20.56207 -20.54970  -1.33508  -1.32277  -0.70915
 Alpha  occ. eigenvalues --   -0.69676  -0.56997  -0.55744  -0.50626  -0.49398
 Alpha virt. eigenvalues --    0.13261   0.14936   0.19621   0.21091   0.53564
 Alpha virt. eigenvalues --    0.54872   0.56629   0.57790   0.66803   0.68787
 Alpha virt. eigenvalues --    0.78263   0.79459   0.79486   0.80292   0.82669

 Mulliken charges:
               1
     1  O   -0.513135
     2  H    0.260331
     3  H    0.252646
     4  O   -0.514019
     5  H    0.258646
     6  H    0.255530
 Sum of Mulliken charges =  -0.00000

 Dipole moment (field-independent basis, Debye):
    X=             -2.1673    Y=             -3.0840    Z=              0.0000  Tot=              3.7694
 Quadrupole moment (field-independent basis, Debye-Ang):
   XX=             -9.4539   YY=             -6.5534   ZZ=            -14.7144
   XY=             -4.6300   XZ=              0.0000   YZ=             -0.0000

 Normal termination of Gaussian 16 at Sun Aug 28 02:38:42 2022.
