 Gaussian 16, Revision A.03,
 Gaussian 16:  ES64L-G16RevA.03 25-Dec-2016

 ------------------
 #p CCSD(T)/cc-pVTZ
 ------------------

 ------------
 H2O_H2O_3802
 ------------
 Symbolic Z-matrix:
 Charge =  0 Multiplicity = 1

                         Standard orientation:
 ---------------------------------------------------------------------
 Center     Atomic      Atomic             Coordinates (Angstroms)
 Number     Number       Type             X           Y           Z
 ---------------------------------------------------------------------
      1          8           0        0.088230   -2.608871    0.000000
      2          1           0        0.088072   -1.626270    0.000000
      3          1           0       -0.841212   -2.927687    0.000000
      4          8           0        0.088230    2.464548    0.000000
      5          1           0        0.216329    3.438764    0.000000
      6          1           0       -0.874874    2.269776    0.000000
 ---------------------------------------------------------------------

 SCF Done:  E(RHF) =  -152.107970222     A.U. after   10 cycles
 E2 =    -0.5259076267D+00 EUMP2 =    -0.15263387784817D+03
 CCSD(T)
 CCSD(T)= -0.15266107854D+03

 The electronic state is 1-A'.
 Alpha  occ. eigenvalues --  -20.56363 -20.55157  -1.33662  -1.32460  -0.71080
 Alpha  occ. eigenvalues --   -0.69852  -0.57132  -0.55916  -0.50774  -0.49575
 Alpha virt. eigenvalues --    0.12260   0.15138   0.19054   0.22103   0.53182
 Alpha virt. eigenvalues --    0.54998   0.56479   0.57921   0.66771   0.68886
 Alpha virt. eigenvalues --    0.78127   0.78929   0.79291   0.81261   0.82484

 Mulliken charges:
               1
     1  O   -0.510615
     2  H    0.258985
     3  H    0.251219
     4  O   -0.511401
     5  H    0.259353
     6  H    0.252459
 Sum of Mulliken charges =  -0.00000

 Dipole moment (field-independent basis, Debye):
    X=             -3.0182    Y=              2.5517    Z=              0.0000  Tot=              3.9523
 Quadrupole moment (field-independent basis, Debye-Ang):
   XX=            -10.5534   YY=             -8.5690   ZZ=            -14.7129
   XY=              2.6323   XZ=              0.0000   YZ=              0.0000

 Normal termination of Gaussian 16 at Fri Aug 26 23:45:23 2022.
