 Gaussian 16, Revision A.03,
 Gaussian 16:  ES64L-G16RevA.03 25-Dec-2016

 ------------------
 #p CCSD(T)/cc-pVTZ
 ------------------

 ------------
 H2O_H2O_1853
 ------------
 Symbolic Z-matrix:
 Charge =  0 Multiplicity = 1

                         Standard orientation:
 ---------------------------------------------------------------------
 Center     Atomic      Atomic             Coordinates (Angstroms)
 Number     Number       Type             X           Y           Z
 ---------------------------------------------------------------------
      1          8           0        0.085607   -1.833919    0.000000
      2          1           0        0.085252   -0.851317    0.000000
      3          1           0       -0.843771   -2.152920    0.000000
      4          8           0        0.085607    1.684336    0.000000
      5          1           0        0.276956    2.648126    0.000000
      6          1           0       -0.888148    1.552775    0.000000
 ---------------------------------------------------------------------

 SCF Done:  E(RHF) =  -152.110176603     A.U. after   10 cycles
 E2 =    -0.5268242031D+00 EUMP2 =    -0.15263700080579D+03
 CCSD(T)
 CCSD(T)= -0.15266409656D+03

 The electronic state is 1-A'.
 Alpha  occ. eigenvalues --  -20.57467 -20.54330  -1.34761  -1.31666  -0.72269
 Alpha  occ. eigenvalues --   -0.69012  -0.58322  -0.55083  -0.51862  -0.48786
 Alpha virt. eigenvalues --    0.11664   0.16380   0.19903   0.26270   0.51228
 Alpha virt. eigenvalues --    0.55488   0.56958   0.57736   0.68645   0.74045
 Alpha virt. eigenvalues --    0.75589   0.78283   0.80337   0.82960   0.83316

 Mulliken charges:
               1
     1  O   -0.520388
     2  H    0.268416
     3  H    0.243559
     4  O   -0.498356
     5  H    0.257639
     6  H    0.249130
 Sum of Mulliken charges =  -0.00000

 Dipole moment (field-independent basis, Debye):
    X=             -2.8814    Y=              2.8290    Z=              0.0000  Tot=              4.0380
 Quadrupole moment (field-independent basis, Debye-Ang):
   XX=            -10.4339   YY=             -8.6538   ZZ=            -14.7193
   XY=              2.6543   XZ=              0.0000   YZ=              0.0000

 Normal termination of Gaussian 16 at Sun Aug 28 02:13:10 2022.
