 Gaussian 16, Revision A.03,
 Gaussian 16:  ES64L-G16RevA.03 25-Dec-2016

 ------------------
 #p CCSD(T)/cc-pVTZ
 ------------------

 ------------
 H2O_H2O_1171
 ------------
 Symbolic Z-matrix:
 Charge =  0 Multiplicity = 1

                         Standard orientation:
 ---------------------------------------------------------------------
 Center     Atomic      Atomic             Coordinates (Angstroms)
 Number     Number       Type             X           Y           Z
 ---------------------------------------------------------------------
      1          8           0       -0.023329    1.565984    0.000000
      2          1           0       -0.019332    0.583390    0.000000
      3          1           0        0.904860    1.888428    0.000000
      4          8           0       -0.023329   -1.395662    0.000000
      5          1           0       -0.986262   -1.591277    0.000000
      6          1           0        0.474002   -2.243111    0.000000
 ---------------------------------------------------------------------

 SCF Done:  E(RHF) =  -152.113627479     A.U. after   10 cycles
 E2 =    -0.5279645826D+00 EUMP2 =    -0.15264159206192D+03
 CCSD(T)
 CCSD(T)= -0.15266851132D+03

 The electronic state is 1-A'.
 Alpha  occ. eigenvalues --  -20.58434 -20.52333  -1.35861  -1.29906  -0.73289
 Alpha  occ. eigenvalues --   -0.67922  -0.59625  -0.53054  -0.52939  -0.47045
 Alpha virt. eigenvalues --    0.12037   0.18132   0.18825   0.31020   0.49410
 Alpha virt. eigenvalues --    0.54613   0.55843   0.62108   0.68540   0.73062
 Alpha virt. eigenvalues --    0.73308   0.76968   0.82032   0.82422   0.84451

 Mulliken charges:
               1
     1  O   -0.560327
     2  H    0.286272
     3  H    0.249098
     4  O   -0.488877
     5  H    0.264219
     6  H    0.249615
 Sum of Mulliken charges =  -0.00000

 Dipole moment (field-independent basis, Debye):
    X=              0.7830    Y=             -3.4919    Z=              0.0000  Tot=              3.5786
 Quadrupole moment (field-independent basis, Debye-Ang):
   XX=             -9.3557   YY=             -8.6523   ZZ=            -14.7279
   XY=              3.9087   XZ=              0.0000   YZ=              0.0000

 CCSD(T)=-152.6685113\RMSD=6.570e-09\PG=CS [SG(H4O2)]\\@
 Normal termination of Gaussian 16 at Fri Aug 26 22:53:25 2022.
