 Gaussian 16, Revision A.03,
 Gaussian 16:  ES64L-G16RevA.03 25-Dec-2016

 ------------------
 #p CCSD(T)/cc-pVTZ
 ------------------

 ------------
 H2O_H2O_3813
 ------------
 Symbolic Z-matrix:
 Charge =  0 Multiplicity = 1

                         Standard orientation:
 ---------------------------------------------------------------------
 Center     Atomic      Atomic             Coordinates (Angstroms)
 Number     Number       Type             X           Y           Z
 ---------------------------------------------------------------------
      1          8           0        0.052283    2.628203    0.000000
      2          1           0        0.050924    1.645603    0.000000
      3          1           0       -0.876768    2.948155    0.000000
      4          8           0        0.052283   -2.448295    0.000000
      5          1           0        0.790146   -3.097190    0.000000
      6          1           0       -0.800836   -2.935833    0.000000
 ---------------------------------------------------------------------

 SCF Done:  E(RHF) =  -152.108842917     A.U. after   10 cycles
 E2 =    -0.5258365737D+00 EUMP2 =    -0.15263467949051D+03
 CCSD(T)
 CCSD(T)= -0.15266185983D+03

 The electronic state is 1-A'.
 Alpha  occ. eigenvalues --  -20.56344 -20.54766  -1.33639  -1.32078  -0.71043
 Alpha  occ. eigenvalues --   -0.69475  -0.57147  -0.55554  -0.50761  -0.49204
 Alpha virt. eigenvalues --    0.12953   0.15306   0.19607   0.21458   0.53502
 Alpha virt. eigenvalues --    0.54953   0.56543   0.57881   0.66727   0.69204
 Alpha virt. eigenvalues --    0.78137   0.79264   0.79632   0.79641   0.82934

 Mulliken charges:
               1
     1  O   -0.515290
     2  H    0.262069
     3  H    0.252521
     4  O   -0.515398
     5  H    0.259410
     6  H    0.256688
 Sum of Mulliken charges =  -0.00000

 Dipole moment (field-independent basis, Debye):
    X=             -1.7891    Y=             -3.1845    Z=             -0.0000  Tot=              3.6526
 Quadrupole moment (field-independent basis, Debye-Ang):
   XX=             -9.2253   YY=             -6.6860   ZZ=            -14.7164
   XY=             -4.9601   XZ=             -0.0000   YZ=             -0.0000

 CCSD(T)=-152.6618598\RMSD=7.075e-09\PG=CS [SG(H4O2)]\\@
 Normal termination of Gaussian 16 at Fri Aug 26 23:49:38 2022.
