 Gaussian 16, Revision A.03,
 Gaussian 16:  ES64L-G16RevA.03 25-Dec-2016

 ------------------
 #p CCSD(T)/cc-pVTZ
 ------------------

 ------------
 H2O_H2O_2483
 ------------
 Symbolic Z-matrix:
 Charge =  0 Multiplicity = 1

                         Standard orientation:
 ---------------------------------------------------------------------
 Center     Atomic      Atomic             Coordinates (Angstroms)
 Number     Number       Type             X           Y           Z
 ---------------------------------------------------------------------
      1          8           0        0.070208    2.094432    0.000000
      2          1           0        0.069247    1.111832    0.000000
      3          1           0       -0.858973    2.414008   -0.000000
      4          8           0        0.070208   -1.924203    0.000000
      5          1           0        0.560677   -2.775642    0.000000
      6          1           0       -0.894274   -2.112033   -0.000000
 ---------------------------------------------------------------------

 SCF Done:  E(RHF) =  -152.110248178     A.U. after   10 cycles
 E2 =    -0.5261734885D+00 EUMP2 =    -0.15263642166608D+03
 CCSD(T)
 CCSD(T)= -0.15266353981D+03

 The electronic state is 1-A'.
 Alpha  occ. eigenvalues --  -20.56957 -20.54324  -1.34226  -1.31649  -0.71638
 Alpha  occ. eigenvalues --   -0.69031  -0.57785  -0.55120  -0.51353  -0.48783
 Alpha virt. eigenvalues --    0.12105   0.16262   0.19416   0.24042   0.53104
 Alpha virt. eigenvalues --    0.55686   0.56064   0.58684   0.68852   0.70675
 Alpha virt. eigenvalues --    0.77342   0.78945   0.80084   0.81071   0.83356

 Mulliken charges:
               1
     1  O   -0.519689
     2  H    0.265807
     3  H    0.248320
     4  O   -0.508669
     5  H    0.259890
     6  H    0.254340
 Sum of Mulliken charges =  -0.00000

 Dipole moment (field-independent basis, Debye):
    X=             -2.3838    Y=             -3.1195    Z=             -0.0000  Tot=              3.9261
 Quadrupole moment (field-independent basis, Debye-Ang):
   XX=             -9.6908   YY=             -7.8232   ZZ=            -14.7206
   XY=             -3.5562   XZ=              0.0000   YZ=             -0.0000

 Normal termination of Gaussian 16 at Sun Aug 28 07:39:35 2022.
