 Gaussian 16, Revision A.03,
 Gaussian 16:  ES64L-G16RevA.03 25-Dec-2016

 ------------------
 #p CCSD(T)/cc-pVTZ
 ------------------

 ------------
 H2O_H2O_4394
 ------------
 Symbolic Z-matrix:
 Charge =  0 Multiplicity = 1

                         Standard orientation:
 ---------------------------------------------------------------------
 Center     Atomic      Atomic             Coordinates (Angstroms)
 Number     Number       Type             X           Y           Z
 ---------------------------------------------------------------------
      1          8           0        0.030151    2.855238   -0.000000
      2          1           0        0.028226    1.872638   -0.000000
      3          1           0       -0.898716    3.175724    0.000000
      4          8           0        0.030151   -2.679604   -0.000000
      5          1           0        0.959985   -2.997273   -0.000000
      6          1           0       -0.571903   -3.456160    0.000000
 ---------------------------------------------------------------------

 SCF Done:  E(RHF) =  -152.108539764     A.U. after   10 cycles
 E2 =    -0.5258008429D+00 EUMP2 =    -0.15263434060650D+03
 CCSD(T)
 CCSD(T)= -0.15266153483D+03

 The electronic state is 1-A'.
 Alpha  occ. eigenvalues --  -20.56201 -20.54945  -1.33502  -1.32254  -0.70906
 Alpha  occ. eigenvalues --   -0.69658  -0.57000  -0.55728  -0.50622  -0.49379
 Alpha virt. eigenvalues --    0.13285   0.14986   0.19628   0.21150   0.53565
 Alpha virt. eigenvalues --    0.54900   0.56660   0.57806   0.66781   0.68803
 Alpha virt. eigenvalues --    0.78265   0.79475   0.79487   0.80289   0.82700

 Mulliken charges:
               1
     1  O   -0.514641
     2  H    0.260428
     3  H    0.254045
     4  O   -0.515231
     5  H    0.257895
     6  H    0.257504
 Sum of Mulliken charges =  -0.00000

 Dipole moment (field-independent basis, Debye):
    X=             -1.0343    Y=             -3.0856    Z=              0.0000  Tot=              3.2543
 Quadrupole moment (field-independent basis, Debye-Ang):
   XX=             -9.2303   YY=             -6.5478   ZZ=            -14.7152
   XY=             -6.5787   XZ=             -0.0000   YZ=              0.0000

 Normal termination of Gaussian 16 at Sun Aug 28 02:28:06 2022.
