 Gaussian 16, Revision A.03,
 Gaussian 16:  ES64L-G16RevA.03 25-Dec-2016

 ------------------
 #p CCSD(T)/cc-pVTZ
 ------------------

 ------------
 H2O_H2O_2540
 ------------
 Symbolic Z-matrix:
 Charge =  0 Multiplicity = 1

                         Standard orientation:
 ---------------------------------------------------------------------
 Center     Atomic      Atomic             Coordinates (Angstroms)
 Number     Number       Type             X           Y           Z
 ---------------------------------------------------------------------
      1          8           0        0.044877    2.119895   -0.000000
      2          1           0        0.042866    1.137295   -0.000000
      3          1           0       -0.883962    2.440463    0.000000
      4          8           0        0.044877   -1.939514   -0.000000
      5          1           0        0.860762   -2.487089   -0.000000
      6          1           0       -0.737701   -2.533716    0.000000
 ---------------------------------------------------------------------

 SCF Done:  E(RHF) =  -152.110859920     A.U. after   10 cycles
 E2 =    -0.5260749602D+00 EUMP2 =    -0.15263693488027D+03
 CCSD(T)
 CCSD(T)= -0.15266404416D+03

 The electronic state is 1-A'.
 Alpha  occ. eigenvalues --  -20.56919 -20.54144  -1.34181  -1.31476  -0.71576
 Alpha  occ. eigenvalues --   -0.68872  -0.57774  -0.54963  -0.51317  -0.48619
 Alpha virt. eigenvalues --    0.12361   0.16409   0.19333   0.24012   0.52715
 Alpha virt. eigenvalues --    0.55578   0.56332   0.58969   0.69055   0.70513
 Alpha virt. eigenvalues --    0.77425   0.78727   0.80218   0.80662   0.83671

 Mulliken charges:
               1
     1  O   -0.523130
     2  H    0.266469
     3  H    0.250820
     4  O   -0.511630
     5  H    0.260537
     6  H    0.256934
 Sum of Mulliken charges =  -0.00000

 Dipole moment (field-independent basis, Debye):
    X=             -1.5254    Y=             -3.3024    Z=              0.0000  Tot=              3.6377
 Quadrupole moment (field-independent basis, Debye-Ang):
   XX=             -9.1579   YY=             -7.4866   ZZ=            -14.7230
   XY=             -4.4850   XZ=             -0.0000   YZ=              0.0000

 Normal termination of Gaussian 16 at Fri Aug 26 15:28:29 2022.
