 Gaussian 16, Revision A.03,
 Gaussian 16:  ES64L-G16RevA.03 25-Dec-2016

 ------------------
 #p CCSD(T)/cc-pVTZ
 ------------------

 ------------
 H2O_H2O_4000
 ------------
 Symbolic Z-matrix:
 Charge =  0 Multiplicity = 1

                         Standard orientation:
 ---------------------------------------------------------------------
 Center     Atomic      Atomic             Coordinates (Angstroms)
 Number     Number       Type             X           Y           Z
 ---------------------------------------------------------------------
      1          8           0        0.092949   -2.682381    0.000000
      2          1           0        0.092949   -1.699779    0.000000
      3          1           0       -0.836544   -3.001047    0.000000
      4          8           0        0.092949    2.549594    0.000000
      5          1           0        0.092949    3.532195    0.000000
      6          1           0       -0.836544    2.230926    0.000000
 ---------------------------------------------------------------------

 SCF Done:  E(RHF) =  -152.107691107     A.U. after   10 cycles
 E2 =    -0.5259071340D+00 EUMP2 =    -0.15263359824127D+03
 CCSD(T)
 CCSD(T)= -0.15266080836D+03

 The electronic state is 1-A'.
 Alpha  occ. eigenvalues --  -20.56317 -20.55303  -1.33617  -1.32604  -0.71036
 Alpha  occ. eigenvalues --   -0.69998  -0.57078  -0.56055  -0.50727  -0.49717
 Alpha virt. eigenvalues --    0.12200   0.14992   0.18831   0.22271   0.53127
 Alpha virt. eigenvalues --    0.54918   0.56497   0.57812   0.66785   0.68673
 Alpha virt. eigenvalues --    0.78172   0.79157   0.79259   0.81498   0.82210

 Mulliken charges:
               1
     1  O   -0.509454
     2  H    0.257740
     3  H    0.251514
     4  O   -0.510480
     5  H    0.258921
     6  H    0.251758
 Sum of Mulliken charges =  -0.00000

 Dipole moment (field-independent basis, Debye):
    X=             -3.1823    Y=              2.3409    Z=              0.0000  Tot=              3.9505
 Quadrupole moment (field-independent basis, Debye-Ang):
   XX=            -10.8477   YY=             -9.2691   ZZ=            -14.7118
   XY=              2.1547   XZ=              0.0000   YZ=              0.0000

 Normal termination of Gaussian 16 at Sat Aug 27 00:55:28 2022.
