 Gaussian 16, Revision A.03,
 Gaussian 16:  ES64L-G16RevA.03 25-Dec-2016

 ------------------
 #p CCSD(T)/cc-pVTZ
 ------------------

 ------------
 H2O_H2O_1707
 ------------
 Symbolic Z-matrix:
 Charge =  0 Multiplicity = 1

                         Standard orientation:
 ---------------------------------------------------------------------
 Center     Atomic      Atomic             Coordinates (Angstroms)
 Number     Number       Type             X           Y           Z
 ---------------------------------------------------------------------
      1          8           0        0.073556    1.783498   -0.000000
      2          1           0        0.072587    0.800897   -0.000000
      3          1           0       -0.855622    2.103081   -0.000000
      4          8           0        0.073556   -1.616592    0.000000
      5          1           0        0.507281   -2.498289    0.000000
      6          1           0       -0.901146   -1.740932    0.000000
 ---------------------------------------------------------------------

 SCF Done:  E(RHF) =  -152.111842384     A.U. after   10 cycles
 E2 =    -0.5269100338D+00 EUMP2 =    -0.15263875241754D+03
 CCSD(T)
 CCSD(T)= -0.15266580451D+03

 The electronic state is 1-A'.
 Alpha  occ. eigenvalues --  -20.57661 -20.53703  -1.34943  -1.31077  -0.72380
 Alpha  occ. eigenvalues --   -0.68514  -0.58613  -0.54476  -0.52059  -0.48211
 Alpha virt. eigenvalues --    0.11879   0.16811   0.19486   0.27339   0.50372
 Alpha virt. eigenvalues --    0.55353   0.56604   0.58466   0.69337   0.73455
 Alpha virt. eigenvalues --    0.75111   0.77514   0.80871   0.83057   0.83952

 Mulliken charges:
               1
     1  O   -0.528049
     2  H    0.271863
     3  H    0.243502
     4  O   -0.500725
     5  H    0.259876
     6  H    0.253533
 Sum of Mulliken charges =  -0.00000

 Dipole moment (field-independent basis, Debye):
    X=             -2.4725    Y=             -3.2021    Z=             -0.0000  Tot=              4.0455
 Quadrupole moment (field-independent basis, Debye-Ang):
   XX=             -9.8366   YY=             -8.3160   ZZ=            -14.7267
   XY=             -3.1906   XZ=              0.0000   YZ=             -0.0000

 Normal termination of Gaussian 16 at Sun Aug 28 00:51:31 2022.
