 Gaussian 16, Revision A.03,
 Gaussian 16:  ES64L-G16RevA.03 25-Dec-2016

 ------------------
 #p CCSD(T)/cc-pVTZ
 ------------------

 ---------
 H2O_H2O_0
 ---------
 Symbolic Z-matrix:
 Charge =  0 Multiplicity = 1

                         Standard orientation:
 ---------------------------------------------------------------------
 Center     Atomic      Atomic             Coordinates (Angstroms)
 Number     Number       Type             X           Y           Z
 ---------------------------------------------------------------------
      1          8           0        0.092949   -1.086872    0.000000
      2          1           0        0.092949   -0.104270    0.000000
      3          1           0       -0.836544   -1.405538    0.000000
      4          8           0        0.092949    0.954085    0.000000
      5          1           0        0.092949    1.936686    0.000000
      6          1           0       -0.836544    0.635418    0.000000
 ---------------------------------------------------------------------

 SCF Done:  E(RHF) =  -151.998434552     A.U. after   11 cycles
 E2 =    -0.5409511296D+00 EUMP2 =    -0.15253938568136D+03
 CCSD(T)
 CCSD(T)= -0.15256471744D+03

 The electronic state is 1-A'.
 Alpha  occ. eigenvalues --  -20.61746 -20.46664  -1.46172  -1.26365  -0.85726
 Alpha  occ. eigenvalues --   -0.70944  -0.58841  -0.55977  -0.47248  -0.43149
 Alpha virt. eigenvalues --    0.10626   0.15630   0.22191   0.31035   0.48766
 Alpha virt. eigenvalues --    0.50503   0.59945   0.68085   0.70325   0.72437
 Alpha virt. eigenvalues --    0.74550   0.78953   0.79666   0.85216   0.87305

 Mulliken charges:
               1
     1  O   -0.604933
     2  H    0.240086
     3  H    0.177205
     4  O   -0.279856
     5  H    0.224643
     6  H    0.242856
 Sum of Mulliken charges =  -0.00000

 Dipole moment (field-independent basis, Debye):
    X=             -2.8688    Y=              4.0588    Z=              0.0000  Tot=              4.9703
 Quadrupole moment (field-independent basis, Debye-Ang):
   XX=            -10.7550   YY=            -10.1517   ZZ=            -14.4658
   XY=              1.8566   XZ=              0.0000   YZ=              0.0000

 Normal termination of Gaussian 16 at Fri Aug 26 15:11:29 2022.
