 Gaussian 16, Revision A.03,
 Gaussian 16:  ES64L-G16RevA.03 25-Dec-2016

 ------------------
 #p CCSD(T)/cc-pVTZ
 ------------------

 ------------
 H2O_H2O_4776
 ------------
 Symbolic Z-matrix:
 Charge =  0 Multiplicity = 1

                         Standard orientation:
 ---------------------------------------------------------------------
 Center     Atomic      Atomic             Coordinates (Angstroms)
 Number     Number       Type             X           Y           Z
 ---------------------------------------------------------------------
      1          8           0        0.090683   -2.994729    0.000000
      2          1           0        0.090617   -2.012127    0.000000
      3          1           0       -0.838788   -3.313457    0.000000
      4          8           0        0.090683    2.856017    0.000000
      5          1           0        0.154883    3.836519    0.000000
      6          1           0       -0.857645    2.598760    0.000000
 ---------------------------------------------------------------------

 SCF Done:  E(RHF) =  -152.107660330     A.U. after   10 cycles
 E2 =    -0.5258643811D+00 EUMP2 =    -0.15263352471085D+03
 CCSD(T)
 CCSD(T)= -0.15266073949D+03

 The electronic state is 1-A'.
 Alpha  occ. eigenvalues --  -20.56163 -20.55331  -1.33465  -1.32632  -0.70878
 Alpha  occ. eigenvalues --   -0.70030  -0.56925  -0.56085  -0.50576  -0.49746
 Alpha virt. eigenvalues --    0.13054   0.14621   0.19072   0.21331   0.53400
 Alpha virt. eigenvalues --    0.54729   0.56594   0.57604   0.67039   0.68336
 Alpha virt. eigenvalues --    0.78313   0.79128   0.79698   0.80997   0.81659

 Mulliken charges:
               1
     1  O   -0.509774
     2  H    0.257310
     3  H    0.252434
     4  O   -0.510656
     5  H    0.257830
     6  H    0.252856
 Sum of Mulliken charges =  -0.00000

 Dipole moment (field-independent basis, Debye):
    X=             -3.1121    Y=              2.4288    Z=              0.0000  Tot=              3.9477
 Quadrupole moment (field-independent basis, Debye-Ang):
   XX=            -10.6990   YY=             -8.8502   ZZ=            -14.7120
   XY=              2.4293   XZ=              0.0000   YZ=              0.0000

 Normal termination of Gaussian 16 at Sun Aug 28 05:49:37 2022.
