 Gaussian 16, Revision A.03,
 Gaussian 16:  ES64L-G16RevA.03 25-Dec-2016

 ------------------
 #p CCSD(T)/cc-pVTZ
 ------------------

 ------------
 H2O_H2O_1444
 ------------
 Symbolic Z-matrix:
 Charge =  0 Multiplicity = 1

                         Standard orientation:
 ---------------------------------------------------------------------
 Center     Atomic      Atomic             Coordinates (Angstroms)
 Number     Number       Type             X           Y           Z
 ---------------------------------------------------------------------
      1          8           0        0.030278    1.678510   -0.000000
      2          1           0        0.026929    0.695914   -0.000000
      3          1           0       -0.898124    2.000342   -0.000000
      4          8           0        0.030278   -1.502964    0.000000
      5          1           0        0.959651   -1.821979    0.000000
      6          1           0       -0.572900   -2.278646    0.000000
 ---------------------------------------------------------------------

 SCF Done:  E(RHF) =  -152.113974579     A.U. after   10 cycles
 E2 =    -0.5272105158D+00 EUMP2 =    -0.15264118509434D+03
 CCSD(T)
 CCSD(T)= -0.15266817238D+03

 The electronic state is 1-A'.
 Alpha  occ. eigenvalues --  -20.58009 -20.52876  -1.35317  -1.30338  -0.72684
 Alpha  occ. eigenvalues --   -0.68023  -0.59154  -0.53656  -0.52441  -0.47492
 Alpha virt. eigenvalues --    0.12117   0.17784   0.18908   0.29357   0.50242
 Alpha virt. eigenvalues --    0.54337   0.55921   0.60438   0.68804   0.72659
 Alpha virt. eigenvalues --    0.74060   0.77057   0.81599   0.82928   0.84642

 Mulliken charges:
               1
     1  O   -0.546377
     2  H    0.278582
     3  H    0.249114
     4  O   -0.503917
     5  H    0.264959
     6  H    0.257640
 Sum of Mulliken charges =  -0.00000

 Dipole moment (field-independent basis, Debye):
    X=             -1.0176    Y=             -3.4662    Z=              0.0000  Tot=              3.6125
 Quadrupole moment (field-independent basis, Debye-Ang):
   XX=             -9.2292   YY=             -8.3713   ZZ=            -14.7344
   XY=             -4.0145   XZ=              0.0000   YZ=             -0.0000

 CCSD(T)=-152.6681724\RMSD=6.418e-09\PG=CS [SG(H4O2)]\\@
 Normal termination of Gaussian 16 at Sat Aug 27 00:37:23 2022.
