 Gaussian 16, Revision A.03,
 Gaussian 16:  ES64L-G16RevA.03 25-Dec-2016

 ------------------
 #p CCSD(T)/cc-pVTZ
 ------------------

 ------------
 H2O_H2O_2868
 ------------
 Symbolic Z-matrix:
 Charge =  0 Multiplicity = 1

                         Standard orientation:
 ---------------------------------------------------------------------
 Center     Atomic      Atomic             Coordinates (Angstroms)
 Number     Number       Type             X           Y           Z
 ---------------------------------------------------------------------
      1          8           0        0.033800    2.247974    0.000000
      2          1           0        0.031474    1.265376    0.000000
      3          1           0       -0.894936    2.568840    0.000000
      4          8           0        0.033800   -2.070459    0.000000
      5          1           0        0.940713   -2.448631    0.000000
      6          1           0       -0.618053   -2.805710    0.000000
 ---------------------------------------------------------------------

 SCF Done:  E(RHF) =  -152.110214316     A.U. after   10 cycles
 E2 =    -0.5259557776D+00 EUMP2 =    -0.15263617009389D+03
 CCSD(T)
 CCSD(T)= -0.15266330207D+03

 The electronic state is 1-A'.
 Alpha  occ. eigenvalues --  -20.56712 -20.54381  -1.33987  -1.31704  -0.71386
 Alpha  occ. eigenvalues --   -0.69103  -0.57547  -0.55196  -0.51119  -0.48844
 Alpha virt. eigenvalues --    0.12447   0.16086   0.19390   0.23088   0.53209
 Alpha virt. eigenvalues --    0.55560   0.56400   0.58613   0.68738   0.69365
 Alpha virt. eigenvalues --    0.77751   0.79057   0.79755   0.79984   0.83333

 Mulliken charges:
               1
     1  O   -0.521025
     2  H    0.264793
     3  H    0.252623
     4  O   -0.514206
     5  H    0.259976
     6  H    0.257839
 Sum of Mulliken charges =  -0.00000

 Dipole moment (field-independent basis, Debye):
    X=             -1.1524    Y=             -3.2100    Z=             -0.0000  Tot=              3.4106
 Quadrupole moment (field-independent basis, Debye-Ang):
   XX=             -9.1859   YY=             -7.3641   ZZ=            -14.7209
   XY=             -5.1164   XZ=             -0.0000   YZ=             -0.0000

 CCSD(T)=-152.6633021\RMSD=6.774e-09\PG=CS [SG(H4O2)]\\@
 Normal termination of Gaussian 16 at Fri Aug 26 17:52:50 2022.
