 Gaussian 16, Revision A.03,
 Gaussian 16:  ES64L-G16RevA.03 25-Dec-2016

 ------------------
 #p CCSD(T)/cc-pVTZ
 ------------------

 ------------
 H2O_H2O_4493
 ------------
 Symbolic Z-matrix:
 Charge =  0 Multiplicity = 1

                         Standard orientation:
 ---------------------------------------------------------------------
 Center     Atomic      Atomic             Coordinates (Angstroms)
 Number     Number       Type             X           Y           Z
 ---------------------------------------------------------------------
      1          8           0        0.033752    2.896167   -0.000000
      2          1           0        0.031963    1.913567   -0.000000
      3          1           0       -0.895160    3.216525   -0.000000
      4          8           0        0.033752   -2.718614    0.000000
      5          1           0        0.940871   -3.096291    0.000000
      6          1           0       -0.617699   -3.454221    0.000000
 ---------------------------------------------------------------------

 SCF Done:  E(RHF) =  -152.108484225     A.U. after   10 cycles
 E2 =    -0.5258010418D+00 EUMP2 =    -0.15263428526640D+03
 CCSD(T)
 CCSD(T)= -0.15266148121D+03

 The electronic state is 1-A'.
 Alpha  occ. eigenvalues --  -20.56183 -20.54954  -1.33485  -1.32262  -0.70888
 Alpha  occ. eigenvalues --   -0.69665  -0.56981  -0.55735  -0.50604  -0.49386
 Alpha virt. eigenvalues --    0.13351   0.14944   0.19671   0.21079   0.53620
 Alpha virt. eigenvalues --    0.54870   0.56672   0.57801   0.66829   0.68750
 Alpha virt. eigenvalues --    0.78282   0.79469   0.79587   0.80261   0.82661

 Mulliken charges:
               1
     1  O   -0.514365
     2  H    0.260337
     3  H    0.253897
     4  O   -0.514992
     5  H    0.257905
     6  H    0.257219
 Sum of Mulliken charges =  -0.00000

 Dipole moment (field-independent basis, Debye):
    X=             -1.1579    Y=             -3.1166    Z=              0.0000  Tot=              3.3248
 Quadrupole moment (field-independent basis, Debye-Ang):
   XX=             -9.1868   YY=             -6.3804   ZZ=            -14.7150
   XY=             -6.4421   XZ=              0.0000   YZ=             -0.0000

 Normal termination of Gaussian 16 at Sun Aug 28 03:20:25 2022.
