 Gaussian 16, Revision A.03,
 Gaussian 16:  ES64L-G16RevA.03 25-Dec-2016

 ------------------
 #p CCSD(T)/cc-pVTZ
 ------------------

 -----------
 H2O_H2O_952
 -----------
 Symbolic Z-matrix:
 Charge =  0 Multiplicity = 1

                         Standard orientation:
 ---------------------------------------------------------------------
 Center     Atomic      Atomic             Coordinates (Angstroms)
 Number     Number       Type             X           Y           Z
 ---------------------------------------------------------------------
      1          8           0        0.088240   -1.472059    0.000000
      2          1           0        0.087954   -0.489458    0.000000
      3          1           0       -0.841160   -1.790996    0.000000
      4          8           0        0.088240    1.327760    0.000000
      5          1           0        0.216211    2.301992    0.000000
      6          1           0       -0.874840    1.132861    0.000000
 ---------------------------------------------------------------------

 SCF Done:  E(RHF) =  -152.107029870     A.U. after   10 cycles
 E2 =    -0.5296758026D+00 EUMP2 =    -0.15263670567304D+03
 CCSD(T)
 CCSD(T)= -0.15266361908D+03

 The electronic state is 1-A'.
 Alpha  occ. eigenvalues --  -20.58824 -20.52986  -1.36520  -1.30570  -0.74653
 Alpha  occ. eigenvalues --   -0.68143  -0.59628  -0.53693  -0.53413  -0.47628
 Alpha virt. eigenvalues --    0.11464   0.16536   0.20447   0.31043   0.48337
 Alpha virt. eigenvalues --    0.53340   0.58369   0.60862   0.68585   0.71902
 Alpha virt. eigenvalues --    0.74199   0.77892   0.80255   0.82102   0.83253

 Mulliken charges:
               1
     1  O   -0.542373
     2  H    0.286281
     3  H    0.230138
     4  O   -0.444538
     5  H    0.235436
     6  H    0.235057
 Sum of Mulliken charges =  -0.00000

 Dipole moment (field-independent basis, Debye):
    X=             -2.8983    Y=              3.0710    Z=              0.0000  Tot=              4.2227
 Quadrupole moment (field-independent basis, Debye-Ang):
   XX=            -10.6059   YY=             -9.0657   ZZ=            -14.6932
   XY=              2.3816   XZ=              0.0000   YZ=              0.0000

 Normal termination of Gaussian 16 at Fri Aug 26 21:32:09 2022.
