 Gaussian 16, Revision A.03,
 Gaussian 16:  ES64L-G16RevA.03 25-Dec-2016

 ------------------
 #p CCSD(T)/cc-pVTZ
 ------------------

 -----------
 H2O_H2O_887
 -----------
 Symbolic Z-matrix:
 Charge =  0 Multiplicity = 1

                         Standard orientation:
 ---------------------------------------------------------------------
 Center     Atomic      Atomic             Coordinates (Angstroms)
 Number     Number       Type             X           Y           Z
 ---------------------------------------------------------------------
      1          8           0        0.056072    1.460894   -0.000000
      2          1           0        0.053784    0.478295   -0.000000
      3          1           0       -0.872677    1.781724   -0.000000
      4          8           0        0.056072   -1.282089    0.000000
      5          1           0        0.749256   -1.978508    0.000000
      6          1           0       -0.827514   -1.711953    0.000000
 ---------------------------------------------------------------------

 SCF Done:  E(RHF) =  -152.111818793     A.U. after   10 cycles
 E2 =    -0.5292569133D+00 EUMP2 =    -0.15264107570660D+03
 CCSD(T)
 CCSD(T)= -0.15266784738D+03

 The electronic state is 1-A'.
 Alpha  occ. eigenvalues --  -20.59111 -20.51161  -1.36738  -1.28964  -0.73894
 Alpha  occ. eigenvalues --   -0.68470  -0.59667  -0.53738  -0.51842  -0.46045
 Alpha virt. eigenvalues --    0.11663   0.17705   0.19314   0.32436   0.48097
 Alpha virt. eigenvalues --    0.54455   0.58477   0.60526   0.69962   0.71997
 Alpha virt. eigenvalues --    0.72547   0.77496   0.82039   0.82849   0.84632

 Mulliken charges:
               1
     1  O   -0.574246
     2  H    0.303637
     3  H    0.235194
     4  O   -0.481214
     5  H    0.261780
     6  H    0.254849
 Sum of Mulliken charges =  -0.00000

 Dipole moment (field-independent basis, Debye):
    X=             -1.8373    Y=             -3.8547    Z=              0.0000  Tot=              4.2702
 Quadrupole moment (field-independent basis, Debye-Ang):
   XX=             -9.2911   YY=             -8.8966   ZZ=            -14.7170
   XY=             -3.2356   XZ=              0.0000   YZ=              0.0000

 Normal termination of Gaussian 16 at Fri Aug 26 21:08:40 2022.
