 Gaussian 16, Revision A.03,
 Gaussian 16:  ES64L-G16RevA.03 25-Dec-2016

 ------------------
 #p CCSD(T)/cc-pVTZ
 ------------------

 -----------
 H2O_H2O_996
 -----------
 Symbolic Z-matrix:
 Charge =  0 Multiplicity = 1

                         Standard orientation:
 ---------------------------------------------------------------------
 Center     Atomic      Atomic             Coordinates (Angstroms)
 Number     Number       Type             X           Y           Z
 ---------------------------------------------------------------------
      1          8           0       -0.023346    1.496176    0.000000
      2          1           0       -0.019152    0.513583    0.000000
      3          1           0        0.904778    1.818807    0.000000
      4          8           0       -0.023346   -1.325864    0.000000
      5          1           0       -0.986241   -1.521672    0.000000
      6          1           0        0.474154   -2.173213    0.000000
 ---------------------------------------------------------------------

 SCF Done:  E(RHF) =  -152.112705069     A.U. after   10 cycles
 E2 =    -0.5286495109D+00 EUMP2 =    -0.15264135458020D+03
 CCSD(T)
 CCSD(T)= -0.15266819634D+03

 The electronic state is 1-A'.
 Alpha  occ. eigenvalues --  -20.58784 -20.51745  -1.36344  -1.29442  -0.73782
 Alpha  occ. eigenvalues --   -0.67972  -0.59858  -0.53370  -0.52420  -0.46560
 Alpha virt. eigenvalues --    0.11940   0.18370   0.18750   0.32070   0.48798
 Alpha virt. eigenvalues --    0.54612   0.56235   0.63329   0.68347   0.72641
 Alpha virt. eigenvalues --    0.73295   0.76998   0.81714   0.82734   0.84362

 Mulliken charges:
               1
     1  O   -0.572180
     2  H    0.292663
     3  H    0.247248
     4  O   -0.477416
     5  H    0.263349
     6  H    0.246336
 Sum of Mulliken charges =  -0.00000

 Dipole moment (field-independent basis, Debye):
    X=              0.7790    Y=             -3.6035    Z=              0.0000  Tot=              3.6867
 Quadrupole moment (field-independent basis, Debye-Ang):
   XX=             -9.3501   YY=             -8.8139   ZZ=            -14.7202
   XY=              3.7339   XZ=              0.0000   YZ=              0.0000

 Normal termination of Gaussian 16 at Fri Aug 26 21:48:24 2022.
