 Gaussian 16, Revision A.03,
 Gaussian 16:  ES64L-G16RevA.03 25-Dec-2016

 ------------------
 #p CCSD(T)/cc-pVTZ
 ------------------

 ------------
 H2O_H2O_1643
 ------------
 Symbolic Z-matrix:
 Charge =  0 Multiplicity = 1

                         Standard orientation:
 ---------------------------------------------------------------------
 Center     Atomic      Atomic             Coordinates (Angstroms)
 Number     Number       Type             X           Y           Z
 ---------------------------------------------------------------------
      1          8           0        0.033862    1.759328   -0.000000
      2          1           0        0.030856    0.776731   -0.000000
      3          1           0       -0.894652    2.080836   -0.000000
      4          8           0        0.033862   -1.581859    0.000000
      5          1           0        0.940513   -1.960660    0.000000
      6          1           0       -0.618500   -2.316658    0.000000
 ---------------------------------------------------------------------

 SCF Done:  E(RHF) =  -152.113563810     A.U. after   10 cycles
 E2 =    -0.5268385772D+00 EUMP2 =    -0.15264040238683D+03
 CCSD(T)
 CCSD(T)= -0.15266742206D+03

 The electronic state is 1-A'.
 Alpha  occ. eigenvalues --  -20.57745 -20.53206  -1.35017  -1.30618  -0.72385
 Alpha  occ. eigenvalues --   -0.68166  -0.58819  -0.54009  -0.52152  -0.47775
 Alpha virt. eigenvalues --    0.12164   0.17505   0.18998   0.28188   0.50847
 Alpha virt. eigenvalues --    0.54369   0.56112   0.59649   0.68982   0.72519
 Alpha virt. eigenvalues --    0.74884   0.77104   0.81251   0.83163   0.84634

 Mulliken charges:
               1
     1  O   -0.539190
     2  H    0.273997
     3  H    0.249406
     4  O   -0.507286
     5  H    0.264114
     6  H    0.258959
 Sum of Mulliken charges =  -0.00000

 Dipole moment (field-independent basis, Debye):
    X=             -1.1409    Y=             -3.4331    Z=              0.0000  Tot=              3.6177
 Quadrupole moment (field-independent basis, Debye-Ang):
   XX=             -9.1876   YY=             -8.1876   ZZ=            -14.7340
   XY=             -4.1087   XZ=              0.0000   YZ=             -0.0000

 Normal termination of Gaussian 16 at Sun Aug 28 00:16:55 2022.
