 Gaussian 16, Revision A.03,
 Gaussian 16:  ES64L-G16RevA.03 25-Dec-2016

 ------------------
 #p CCSD(T)/cc-pVTZ
 ------------------

 ------------
 H2O_H2O_4741
 ------------
 Symbolic Z-matrix:
 Charge =  0 Multiplicity = 1

                         Standard orientation:
 ---------------------------------------------------------------------
 Center     Atomic      Atomic             Coordinates (Angstroms)
 Number     Number       Type             X           Y           Z
 ---------------------------------------------------------------------
      1          8           0        0.041101    2.997193   -0.000000
      2          1           0        0.039589    2.014593   -0.000000
      3          1           0       -0.887900    3.317290   -0.000000
      4          8           0        0.041101   -2.817232    0.000000
      5          1           0        0.891303   -3.309842    0.000000
      6          1           0       -0.700611   -3.461723    0.000000
 ---------------------------------------------------------------------

 SCF Done:  E(RHF) =  -152.108346441     A.U. after   10 cycles
 E2 =    -0.5258037648D+00 EUMP2 =    -0.15263415020531D+03
 CCSD(T)
 CCSD(T)= -0.15266135012D+03

 The electronic state is 1-A'.
 Alpha  occ. eigenvalues --  -20.56143 -20.54991  -1.33445  -1.32298  -0.70849
 Alpha  occ. eigenvalues --   -0.69701  -0.56936  -0.55768  -0.50564  -0.49421
 Alpha virt. eigenvalues --    0.13471   0.14844   0.19727   0.20960   0.53698
 Alpha virt. eigenvalues --    0.54826   0.56699   0.57786   0.66961   0.68613
 Alpha virt. eigenvalues --    0.78320   0.79437   0.79721   0.80358   0.82455

 Mulliken charges:
               1
     1  O   -0.513684
     2  H    0.259946
     3  H    0.253671
     4  O   -0.514336
     5  H    0.257794
     6  H    0.256607
 Sum of Mulliken charges =  -0.00000

 Dipole moment (field-independent basis, Debye):
    X=             -1.4106    Y=             -3.1529    Z=              0.0000  Tot=              3.4540
 Quadrupole moment (field-independent basis, Debye-Ang):
   XX=             -9.1496   YY=             -6.0845   ZZ=            -14.7146
   XY=             -6.1794   XZ=              0.0000   YZ=             -0.0000

 Normal termination of Gaussian 16 at Sun Aug 28 05:30:51 2022.
