 Gaussian 16, Revision A.03,
 Gaussian 16:  ES64L-G16RevA.03 25-Dec-2016

 ------------------
 #p CCSD(T)/cc-pVTZ
 ------------------

 ------------
 H2O_H2O_2388
 ------------
 Symbolic Z-matrix:
 Charge =  0 Multiplicity = 1

                         Standard orientation:
 ---------------------------------------------------------------------
 Center     Atomic      Atomic             Coordinates (Angstroms)
 Number     Number       Type             X           Y           Z
 ---------------------------------------------------------------------
      1          8           0        0.052319    2.059782    0.000000
      2          1           0        0.050567    1.077182    0.000000
      3          1           0       -0.876604    2.380105    0.000000
      4          8           0        0.052319   -1.879916    0.000000
      5          1           0        0.789922   -2.529106    0.000000
      6          1           0       -0.800994   -2.367114    0.000000
 ---------------------------------------------------------------------

 SCF Done:  E(RHF) =  -152.111110600     A.U. after   10 cycles
 E2 =    -0.5261612394D+00 EUMP2 =    -0.15263727183911D+03
 CCSD(T)
 CCSD(T)= -0.15266437124D+03

 The electronic state is 1-A'.
 Alpha  occ. eigenvalues --  -20.57030 -20.54051  -1.34288  -1.31387  -0.71683
 Alpha  occ. eigenvalues --   -0.68783  -0.57897  -0.54868  -0.51424  -0.48531
 Alpha virt. eigenvalues --    0.12287   0.16535   0.19304   0.24527   0.52461
 Alpha virt. eigenvalues --    0.55557   0.56258   0.59013   0.69006   0.71190
 Alpha virt. eigenvalues --    0.77192   0.78464   0.80324   0.81647   0.83639

 Mulliken charges:
               1
     1  O   -0.523797
     2  H    0.267144
     3  H    0.249582
     4  O   -0.509946
     5  H    0.260676
     6  H    0.256341
 Sum of Mulliken charges =  -0.00000

 Dipole moment (field-independent basis, Debye):
    X=             -1.7757    Y=             -3.3147    Z=              0.0000  Tot=              3.7604
 Quadrupole moment (field-independent basis, Debye-Ang):
   XX=             -9.2288   YY=             -7.6042   ZZ=            -14.7238
   XY=             -4.1578   XZ=             -0.0000   YZ=              0.0000

 Normal termination of Gaussian 16 at Sun Aug 28 06:50:40 2022.
