 Gaussian 16, Revision A.03,
 Gaussian 16:  ES64L-G16RevA.03 25-Dec-2016

 ------------------
 #p CCSD(T)/cc-pVTZ
 ------------------

 ------------
 H2O_H2O_2946
 ------------
 Symbolic Z-matrix:
 Charge =  0 Multiplicity = 1

                         Standard orientation:
 ---------------------------------------------------------------------
 Center     Atomic      Atomic             Coordinates (Angstroms)
 Number     Number       Type             X           Y           Z
 ---------------------------------------------------------------------
      1          8           0       -0.023217    2.274017    0.000000
      2          1           0       -0.020513    1.291420    0.000000
      3          1           0        0.905396    2.595240    0.000000
      4          8           0       -0.023217   -2.103635    0.000000
      5          1           0       -0.986407   -2.297983    0.000000
      6          1           0        0.472997   -2.951737    0.000000
 ---------------------------------------------------------------------

 SCF Done:  E(RHF) =  -152.109998779     A.U. after   10 cycles
 E2 =    -0.5259330597D+00 EUMP2 =    -0.15263593183907D+03
 CCSD(T)
 CCSD(T)= -0.15266307138D+03

 The electronic state is 1-A'.
 Alpha  occ. eigenvalues --  -20.56660 -20.54511  -1.33942  -1.31832  -0.71345
 Alpha  occ. eigenvalues --   -0.69236  -0.57491  -0.55324  -0.51071  -0.48971
 Alpha virt. eigenvalues --    0.12382   0.15987   0.19331   0.23034   0.53516
 Alpha virt. eigenvalues --    0.55559   0.56426   0.58398   0.68358   0.69369
 Alpha virt. eigenvalues --    0.77808   0.78931   0.79862   0.80191   0.83220

 Mulliken charges:
               1
     1  O   -0.520620
     2  H    0.263804
     3  H    0.253820
     4  O   -0.514788
     5  H    0.259321
     6  H    0.258463
 Sum of Mulliken charges =   0.00000

 Dipole moment (field-independent basis, Debye):
    X=              0.7938    Y=             -3.0711    Z=              0.0000  Tot=              3.1721
 Quadrupole moment (field-independent basis, Debye-Ang):
   XX=             -9.3612   YY=             -7.5731   ZZ=            -14.7201
   XY=              5.6305   XZ=              0.0000   YZ=              0.0000

 Normal termination of Gaussian 16 at Fri Aug 26 18:37:52 2022.
