 Gaussian 16, Revision A.03,
 Gaussian 16:  ES64L-G16RevA.03 25-Dec-2016

 ------------------
 #p CCSD(T)/cc-pVTZ
 ------------------

 -----------
 H2O_H2O_753
 -----------
 Symbolic Z-matrix:
 Charge =  0 Multiplicity = 1

                         Standard orientation:
 ---------------------------------------------------------------------
 Center     Atomic      Atomic             Coordinates (Angstroms)
 Number     Number       Type             X           Y           Z
 ---------------------------------------------------------------------
      1          8           0        0.085616   -1.395143    0.000000
      2          1           0        0.085144   -0.412542    0.000000
      3          1           0       -0.843724   -1.714256    0.000000
      4          8           0        0.085616    1.245580    0.000000
      5          1           0        0.276850    2.209394    0.000000
      6          1           0       -0.888122    1.113904    0.000000
 ---------------------------------------------------------------------

 SCF Done:  E(RHF) =  -152.103959549     A.U. after   10 cycles
 E2 =    -0.5308369709D+00 EUMP2 =    -0.15263479652037D+03
 CCSD(T)
 CCSD(T)= -0.15266155435D+03

 The electronic state is 1-A'.
 Alpha  occ. eigenvalues --  -20.59322 -20.51999  -1.37317  -1.29786  -0.75557
 Alpha  occ. eigenvalues --   -0.68175  -0.59714  -0.54069  -0.52699  -0.46812
 Alpha virt. eigenvalues --    0.11377   0.16598   0.20452   0.32051   0.48268
 Alpha virt. eigenvalues --    0.53084   0.58693   0.62367   0.69363   0.71769
 Alpha virt. eigenvalues --    0.74174   0.78009   0.79532   0.82938   0.83349

 Mulliken charges:
               1
     1  O   -0.557419
     2  H    0.291787
     3  H    0.225029
     4  O   -0.427809
     5  H    0.234235
     6  H    0.234178
 Sum of Mulliken charges =  -0.00000

 Dipole moment (field-independent basis, Debye):
    X=             -2.7851    Y=              3.3371    Z=              0.0000  Tot=              4.3466
 Quadrupole moment (field-independent basis, Debye-Ang):
   XX=            -10.4457   YY=             -9.1381   ZZ=            -14.6783
   XY=              2.4761   XZ=              0.0000   YZ=              0.0000

 Normal termination of Gaussian 16 at Fri Aug 26 20:17:49 2022.
