 Gaussian 16, Revision A.03,
 Gaussian 16:  ES64L-G16RevA.03 25-Dec-2016

 ------------------
 #p CCSD(T)/cc-pVTZ
 ------------------

 ------------
 H2O_H2O_4442
 ------------
 Symbolic Z-matrix:
 Charge =  0 Multiplicity = 1

                         Standard orientation:
 ---------------------------------------------------------------------
 Center     Atomic      Atomic             Coordinates (Angstroms)
 Number     Number       Type             X           Y           Z
 ---------------------------------------------------------------------
      1          8           0        0.037411    2.877006    0.000000
      2          1           0        0.035720    1.894406    0.000000
      3          1           0       -0.891533    3.197270   -0.000000
      4          8           0        0.037411   -2.698012    0.000000
      5          1           0        0.917931   -3.134120    0.000000
      6          1           0       -0.660688   -3.389506   -0.000000
 ---------------------------------------------------------------------

 SCF Done:  E(RHF) =  -152.108504119     A.U. after   10 cycles
 E2 =    -0.5258029324D+00 EUMP2 =    -0.15263430705141D+03
 CCSD(T)
 CCSD(T)= -0.15266150213D+03

 The electronic state is 1-A'.
 Alpha  occ. eigenvalues --  -20.56193 -20.54933  -1.33494  -1.32241  -0.70898
 Alpha  occ. eigenvalues --   -0.69644  -0.56991  -0.55714  -0.50614  -0.49365
 Alpha virt. eigenvalues --    0.13335   0.14970   0.19682   0.21089   0.53629
 Alpha virt. eigenvalues --    0.54869   0.56663   0.57805   0.66802   0.68794
 Alpha virt. eigenvalues --    0.78273   0.79489   0.79604   0.80147   0.82708

 Mulliken charges:
               1
     1  O   -0.514396
     2  H    0.260540
     3  H    0.253703
     4  O   -0.515046
     5  H    0.258102
     6  H    0.257097
 Sum of Mulliken charges =  -0.00000

 Dipole moment (field-independent basis, Debye):
    X=             -1.2831    Y=             -3.1436    Z=              0.0000  Tot=              3.3953
 Quadrupole moment (field-independent basis, Debye-Ang):
   XX=             -9.1595   YY=             -6.3314   ZZ=            -14.7151
   XY=             -6.1826   XZ=              0.0000   YZ=              0.0000

 Normal termination of Gaussian 16 at Sun Aug 28 02:52:21 2022.
