 Gaussian 16, Revision A.03,
 Gaussian 16:  ES64L-G16RevA.03 25-Dec-2016

 ------------------
 #p CCSD(T)/cc-pVTZ
 ------------------

 ------------
 H2O_H2O_1780
 ------------
 Symbolic Z-matrix:
 Charge =  0 Multiplicity = 1

                         Standard orientation:
 ---------------------------------------------------------------------
 Center     Atomic      Atomic             Coordinates (Angstroms)
 Number     Number       Type             X           Y           Z
 ---------------------------------------------------------------------
      1          8           0        0.079864   -1.809138    0.000000
      2          1           0        0.079222   -0.826537    0.000000
      3          1           0       -0.849420   -2.128412    0.000000
      4          8           0        0.079864    1.650101    0.000000
      5          1           0        0.395103    2.580763    0.000000
      6          1           0       -0.902731    1.646480    0.000000
 ---------------------------------------------------------------------

 SCF Done:  E(RHF) =  -152.111032421     A.U. after   10 cycles
 E2 =    -0.5268583475D+00 EUMP2 =    -0.15263789076874D+03
 CCSD(T)
 CCSD(T)= -0.15266496377D+03

 The electronic state is 1-A'.
 Alpha  occ. eigenvalues --  -20.57561 -20.54009  -1.34849  -1.31363  -0.72321
 Alpha  occ. eigenvalues --   -0.68750  -0.58464  -0.54773  -0.51957  -0.48490
 Alpha virt. eigenvalues --    0.11785   0.16588   0.19683   0.26777   0.50776
 Alpha virt. eigenvalues --    0.55457   0.56755   0.58106   0.69057   0.73816
 Alpha virt. eigenvalues --    0.75361   0.77973   0.80611   0.83028   0.83640

 Mulliken charges:
               1
     1  O   -0.524119
     2  H    0.270045
     3  H    0.243445
     4  O   -0.499399
     5  H    0.258430
     6  H    0.251599
 Sum of Mulliken charges =  -0.00000

 Dipole moment (field-independent basis, Debye):
    X=             -2.6866    Y=              3.0292    Z=              0.0000  Tot=              4.0489
 Quadrupole moment (field-independent basis, Debye-Ang):
   XX=            -10.1268   YY=             -8.4438   ZZ=            -14.7231
   XY=              2.9472   XZ=              0.0000   YZ=              0.0000

 Normal termination of Gaussian 16 at Sun Aug 28 01:30:14 2022.
