 Gaussian 16, Revision A.03,
 Gaussian 16:  ES64L-G16RevA.03 25-Dec-2016

 ------------------
 #p CCSD(T)/cc-pVTZ
 ------------------

 ------------
 H2O_H2O_1065
 ------------
 Symbolic Z-matrix:
 Charge =  0 Multiplicity = 1

                         Standard orientation:
 ---------------------------------------------------------------------
 Center     Atomic      Atomic             Coordinates (Angstroms)
 Number     Number       Type             X           Y           Z
 ---------------------------------------------------------------------
      1          8           0        0.044953    1.531515    0.000000
      2          1           0        0.042120    0.548917    0.000000
      3          1           0       -0.883618    1.852859    0.000000
      4          8           0        0.044953   -1.351209    0.000000
      5          1           0        0.860378   -1.899465    0.000000
      6          1           0       -0.738122   -1.944757    0.000000
 ---------------------------------------------------------------------

 SCF Done:  E(RHF) =  -152.113780412     A.U. after   10 cycles
 E2 =    -0.5283802629D+00 EUMP2 =    -0.15264216067506D+03
 CCSD(T)
 CCSD(T)= -0.15266902817D+03

 The electronic state is 1-A'.
 Alpha  occ. eigenvalues --  -20.58710 -20.51746  -1.36166  -1.29402  -0.73381
 Alpha  occ. eigenvalues --   -0.68018  -0.59697  -0.53239  -0.52462  -0.46521
 Alpha virt. eigenvalues --    0.11866   0.18079   0.18894   0.31660   0.48617
 Alpha virt. eigenvalues --    0.54719   0.56540   0.60987   0.69083   0.71562
 Alpha virt. eigenvalues --    0.72879   0.77380   0.82441   0.82560   0.84888

 Mulliken charges:
               1
     1  O   -0.564788
     2  H    0.295337
     3  H    0.241416
     4  O   -0.496068
     5  H    0.266180
     6  H    0.257923
 Sum of Mulliken charges =  -0.00000

 Dipole moment (field-independent basis, Debye):
    X=             -1.4872    Y=             -3.7579    Z=              0.0000  Tot=              4.0415
 Quadrupole moment (field-independent basis, Debye-Ang):
   XX=             -9.1554   YY=             -8.6958   ZZ=            -14.7289
   XY=             -3.4786   XZ=             -0.0000   YZ=              0.0000

 CCSD(T)=-152.6690282\RMSD=7.338e-09\PG=CS [SG(H4O2)]\\@
 Normal termination of Gaussian 16 at Fri Aug 26 22:14:48 2022.
