 Gaussian 16, Revision A.03,
 Gaussian 16:  ES64L-G16RevA.03 25-Dec-2016

 ------------------
 #p CCSD(T)/cc-pVTZ
 ------------------

 -----------
 H2O_H2O_162
 -----------
 Symbolic Z-matrix:
 Charge =  0 Multiplicity = 1

                         Standard orientation:
 ---------------------------------------------------------------------
 Center     Atomic      Atomic             Coordinates (Angstroms)
 Number     Number       Type             X           Y           Z
 ---------------------------------------------------------------------
      1          8           0        0.056127    1.171674    0.000000
      2          1           0        0.053229    0.189077    0.000000
      3          1           0       -0.872421    1.493081    0.000000
      4          8           0        0.056127   -0.992938   -0.000000
      5          1           0        0.748879   -1.689789   -0.000000
      6          1           0       -0.827726   -1.422253   -0.000000
 ---------------------------------------------------------------------

 SCF Done:  E(RHF) =  -152.062361835     A.U. after   11 cycles
 E2 =    -0.5350337088D+00 EUMP2 =    -0.15259739554414D+03
 CCSD(T)
 CCSD(T)= -0.15262314503D+03

 The electronic state is 1-A'.
 Alpha  occ. eigenvalues --  -20.61634 -20.45454  -1.42249  -1.25208  -0.78224
 Alpha  occ. eigenvalues --   -0.76017  -0.57735  -0.55584  -0.45827  -0.41830
 Alpha virt. eigenvalues --    0.10548   0.16544   0.20965   0.32971   0.47562
 Alpha virt. eigenvalues --    0.52290   0.62772   0.63797   0.71227   0.71299
 Alpha virt. eigenvalues --    0.79061   0.79529   0.81096   0.82524   0.85917

 Mulliken charges:
               1
     1  O   -0.651826
     2  H    0.297842
     3  H    0.205151
     4  O   -0.343211
     5  H    0.247689
     6  H    0.244354
 Sum of Mulliken charges =  -0.00000

 Dipole moment (field-independent basis, Debye):
    X=             -1.7184    Y=             -4.8466    Z=             -0.0000  Tot=              5.1422
 Quadrupole moment (field-independent basis, Debye-Ang):
   XX=             -9.2504   YY=            -10.0227   ZZ=            -14.5880
   XY=             -2.7390   XZ=             -0.0000   YZ=              0.0000

 Normal termination of Gaussian 16 at Fri Aug 26 16:17:42 2022.
