 Gaussian 16, Revision A.03,
 Gaussian 16:  ES64L-G16RevA.03 25-Dec-2016

 ------------------
 #p CCSD(T)/cc-pVTZ
 ------------------

 ------------
 H2O_H2O_1074
 ------------
 Symbolic Z-matrix:
 Charge =  0 Multiplicity = 1

                         Standard orientation:
 ---------------------------------------------------------------------
 Center     Atomic      Atomic             Coordinates (Angstroms)
 Number     Number       Type             X           Y           Z
 ---------------------------------------------------------------------
      1          8           0        0.013657   -1.520066    0.000000
      2          1           0        0.008978   -0.537476    0.000000
      3          1           0       -0.914308   -1.843155    0.000000
      4          8           0        0.013657    1.360851    0.000000
      5          1           0        0.996247    1.365530    0.000000
      6          1           0       -0.309431    2.288817    0.000000
 ---------------------------------------------------------------------

 SCF Done:  E(RHF) =  -152.112189090     A.U. after   10 cycles
 E2 =    -0.5283952225D+00 EUMP2 =    -0.15264058431213D+03
 CCSD(T)
 CCSD(T)= -0.15266748564D+03

 The electronic state is 1-A'.
 Alpha  occ. eigenvalues --  -20.58561 -20.52379  -1.36098  -1.29991  -0.73783
 Alpha  occ. eigenvalues --   -0.67888  -0.59803  -0.53120  -0.53060  -0.47118
 Alpha virt. eigenvalues --    0.12040   0.17998   0.19083   0.31590   0.49271
 Alpha virt. eigenvalues --    0.54557   0.55734   0.63039   0.68413   0.72637
 Alpha virt. eigenvalues --    0.74517   0.76404   0.81427   0.82354   0.84243

 Mulliken charges:
               1
     1  O   -0.565257
     2  H    0.285393
     3  H    0.251952
     4  O   -0.471751
     5  H    0.260529
     6  H    0.239134
 Sum of Mulliken charges =  -0.00000

 Dipole moment (field-independent basis, Debye):
    X=             -0.4683    Y=              3.3222    Z=              0.0000  Tot=              3.3551
 Quadrupole moment (field-independent basis, Debye-Ang):
   XX=             -9.6385   YY=             -8.8336   ZZ=            -14.7177
   XY=              4.0726   XZ=              0.0000   YZ=              0.0000

 Normal termination of Gaussian 16 at Fri Aug 26 22:18:03 2022.
