 Gaussian 16, Revision A.03,
 Gaussian 16:  ES64L-G16RevA.03 25-Dec-2016

 ------------------
 #p CCSD(T)/cc-pVTZ
 ------------------

 -----------
 H2O_H2O_785
 -----------
 Symbolic Z-matrix:
 Charge =  0 Multiplicity = 1

                         Standard orientation:
 ---------------------------------------------------------------------
 Center     Atomic      Atomic             Coordinates (Angstroms)
 Number     Number       Type             X           Y           Z
 ---------------------------------------------------------------------
      1          8           0        0.063306    1.419159    0.000000
      2          1           0        0.061412    0.436559    0.000000
      3          1           0       -0.865571    1.739617    0.000000
      4          8           0        0.063306   -1.243752   -0.000000
      5          1           0        0.659972   -2.024453   -0.000000
      6          1           0       -0.868705   -1.554980   -0.000000
 ---------------------------------------------------------------------

 SCF Done:  E(RHF) =  -152.109509260     A.U. after   10 cycles
 E2 =    -0.5299321789D+00 EUMP2 =    -0.15263944143863D+03
 CCSD(T)
 CCSD(T)= -0.15266614360D+03

 The electronic state is 1-A'.
 Alpha  occ. eigenvalues --  -20.59355 -20.50870  -1.37143  -1.28772  -0.74364
 Alpha  occ. eigenvalues --   -0.68813  -0.59545  -0.54066  -0.51533  -0.45822
 Alpha virt. eigenvalues --    0.11526   0.17396   0.19619   0.32708   0.48018
 Alpha virt. eigenvalues --    0.54205   0.59837   0.60291   0.70211   0.72395
 Alpha virt. eigenvalues --    0.72986   0.77497   0.81412   0.83116   0.84376

 Mulliken charges:
               1
     1  O   -0.578587
     2  H    0.305615
     3  H    0.230919
     4  O   -0.463577
     5  H    0.254997
     6  H    0.250633
 Sum of Mulliken charges =  -0.00000

 Dipole moment (field-independent basis, Debye):
    X=             -2.0612    Y=             -3.8684    Z=             -0.0000  Tot=              4.3833
 Quadrupole moment (field-independent basis, Debye-Ang):
   XX=             -9.4679   YY=             -9.0136   ZZ=            -14.7046
   XY=             -3.0867   XZ=             -0.0000   YZ=              0.0000

 Normal termination of Gaussian 16 at Fri Aug 26 20:29:49 2022.
