 Gaussian 16, Revision A.03,
 Gaussian 16:  ES64L-G16RevA.03 25-Dec-2016

 ------------------
 #p CCSD(T)/cc-pVTZ
 ------------------

 ------------
 H2O_H2O_1824
 ------------
 Symbolic Z-matrix:
 Charge =  0 Multiplicity = 1

                         Standard orientation:
 ---------------------------------------------------------------------
 Center     Atomic      Atomic             Coordinates (Angstroms)
 Number     Number       Type             X           Y           Z
 ---------------------------------------------------------------------
      1          8           0       -0.013592    1.819232    0.000000
      2          1           0       -0.009718    0.836639    0.000000
      3          1           0        0.914638    2.141561    0.000000
      4          8           0       -0.013592   -1.659996    0.000000
      5          1           0       -0.996186   -1.663869    0.000000
      6          1           0        0.308737   -2.588225    0.000000
 ---------------------------------------------------------------------

 SCF Done:  E(RHF) =  -152.112240287     A.U. after   10 cycles
 E2 =    -0.5265864236D+00 EUMP2 =    -0.15263882671029D+03
 CCSD(T)
 CCSD(T)= -0.15266588904D+03

 The electronic state is 1-A'.
 Alpha  occ. eigenvalues --  -20.57465 -20.53863  -1.34755  -1.31234  -0.72213
 Alpha  occ. eigenvalues --   -0.68670  -0.58460  -0.54667  -0.51878  -0.48388
 Alpha virt. eigenvalues --    0.12173   0.17074   0.19261   0.27161   0.52162
 Alpha virt. eigenvalues --    0.54449   0.55851   0.59573   0.68769   0.73715
 Alpha virt. eigenvalues --    0.75502   0.78143   0.80684   0.83183   0.84159

 Mulliken charges:
               1
     1  O   -0.534185
     2  H    0.268441
     3  H    0.254474
     4  O   -0.507248
     5  H    0.261388
     6  H    0.257130
 Sum of Mulliken charges =   0.00000

 Dipole moment (field-independent basis, Debye):
    X=              0.4695    Y=             -3.0270    Z=              0.0000  Tot=              3.0632
 Quadrupole moment (field-independent basis, Debye-Ang):
   XX=             -9.6503   YY=             -8.4187   ZZ=            -14.7277
   XY=              4.9008   XZ=              0.0000   YZ=              0.0000

 Normal termination of Gaussian 16 at Sun Aug 28 01:56:03 2022.
