 Gaussian 16, Revision A.03,
 Gaussian 16:  ES64L-G16RevA.03 25-Dec-2016

 ------------------
 #p CCSD(T)/cc-pVTZ
 ------------------

 -----------
 H2O_H2O_127
 -----------
 Symbolic Z-matrix:
 Charge =  0 Multiplicity = 1

                         Standard orientation:
 ---------------------------------------------------------------------
 Center     Atomic      Atomic             Coordinates (Angstroms)
 Number     Number       Type             X           Y           Z
 ---------------------------------------------------------------------
      1          8           0        0.088246   -1.142978    0.000000
      2          1           0        0.087872   -0.160376    0.000000
      3          1           0       -0.841126   -1.461998    0.000000
      4          8           0        0.088246    0.998693    0.000000
      5          1           0        0.216131    1.972938    0.000000
      6          1           0       -0.874815    0.803710    0.000000
 ---------------------------------------------------------------------

 SCF Done:  E(RHF) =  -152.042128414     A.U. after   11 cycles
 E2 =    -0.5380409927D+00 EUMP2 =    -0.15258016940648D+03
 CCSD(T)
 CCSD(T)= -0.15260587514D+03

 The electronic state is 1-A'.
 Alpha  occ. eigenvalues --  -20.61443 -20.47509  -1.43284  -1.26771  -0.82692
 Alpha  occ. eigenvalues --   -0.70887  -0.57736  -0.56739  -0.48163  -0.43564
 Alpha virt. eigenvalues --    0.10696   0.15905   0.21665   0.31803   0.49400
 Alpha virt. eigenvalues --    0.50911   0.59923   0.66407   0.71146   0.72616
 Alpha virt. eigenvalues --    0.75388   0.78313   0.80000   0.85107   0.86139

 Mulliken charges:
               1
     1  O   -0.603453
     2  H    0.263269
     3  H    0.190936
     4  O   -0.314682
     5  H    0.227019
     6  H    0.236910
 Sum of Mulliken charges =  -0.00000

 Dipole moment (field-independent basis, Debye):
    X=             -2.7394    Y=              4.0782    Z=              0.0000  Tot=              4.9128
 Quadrupole moment (field-independent basis, Debye-Ang):
   XX=            -10.5144   YY=             -9.8919   ZZ=            -14.5328
   XY=              2.1616   XZ=              0.0000   YZ=              0.0000

 Normal termination of Gaussian 16 at Fri Aug 26 16:03:29 2022.
