 Gaussian 16, Revision A.03,
 Gaussian 16:  ES64L-G16RevA.03 25-Dec-2016

 ------------------
 #p CCSD(T)/cc-pVTZ
 ------------------

 ------------
 H2O_H2O_1915
 ------------
 Symbolic Z-matrix:
 Charge =  0 Multiplicity = 1

                         Standard orientation:
 ---------------------------------------------------------------------
 Center     Atomic      Atomic             Coordinates (Angstroms)
 Number     Number       Type             X           Y           Z
 ---------------------------------------------------------------------
      1          8           0        0.044903    1.870584   -0.000000
      2          1           0        0.042610    0.887985   -0.000000
      3          1           0       -0.883844    2.191418   -0.000000
      4          8           0        0.044903   -1.690229    0.000000
      5          1           0        0.860630   -2.238038    0.000000
      6          1           0       -0.737845   -2.284207    0.000000
 ---------------------------------------------------------------------

 SCF Done:  E(RHF) =  -152.112667563     A.U. after   10 cycles
 E2 =    -0.5265017682D+00 EUMP2 =    -0.15263916933115D+03
 CCSD(T)
 CCSD(T)= -0.15266622274D+03

 The electronic state is 1-A'.
 Alpha  occ. eigenvalues --  -20.57447 -20.53556  -1.34699  -1.30926  -0.72074
 Alpha  occ. eigenvalues --   -0.68376  -0.58420  -0.54373  -0.51839  -0.48080
 Alpha virt. eigenvalues --    0.12202   0.17117   0.19123   0.26702   0.51360
 Alpha virt. eigenvalues --    0.54886   0.56399   0.59039   0.69075   0.72388
 Alpha virt. eigenvalues --    0.75954   0.77326   0.80861   0.83376   0.84452

 Mulliken charges:
               1
     1  O   -0.531550
     2  H    0.270425
     3  H    0.248712
     4  O   -0.507990
     5  H    0.262644
     6  H    0.257759
 Sum of Mulliken charges =  -0.00000

 Dipole moment (field-independent basis, Debye):
    X=             -1.5166    Y=             -3.4144    Z=              0.0000  Tot=              3.7360
 Quadrupole moment (field-independent basis, Debye-Ang):
   XX=             -9.1607   YY=             -7.9315   ZZ=            -14.7305
   XY=             -4.0664   XZ=              0.0000   YZ=             -0.0000

 Normal termination of Gaussian 16 at Sun Aug 28 02:46:19 2022.
