 Gaussian 16, Revision A.03,
 Gaussian 16:  ES64L-G16RevA.03 25-Dec-2016

 ------------------
 #p CCSD(T)/cc-pVTZ
 ------------------

 -----------
 H2O_H2O_929
 -----------
 Symbolic Z-matrix:
 Charge =  0 Multiplicity = 1

                         Standard orientation:
 ---------------------------------------------------------------------
 Center     Atomic      Atomic             Coordinates (Angstroms)
 Number     Number       Type             X           Y           Z
 ---------------------------------------------------------------------
      1          8           0        0.082822   -1.467617    0.000000
      2          1           0        0.082203   -0.485015    0.000000
      3          1           0       -0.846470   -1.786869    0.000000
      4          8           0        0.082822    1.313139    0.000000
      5          1           0        0.336541    2.262420    0.000000
      6          1           0       -0.897433    1.245283    0.000000
 ---------------------------------------------------------------------

 SCF Done:  E(RHF) =  -152.108446629     A.U. after   10 cycles
 E2 =    -0.5295846007D+00 EUMP2 =    -0.15263803122956D+03
 CCSD(T)
 CCSD(T)= -0.15266489865D+03

 The electronic state is 1-A'.
 Alpha  occ. eigenvalues --  -20.58911 -20.52479  -1.36588  -1.30117  -0.74463
 Alpha  occ. eigenvalues --   -0.68164  -0.59670  -0.53511  -0.53177  -0.47182
 Alpha virt. eigenvalues --    0.11494   0.16718   0.20152   0.31445   0.48298
 Alpha virt. eigenvalues --    0.53813   0.58560   0.60622   0.69139   0.72175
 Alpha virt. eigenvalues --    0.74415   0.77490   0.80644   0.82407   0.83616

 Mulliken charges:
               1
     1  O   -0.550526
     2  H    0.290006
     3  H    0.230567
     4  O   -0.446756
     5  H    0.236771
     6  H    0.239938
 Sum of Mulliken charges =  -0.00000

 Dipole moment (field-independent basis, Debye):
    X=             -2.7169    Y=              3.2992    Z=              0.0000  Tot=              4.2739
 Quadrupole moment (field-independent basis, Debye-Ang):
   XX=            -10.2939   YY=             -8.9622   ZZ=            -14.6986
   XY=              2.6397   XZ=              0.0000   YZ=              0.0000

 Normal termination of Gaussian 16 at Fri Aug 26 21:24:01 2022.
