 Gaussian 16, Revision A.03,
 Gaussian 16:  ES64L-G16RevA.03 25-Dec-2016

 ------------------
 #p CCSD(T)/cc-pVTZ
 ------------------

 ------------
 H2O_H2O_4236
 ------------
 Symbolic Z-matrix:
 Charge =  0 Multiplicity = 1

                         Standard orientation:
 ---------------------------------------------------------------------
 Center     Atomic      Atomic             Coordinates (Angstroms)
 Number     Number       Type             X           Y           Z
 ---------------------------------------------------------------------
      1          8           0        0.059622    2.796400   -0.000000
      2          1           0        0.058578    1.813799   -0.000000
      3          1           0       -0.869532    3.116054   -0.000000
      4          8           0        0.059622   -2.618930    0.000000
      5          1           0        0.706712   -3.358377    0.000000
      6          1           0       -0.849715   -2.991235    0.000000
 ---------------------------------------------------------------------

 SCF Done:  E(RHF) =  -152.108453337     A.U. after   10 cycles
 E2 =    -0.5258242355D+00 EUMP2 =    -0.15263427757242D+03
 CCSD(T)
 CCSD(T)= -0.15266147164D+03

 The electronic state is 1-A'.
 Alpha  occ. eigenvalues --  -20.56241 -20.54911  -1.33541  -1.32220  -0.70947
 Alpha  occ. eigenvalues --   -0.69618  -0.57035  -0.55690  -0.50660  -0.49342
 Alpha virt. eigenvalues --    0.13183   0.15035   0.19627   0.21171   0.53551
 Alpha virt. eigenvalues --    0.54891   0.56608   0.57810   0.66725   0.68919
 Alpha virt. eigenvalues --    0.78231   0.79419   0.79512   0.80091   0.82768

 Mulliken charges:
               1
     1  O   -0.513732
     2  H    0.260860
     3  H    0.252618
     4  O   -0.514536
     5  H    0.258891
     6  H    0.255898
 Sum of Mulliken charges =  -0.00000

 Dipole moment (field-independent basis, Debye):
    X=             -2.0430    Y=             -3.1236    Z=              0.0000  Tot=              3.7324
 Quadrupole moment (field-independent basis, Debye-Ang):
   XX=             -9.3619   YY=             -6.5486   ZZ=            -14.7149
   XY=             -4.7749   XZ=              0.0000   YZ=             -0.0000

 Normal termination of Gaussian 16 at Sun Aug 28 01:00:59 2022.
