 Gaussian 16, Revision A.03,
 Gaussian 16:  ES64L-G16RevA.03 25-Dec-2016

 ------------------
 #p CCSD(T)/cc-pVTZ
 ------------------

 ------------
 H2O_H2O_1425
 ------------
 Symbolic Z-matrix:
 Charge =  0 Multiplicity = 1

                         Standard orientation:
 ---------------------------------------------------------------------
 Center     Atomic      Atomic             Coordinates (Angstroms)
 Number     Number       Type             X           Y           Z
 ---------------------------------------------------------------------
      1          8           0        0.092949   -1.655272    0.000000
      2          1           0        0.092949   -0.672670    0.000000
      3          1           0       -0.836544   -1.973938    0.000000
      4          8           0        0.092949    1.522485    0.000000
      5          1           0        0.092950    2.505087    0.000000
      6          1           0       -0.836544    1.203818    0.000000
 ---------------------------------------------------------------------

 SCF Done:  E(RHF) =  -152.108621207     A.U. after   10 cycles
 E2 =    -0.5278967929D+00 EUMP2 =    -0.15263651799950D+03
 CCSD(T)
 CCSD(T)= -0.15266360747D+03

 The electronic state is 1-A'.
 Alpha  occ. eigenvalues --  -20.57959 -20.54384  -1.35352  -1.31750  -0.73198
 Alpha  occ. eigenvalues --   -0.68918  -0.58812  -0.55098  -0.52386  -0.48840
 Alpha virt. eigenvalues --    0.11468   0.16298   0.20569   0.28154   0.49522
 Alpha virt. eigenvalues --    0.54052   0.57674   0.58538   0.67797   0.73318
 Alpha virt. eigenvalues --    0.74114   0.78102   0.80581   0.81554   0.83264

 Mulliken charges:
               1
     1  O   -0.521203
     2  H    0.273418
     3  H    0.238438
     4  O   -0.477293
     5  H    0.247891
     6  H    0.238749
 Sum of Mulliken charges =  -0.00000

 Dipole moment (field-independent basis, Debye):
    X=             -3.0984    Y=              2.6104    Z=              0.0000  Tot=              4.0515
 Quadrupole moment (field-independent basis, Debye-Ang):
   XX=            -10.8989   YY=             -9.1520   ZZ=            -14.7077
   XY=              2.1131   XZ=              0.0000   YZ=              0.0000

 Normal termination of Gaussian 16 at Sat Aug 27 00:30:21 2022.
