 Gaussian 16, Revision A.03,
 Gaussian 16:  ES64L-G16RevA.03 25-Dec-2016

 ------------------
 #p CCSD(T)/cc-pVTZ
 ------------------

 -----------
 H2O_H2O_917
 -----------
 Symbolic Z-matrix:
 Charge =  0 Multiplicity = 1

                         Standard orientation:
 ---------------------------------------------------------------------
 Center     Atomic      Atomic             Coordinates (Angstroms)
 Number     Number       Type             X           Y           Z
 ---------------------------------------------------------------------
      1          8           0        0.037567    1.470901   -0.000000
      2          1           0        0.034157    0.488306   -0.000000
      3          1           0       -0.890814    1.792792   -0.000000
      4          8           0        0.037567   -1.292039    0.000000
      5          1           0        0.917322   -1.729689    0.000000
      6          1           0       -0.661740   -1.982311    0.000000
 ---------------------------------------------------------------------

 SCF Done:  E(RHF) =  -152.112614871     A.U. after   10 cycles
 E2 =    -0.5289924406D+00 EUMP2 =    -0.15264160731203D+03
 CCSD(T)
 CCSD(T)= -0.15266839246D+03

 The electronic state is 1-A'.
 Alpha  occ. eigenvalues --  -20.59024 -20.51171  -1.36624  -1.28963  -0.73798
 Alpha  occ. eigenvalues --   -0.68299  -0.59768  -0.53642  -0.51846  -0.46061
 Alpha virt. eigenvalues --    0.11799   0.18309   0.18843   0.32465   0.48300
 Alpha virt. eigenvalues --    0.54566   0.57015   0.62489   0.68689   0.72033
 Alpha virt. eigenvalues --    0.72596   0.77652   0.82069   0.82901   0.84634

 Mulliken charges:
               1
     1  O   -0.577651
     2  H    0.301154
     3  H    0.241048
     4  O   -0.485381
     5  H    0.265661
     6  H    0.255168
 Sum of Mulliken charges =  -0.00000

 Dipole moment (field-independent basis, Debye):
    X=             -1.2369    Y=             -3.8399    Z=              0.0000  Tot=              4.0342
 Quadrupole moment (field-independent basis, Debye-Ang):
   XX=             -9.1489   YY=             -8.8709   ZZ=            -14.7207
   XY=             -3.4472   XZ=              0.0000   YZ=              0.0000

 Normal termination of Gaussian 16 at Fri Aug 26 21:19:47 2022.
