 Gaussian 16, Revision A.03,
 Gaussian 16:  ES64L-G16RevA.03 25-Dec-2016

 ------------------
 #p CCSD(T)/cc-pVTZ
 ------------------

 ------------
 H2O_H2O_4135
 ------------
 Symbolic Z-matrix:
 Charge =  0 Multiplicity = 1

                         Standard orientation:
 ---------------------------------------------------------------------
 Center     Atomic      Atomic             Coordinates (Angstroms)
 Number     Number       Type             X           Y           Z
 ---------------------------------------------------------------------
      1          8           0        0.063221    2.755458    0.000000
      2          1           0        0.062276    1.772857    0.000000
      3          1           0       -0.865965    3.075018    0.000000
      4          8           0        0.063221   -2.579928   -0.000000
      5          1           0        0.660641   -3.360054   -0.000000
      6          1           0       -0.868487   -2.892057   -0.000000
 ---------------------------------------------------------------------

 SCF Done:  E(RHF) =  -152.108462025     A.U. after   10 cycles
 E2 =    -0.5258322191D+00 EUMP2 =    -0.15263429424364D+03
 CCSD(T)
 CCSD(T)= -0.15266148706D+03

 The electronic state is 1-A'.
 Alpha  occ. eigenvalues --  -20.56265 -20.54906  -1.33564  -1.32215  -0.70971
 Alpha  occ. eigenvalues --   -0.69612  -0.57058  -0.55684  -0.50683  -0.49337
 Alpha virt. eigenvalues --    0.13093   0.15077   0.19585   0.21241   0.53489
 Alpha virt. eigenvalues --    0.54920   0.56584   0.57823   0.66701   0.68972
 Alpha virt. eigenvalues --    0.78210   0.79279   0.79517   0.80152   0.82780

 Mulliken charges:
               1
     1  O   -0.513637
     2  H    0.260936
     3  H    0.252384
     4  O   -0.514427
     5  H    0.259083
     6  H    0.255661
 Sum of Mulliken charges =   0.00000

 Dipole moment (field-independent basis, Debye):
    X=             -2.1656    Y=             -3.0930    Z=             -0.0000  Tot=              3.7758
 Quadrupole moment (field-independent basis, Debye-Ang):
   XX=             -9.4543   YY=             -6.7128   ZZ=            -14.7150
   XY=             -4.5166   XZ=             -0.0000   YZ=              0.0000

 0952\MP4DQ=-152.6434068\MP4SDQ=-152.6464554\CCSD=-152.6458696\CCSD(T)=
 Normal termination of Gaussian 16 at Sun Aug 28 00:01:48 2022.
