 Gaussian 16, Revision A.03,
 Gaussian 16:  ES64L-G16RevA.03 25-Dec-2016

 ------------------
 #p CCSD(T)/cc-pVTZ
 ------------------

 -----------
 H2O_H2O_209
 -----------
 Symbolic Z-matrix:
 Charge =  0 Multiplicity = 1

                         Standard orientation:
 ---------------------------------------------------------------------
 Center     Atomic      Atomic             Coordinates (Angstroms)
 Number     Number       Type             X           Y           Z
 ---------------------------------------------------------------------
      1          8           0        0.066851    1.188479    0.000000
      2          1           0        0.064834    0.205879    0.000000
      3          1           0       -0.861986    1.509052    0.000000
      4          8           0        0.066851   -1.015515   -0.000000
      5          1           0        0.611077   -1.833637   -0.000000
      6          1           0       -0.883550   -1.265002   -0.000000
 ---------------------------------------------------------------------

 SCF Done:  E(RHF) =  -152.068945731     A.U. after   11 cycles
 E2 =    -0.5350602945D+00 EUMP2 =    -0.15260400602540D+03
 CCSD(T)
 CCSD(T)= -0.15262986079D+03

 The electronic state is 1-A'.
 Alpha  occ. eigenvalues --  -20.61372 -20.46513  -1.41634  -1.25895  -0.78787
 Alpha  occ. eigenvalues --   -0.73886  -0.57270  -0.56274  -0.46986  -0.42610
 Alpha virt. eigenvalues --    0.10664   0.16450   0.20946   0.32795   0.48454
 Alpha virt. eigenvalues --    0.52327   0.60931   0.64168   0.71560   0.71907
 Alpha virt. eigenvalues --    0.78314   0.78517   0.80874   0.83721   0.85154

 Mulliken charges:
               1
     1  O   -0.633353
     2  H    0.294944
     3  H    0.204895
     4  O   -0.348491
     5  H    0.239651
     6  H    0.242355
 Sum of Mulliken charges =  -0.00000

 Dipole moment (field-independent basis, Debye):
    X=             -2.0640    Y=             -4.6029    Z=             -0.0000  Tot=              5.0445
 Quadrupole moment (field-independent basis, Debye-Ang):
   XX=             -9.5415   YY=             -9.8613   ZZ=            -14.5942
   XY=             -2.7129   XZ=             -0.0000   YZ=              0.0000

 Normal termination of Gaussian 16 at Fri Aug 26 16:37:14 2022.
