 Gaussian 16, Revision A.03,
 Gaussian 16:  ES64L-G16RevA.03 25-Dec-2016

 ------------------
 #p CCSD(T)/cc-pVTZ
 ------------------

 ------------
 H2O_H2O_1932
 ------------
 Symbolic Z-matrix:
 Charge =  0 Multiplicity = 1

                         Standard orientation:
 ---------------------------------------------------------------------
 Center     Atomic      Atomic             Coordinates (Angstroms)
 Number     Number       Type             X           Y           Z
 ---------------------------------------------------------------------
      1          8           0        0.073552    1.873249   -0.000000
      2          1           0        0.072632    0.890648   -0.000000
      3          1           0       -0.855642    2.192786   -0.000000
      4          8           0        0.073552   -1.706336    0.000000
      5          1           0        0.507320   -2.588012    0.000000
      6          1           0       -0.901144   -1.830724    0.000000
 ---------------------------------------------------------------------

 SCF Done:  E(RHF) =  -152.111311465     A.U. after   10 cycles
 E2 =    -0.5266105556D+00 EUMP2 =    -0.15263792202090D+03
 CCSD(T)
 CCSD(T)= -0.15266499824D+03

 The electronic state is 1-A'.
 Alpha  occ. eigenvalues --  -20.57414 -20.53959  -1.34683  -1.31308  -0.72111
 Alpha  occ. eigenvalues --   -0.68706  -0.58313  -0.54743  -0.51805  -0.48444
 Alpha virt. eigenvalues --    0.11928   0.16655   0.19471   0.26198   0.51309
 Alpha virt. eigenvalues --    0.55591   0.56268   0.58353   0.69039   0.72917
 Alpha virt. eigenvalues --    0.75978   0.78178   0.80560   0.83278   0.83701

 Mulliken charges:
               1
     1  O   -0.524159
     2  H    0.268743
     3  H    0.245189
     4  O   -0.503723
     5  H    0.260422
     6  H    0.253528
 Sum of Mulliken charges =  -0.00000

 Dipole moment (field-independent basis, Debye):
    X=             -2.4817    Y=             -3.1482    Z=              0.0000  Tot=              4.0087
 Quadrupole moment (field-independent basis, Debye-Ang):
   XX=             -9.8323   YY=             -8.1949   ZZ=            -14.7248
   XY=             -3.2543   XZ=              0.0000   YZ=             -0.0000

 Normal termination of Gaussian 16 at Sun Aug 28 02:53:05 2022.
