 Gaussian 16, Revision A.03,
 Gaussian 16:  ES64L-G16RevA.03 25-Dec-2016

 ------------------
 #p CCSD(T)/cc-pVTZ
 ------------------

 ------------
 H2O_H2O_2237
 ------------
 Symbolic Z-matrix:
 Charge =  0 Multiplicity = 1

                         Standard orientation:
 ---------------------------------------------------------------------
 Center     Atomic      Atomic             Coordinates (Angstroms)
 Number     Number       Type             X           Y           Z
 ---------------------------------------------------------------------
      1          8           0        0.056013    1.999414   -0.000000
      2          1           0        0.054371    1.016814   -0.000000
      3          1           0       -0.872946    2.319634   -0.000000
      4          8           0        0.056013   -1.820535    0.000000
      5          1           0        0.749655   -2.516500    0.000000
      6          1           0       -0.827289   -2.250979    0.000000
 ---------------------------------------------------------------------

 SCF Done:  E(RHF) =  -152.111416700     A.U. after   10 cycles
 E2 =    -0.5262612129D+00 EUMP2 =    -0.15263767791294D+03
 CCSD(T)
 CCSD(T)= -0.15266476627D+03

 The electronic state is 1-A'.
 Alpha  occ. eigenvalues --  -20.57150 -20.53951  -1.34405  -1.31292  -0.71799
 Alpha  occ. eigenvalues --   -0.68692  -0.58034  -0.54764  -0.51541  -0.48437
 Alpha virt. eigenvalues --    0.12221   0.16664   0.19277   0.25106   0.52159
 Alpha virt. eigenvalues --    0.55487   0.56233   0.58956   0.68972   0.71761
 Alpha virt. eigenvalues --    0.76888   0.78201   0.80443   0.82965   0.83553

 Mulliken charges:
               1
     1  O   -0.524899
     2  H    0.267826
     3  H    0.248629
     4  O   -0.508527
     5  H    0.260943
     6  H    0.256028
 Sum of Mulliken charges =  -0.00000

 Dipole moment (field-independent basis, Debye):
    X=             -1.8982    Y=             -3.3205    Z=              0.0000  Tot=              3.8248
 Quadrupole moment (field-independent basis, Debye-Ang):
   XX=             -9.2916   YY=             -7.7319   ZZ=            -14.7250
   XY=             -3.9636   XZ=              0.0000   YZ=             -0.0000

 54175\MP4DQ=-152.646614\MP4SDQ=-152.6496876\CCSD=-152.6490838\CCSD(T)=
 Normal termination of Gaussian 16 at Sun Aug 28 05:37:15 2022.
