 Gaussian 16, Revision A.03,
 Gaussian 16:  ES64L-G16RevA.03 25-Dec-2016

 ------------------
 #p CCSD(T)/cc-pVTZ
 ------------------

 ------------
 H2O_H2O_1752
 ------------
 Symbolic Z-matrix:
 Charge =  0 Multiplicity = 1

                         Standard orientation:
 ---------------------------------------------------------------------
 Center     Atomic      Atomic             Coordinates (Angstroms)
 Number     Number       Type             X           Y           Z
 ---------------------------------------------------------------------
      1          8           0        0.088236   -1.791166    0.000000
      2          1           0        0.088003   -0.808564    0.000000
      3          1           0       -0.841182   -2.110053    0.000000
      4          8           0        0.088236    1.646856    0.000000
      5          1           0        0.216260    2.621082    0.000000
      6          1           0       -0.874854    1.452011    0.000000
 ---------------------------------------------------------------------

 SCF Done:  E(RHF) =  -152.109885110     A.U. after   10 cycles
 E2 =    -0.5270199854D+00 EUMP2 =    -0.15263690509568D+03
 CCSD(T)
 CCSD(T)= -0.15266400189D+03

 The electronic state is 1-A'.
 Alpha  occ. eigenvalues --  -20.57568 -20.54383  -1.34876  -1.31720  -0.72436
 Alpha  occ. eigenvalues --   -0.69040  -0.58421  -0.55123  -0.51965  -0.48834
 Alpha virt. eigenvalues --    0.11590   0.16346   0.20080   0.26669   0.50893
 Alpha virt. eigenvalues --    0.55238   0.57313   0.57626   0.68394   0.74428
 Alpha virt. eigenvalues --    0.75115   0.77993   0.80366   0.82674   0.83411

 Mulliken charges:
               1
     1  O   -0.520330
     2  H    0.269417
     3  H    0.242510
     4  O   -0.494545
     5  H    0.255883
     6  H    0.247065
 Sum of Mulliken charges =  -0.00000

 Dipole moment (field-independent basis, Debye):
    X=             -2.9636    Y=              2.7484    Z=              0.0000  Tot=              4.0419
 Quadrupole moment (field-independent basis, Debye-Ang):
   XX=            -10.5917   YY=             -8.8156   ZZ=            -14.7173
   XY=              2.4782   XZ=              0.0000   YZ=              0.0000

 Normal termination of Gaussian 16 at Sun Aug 28 01:18:03 2022.
