 Gaussian 16, Revision A.03,
 Gaussian 16:  ES64L-G16RevA.03 25-Dec-2016

 ------------------
 #p CCSD(T)/cc-pVTZ
 ------------------

 ------------
 H2O_H2O_1802
 ------------
 Symbolic Z-matrix:
 Charge =  0 Multiplicity = 1

                         Standard orientation:
 ---------------------------------------------------------------------
 Center     Atomic      Atomic             Coordinates (Angstroms)
 Number     Number       Type             X           Y           Z
 ---------------------------------------------------------------------
      1          8           0        0.088236   -1.811110    0.000000
      2          1           0        0.088005   -0.828509    0.000000
      3          1           0       -0.841183   -2.129994    0.000000
      4          8           0        0.088236    1.666800    0.000000
      5          1           0        0.216263    2.641026    0.000000
      6          1           0       -0.874854    1.471957    0.000000
 ---------------------------------------------------------------------

 SCF Done:  E(RHF) =  -152.109835916     A.U. after   10 cycles
 E2 =    -0.5269394778D+00 EUMP2 =    -0.15263677539423D+03
 CCSD(T)
 CCSD(T)= -0.15266387643D+03

 The electronic state is 1-A'.
 Alpha  occ. eigenvalues --  -20.57513 -20.54426  -1.34817  -1.31759  -0.72363
 Alpha  occ. eigenvalues --   -0.69082  -0.58358  -0.55169  -0.51909  -0.48874
 Alpha virt. eigenvalues --    0.11592   0.16324   0.20059   0.26436   0.51099
 Alpha virt. eigenvalues --    0.55327   0.57216   0.57599   0.68402   0.74313
 Alpha virt. eigenvalues --    0.75332   0.78122   0.80302   0.82762   0.83345

 Mulliken charges:
               1
     1  O   -0.519647
     2  H    0.268723
     3  H    0.242954
     4  O   -0.495918
     5  H    0.256580
     6  H    0.247308
 Sum of Mulliken charges =  -0.00000

 Dipole moment (field-independent basis, Debye):
    X=             -2.9662    Y=              2.7375    Z=              0.0000  Tot=              4.0363
 Quadrupole moment (field-independent basis, Debye-Ang):
   XX=            -10.5902   YY=             -8.8073   ZZ=            -14.7174
   XY=              2.4828   XZ=              0.0000   YZ=              0.0000

 Normal termination of Gaussian 16 at Sun Aug 28 01:47:07 2022.
