 Gaussian 16, Revision A.03,
 Gaussian 16:  ES64L-G16RevA.03 25-Dec-2016

 ------------------
 #p CCSD(T)/cc-pVTZ
 ------------------

 ----------
 H2O_H2O_25
 ----------
 Symbolic Z-matrix:
 Charge =  0 Multiplicity = 1

                         Standard orientation:
 ---------------------------------------------------------------------
 Center     Atomic      Atomic             Coordinates (Angstroms)
 Number     Number       Type             X           Y           Z
 ---------------------------------------------------------------------
      1          8           0        0.092949   -1.096843    0.000000
      2          1           0        0.092949   -0.114242    0.000000
      3          1           0       -0.836544   -1.415510    0.000000
      4          8           0        0.092949    0.964057    0.000000
      5          1           0        0.092949    1.946658    0.000000
      6          1           0       -0.836544    0.645389    0.000000
 ---------------------------------------------------------------------

 SCF Done:  E(RHF) =  -152.006822529     A.U. after   11 cycles
 E2 =    -0.5405241255D+00 EUMP2 =    -0.15254734665488D+03
 CCSD(T)
 CCSD(T)= -0.15257275273D+03

 The electronic state is 1-A'.
 Alpha  occ. eigenvalues --  -20.61661 -20.46981  -1.45607  -1.26560  -0.85267
 Alpha  occ. eigenvalues --   -0.70676  -0.58593  -0.56255  -0.47602  -0.43358
 Alpha virt. eigenvalues --    0.10670   0.15691   0.22124   0.31165   0.48837
 Alpha virt. eigenvalues --    0.50535   0.59889   0.68024   0.70525   0.72488
 Alpha virt. eigenvalues --    0.74587   0.78900   0.79582   0.85283   0.86715

 Mulliken charges:
               1
     1  O   -0.601378
     2  H    0.244895
     3  H    0.179473
     4  O   -0.289878
     5  H    0.225224
     6  H    0.241663
 Sum of Mulliken charges =  -0.00000

 Dipole moment (field-independent basis, Debye):
    X=             -2.8765    Y=              4.0092    Z=              0.0000  Tot=              4.9344
 Quadrupole moment (field-independent basis, Debye-Ang):
   XX=            -10.7644   YY=            -10.1083   ZZ=            -14.4774
   XY=              1.8667   XZ=              0.0000   YZ=              0.0000

 Normal termination of Gaussian 16 at Fri Aug 26 15:21:19 2022.
