 Gaussian 16, Revision A.03,
 Gaussian 16:  ES64L-G16RevA.03 25-Dec-2016

 ------------------
 #p CCSD(T)/cc-pVTZ
 ------------------

 ------------
 H2O_H2O_2549
 ------------
 Symbolic Z-matrix:
 Charge =  0 Multiplicity = 1

                         Standard orientation:
 ---------------------------------------------------------------------
 Center     Atomic      Atomic             Coordinates (Angstroms)
 Number     Number       Type             X           Y           Z
 ---------------------------------------------------------------------
      1          8           0       -0.013547    2.108424    0.000000
      2          1           0       -0.010225    1.125828    0.000000
      3          1           0        0.914863    2.430231    0.000000
      4          8           0       -0.013547   -1.949172    0.000000
      5          1           0       -0.996144   -1.952493    0.000000
      6          1           0        0.308260   -2.877582    0.000000
 ---------------------------------------------------------------------

 SCF Done:  E(RHF) =  -152.110503224     A.U. after   10 cycles
 E2 =    -0.5260600550D+00 EUMP2 =    -0.15263656327903D+03
 CCSD(T)
 CCSD(T)= -0.15266368444D+03

 The electronic state is 1-A'.
 Alpha  occ. eigenvalues --  -20.56866 -20.54460  -1.34147  -1.31787  -0.71564
 Alpha  occ. eigenvalues --   -0.69197  -0.57719  -0.55276  -0.51276  -0.48931
 Alpha virt. eigenvalues --    0.12164   0.16297   0.19253   0.24327   0.54063
 Alpha virt. eigenvalues --    0.55392   0.56155   0.58510   0.68663   0.70589
 Alpha virt. eigenvalues --    0.77433   0.79247   0.79939   0.80784   0.83591

 Mulliken charges:
               1
     1  O   -0.523745
     2  H    0.264269
     3  H    0.254834
     4  O   -0.512688
     5  H    0.258870
     6  H    0.258460
 Sum of Mulliken charges =  -0.00000

 Dipole moment (field-independent basis, Debye):
    X=              0.4676    Y=             -2.9060    Z=              0.0000  Tot=              2.9434
 Quadrupole moment (field-independent basis, Debye-Ang):
   XX=             -9.6489   YY=             -8.1424   ZZ=            -14.7214
   XY=              5.6930   XZ=              0.0000   YZ=              0.0000

 Normal termination of Gaussian 16 at Fri Aug 26 15:32:34 2022.
