 Gaussian 16, Revision A.03,
 Gaussian 16:  ES64L-G16RevA.03 25-Dec-2016

 ------------------
 #p CCSD(T)/cc-pVTZ
 ------------------

 -----------
 H2O_H2O_763
 -----------
 Symbolic Z-matrix:
 Charge =  0 Multiplicity = 1

                         Standard orientation:
 ---------------------------------------------------------------------
 Center     Atomic      Atomic             Coordinates (Angstroms)
 Number     Number       Type             X           Y           Z
 ---------------------------------------------------------------------
      1          8           0        0.052398    1.411563   -0.000000
      2          1           0        0.049787    0.428965   -0.000000
      3          1           0       -0.876245    1.732698   -0.000000
      4          8           0        0.052398   -1.231788    0.000000
      5          1           0        0.789433   -1.881623    0.000000
      6          1           0       -0.801341   -1.718240    0.000000
 ---------------------------------------------------------------------

 SCF Done:  E(RHF) =  -152.109872662     A.U. after   10 cycles
 E2 =    -0.5299076896D+00 EUMP2 =    -0.15263978035176D+03
 CCSD(T)
 CCSD(T)= -0.15266645028D+03

 The electronic state is 1-A'.
 Alpha  occ. eigenvalues --  -20.59435 -20.50480  -1.37242  -1.28453  -0.74255
 Alpha  occ. eigenvalues --   -0.69069  -0.59484  -0.54171  -0.51131  -0.45502
 Alpha virt. eigenvalues --    0.11564   0.17761   0.19401   0.32959   0.47879
 Alpha virt. eigenvalues --    0.54225   0.59278   0.61321   0.70075   0.72088
 Alpha virt. eigenvalues --    0.72428   0.77888   0.81868   0.82910   0.84515

 Mulliken charges:
               1
     1  O   -0.586774
     2  H    0.309359
     3  H    0.233101
     4  O   -0.472020
     5  H    0.262201
     6  H    0.254132
 Sum of Mulliken charges =  -0.00000

 Dipole moment (field-independent basis, Debye):
    X=             -1.7052    Y=             -3.9908    Z=              0.0000  Tot=              4.3398
 Quadrupole moment (field-independent basis, Debye-Ang):
   XX=             -9.2222   YY=             -9.0564   ZZ=            -14.7076
   XY=             -3.1948   XZ=              0.0000   YZ=             -0.0000

 Normal termination of Gaussian 16 at Fri Aug 26 20:21:31 2022.
