 Gaussian 16, Revision A.03,
 Gaussian 16:  ES64L-G16RevA.03 25-Dec-2016

 ------------------
 #p CCSD(T)/cc-pVTZ
 ------------------

 ------------
 H2O_H2O_2091
 ------------
 Symbolic Z-matrix:
 Charge =  0 Multiplicity = 1

                         Standard orientation:
 ---------------------------------------------------------------------
 Center     Atomic      Atomic             Coordinates (Angstroms)
 Number     Number       Type             X           Y           Z
 ---------------------------------------------------------------------
      1          8           0        0.041180    1.940134   -0.000000
      2          1           0        0.038804    0.957535   -0.000000
      3          1           0       -0.887539    2.261048   -0.000000
      4          8           0        0.041180   -1.760246    0.000000
      5          1           0        0.890948   -2.253604    0.000000
      6          1           0       -0.701100   -2.404084    0.000000
 ---------------------------------------------------------------------

 SCF Done:  E(RHF) =  -152.112142775     A.U. after   10 cycles
 E2 =    -0.5263294545D+00 EUMP2 =    -0.15263847222927D+03
 CCSD(T)
 CCSD(T)= -0.15266554298D+03

 The electronic state is 1-A'.
 Alpha  occ. eigenvalues --  -20.57271 -20.53757  -1.34523  -1.31112  -0.71907
 Alpha  occ. eigenvalues --   -0.68535  -0.58201  -0.54580  -0.51663  -0.48264
 Alpha virt. eigenvalues --    0.12259   0.16923   0.19180   0.25851   0.51934
 Alpha virt. eigenvalues --    0.55081   0.56448   0.58939   0.69078   0.72227
 Alpha virt. eigenvalues --    0.76511   0.77782   0.80637   0.83495   0.84099

 Mulliken charges:
               1
     1  O   -0.528995
     2  H    0.268798
     3  H    0.249936
     4  O   -0.508960
     5  H    0.261700
     6  H    0.257521
 Sum of Mulliken charges =   0.00000

 Dipole moment (field-independent basis, Debye):
    X=             -1.3943    Y=             -3.3675    Z=              0.0000  Tot=              3.6447
 Quadrupole moment (field-independent basis, Debye-Ang):
   XX=             -9.1512   YY=             -7.8105   ZZ=            -14.7281
   XY=             -4.2816   XZ=              0.0000   YZ=              0.0000

 Normal termination of Gaussian 16 at Sun Aug 28 04:15:13 2022.
