 Gaussian 16, Revision A.03,
 Gaussian 16:  ES64L-G16RevA.03 25-Dec-2016

 ------------------
 #p CCSD(T)/cc-pVTZ
 ------------------

 ------------
 H2O_H2O_4240
 ------------
 Symbolic Z-matrix:
 Charge =  0 Multiplicity = 1

                         Standard orientation:
 ---------------------------------------------------------------------
 Center     Atomic      Atomic             Coordinates (Angstroms)
 Number     Number       Type             X           Y           Z
 ---------------------------------------------------------------------
      1          8           0        0.044831    2.798008    0.000000
      2          1           0        0.043323    1.815408    0.000000
      3          1           0       -0.884172    3.118100   -0.000000
      4          8           0        0.044831   -2.617581    0.000000
      5          1           0        0.860997   -3.164738    0.000000
      6          1           0       -0.737442   -3.212185   -0.000000
 ---------------------------------------------------------------------

 SCF Done:  E(RHF) =  -152.108590317     A.U. after   10 cycles
 E2 =    -0.5258106268D+00 EUMP2 =    -0.15263440094378D+03
 CCSD(T)
 CCSD(T)= -0.15266159234D+03

 The electronic state is 1-A'.
 Alpha  occ. eigenvalues --  -20.56236 -20.54877  -1.33535  -1.32186  -0.70939
 Alpha  occ. eigenvalues --   -0.69586  -0.57036  -0.55660  -0.50655  -0.49311
 Alpha virt. eigenvalues --    0.13233   0.15067   0.19673   0.21172   0.53612
 Alpha virt. eigenvalues --    0.54880   0.56628   0.57813   0.66716   0.68940
 Alpha virt. eigenvalues --    0.78234   0.79541   0.79625   0.79823   0.82808

 Mulliken charges:
               1
     1  O   -0.514603
     2  H    0.261094
     3  H    0.253246
     4  O   -0.515245
     5  H    0.258616
     6  H    0.256891
 Sum of Mulliken charges =  -0.00000

 Dipole moment (field-independent basis, Debye):
    X=             -1.5364    Y=             -3.1755    Z=             -0.0000  Tot=              3.5277
 Quadrupole moment (field-independent basis, Debye-Ang):
   XX=             -9.1568   YY=             -6.3846   ZZ=            -14.7154
   XY=             -5.6151   XZ=              0.0000   YZ=             -0.0000

 Normal termination of Gaussian 16 at Sun Aug 28 01:05:08 2022.
