 Gaussian 16, Revision A.03,
 Gaussian 16:  ES64L-G16RevA.03 25-Dec-2016

 ------------------
 #p CCSD(T)/cc-pVTZ
 ------------------

 ------------
 H2O_H2O_3900
 ------------
 Symbolic Z-matrix:
 Charge =  0 Multiplicity = 1

                         Standard orientation:
 ---------------------------------------------------------------------
 Center     Atomic      Atomic             Coordinates (Angstroms)
 Number     Number       Type             X           Y           Z
 ---------------------------------------------------------------------
      1          8           0        0.092949   -2.642493    0.000000
      2          1           0        0.092949   -1.659892    0.000000
      3          1           0       -0.836544   -2.961160    0.000000
      4          8           0        0.092949    2.509706    0.000000
      5          1           0        0.092949    3.492307    0.000000
      6          1           0       -0.836544    2.191039    0.000000
 ---------------------------------------------------------------------

 SCF Done:  E(RHF) =  -152.107712436     A.U. after   10 cycles
 E2 =    -0.5259160075D+00 EUMP2 =    -0.15263362844382D+03
 CCSD(T)
 CCSD(T)= -0.15266083707D+03

 The electronic state is 1-A'.
 Alpha  occ. eigenvalues --  -20.56342 -20.55292  -1.33642  -1.32593  -0.71061
 Alpha  occ. eigenvalues --   -0.69986  -0.57103  -0.56044  -0.50751  -0.49705
 Alpha virt. eigenvalues --    0.12101   0.15048   0.18849   0.22377   0.53148
 Alpha virt. eigenvalues --    0.54925   0.56489   0.57841   0.66788   0.68715
 Alpha virt. eigenvalues --    0.78149   0.79143   0.79168   0.81472   0.82292

 Mulliken charges:
               1
     1  O   -0.509476
     2  H    0.257870
     3  H    0.251356
     4  O   -0.510429
     5  H    0.259065
     6  H    0.251613
 Sum of Mulliken charges =  -0.00000

 Dipole moment (field-independent basis, Debye):
    X=             -3.1810    Y=              2.3437    Z=              0.0000  Tot=              3.9511
 Quadrupole moment (field-independent basis, Debye-Ang):
   XX=            -10.8484   YY=             -9.2648   ZZ=            -14.7119
   XY=              2.1542   XZ=              0.0000   YZ=              0.0000

 CCSD(T)=-152.6608371\RMSD=4.104e-09\PG=CS [SG(H4O2)]\\@
 Normal termination of Gaussian 16 at Sat Aug 27 00:21:41 2022.
