 Gaussian 16, Revision A.03,
 Gaussian 16:  ES64L-G16RevA.03 25-Dec-2016

 ------------------
 #p CCSD(T)/cc-pVTZ
 ------------------

 ------------
 H2O_H2O_3458
 ------------
 Symbolic Z-matrix:
 Charge =  0 Multiplicity = 1

                         Standard orientation:
 ---------------------------------------------------------------------
 Center     Atomic      Atomic             Coordinates (Angstroms)
 Number     Number       Type             X           Y           Z
 ---------------------------------------------------------------------
      1          8           0        0.070194    2.483349    0.000000
      2          1           0        0.069389    1.500748    0.000000
      3          1           0       -0.859037    2.802777    0.000000
      4          8           0        0.070194   -2.313097   -0.000000
      5          1           0        0.560798   -3.164458   -0.000000
      6          1           0       -0.894259   -2.501080   -0.000000
 ---------------------------------------------------------------------

 SCF Done:  E(RHF) =  -152.108832571     A.U. after   10 cycles
 E2 =    -0.5259002666D+00 EUMP2 =    -0.15263473283796D+03
 CCSD(T)
 CCSD(T)= -0.15266190681D+03

 The electronic state is 1-A'.
 Alpha  occ. eigenvalues --  -20.56464 -20.54772  -1.33755  -1.32083  -0.71165
 Alpha  occ. eigenvalues --   -0.69474  -0.57258  -0.55555  -0.50875  -0.49208
 Alpha virt. eigenvalues --    0.12531   0.15480   0.19450   0.21900   0.53390
 Alpha virt. eigenvalues --    0.55096   0.56427   0.58110   0.67049   0.69273
 Alpha virt. eigenvalues --    0.78030   0.78743   0.79638   0.80190   0.82912

 Mulliken charges:
               1
     1  O   -0.514424
     2  H    0.262043
     3  H    0.251131
     4  O   -0.513687
     5  H    0.259931
     6  H    0.255006
 Sum of Mulliken charges =  -0.00000

 Dipole moment (field-independent basis, Debye):
    X=             -2.3980    Y=             -3.0314    Z=              0.0000  Tot=              3.8652
 Quadrupole moment (field-independent basis, Debye-Ang):
   XX=             -9.6826   YY=             -7.3345   ZZ=            -14.7162
   XY=             -3.8654   XZ=             -0.0000   YZ=              0.0000

 CCSD(T)=-152.6619068\RMSD=7.082e-09\PG=CS [SG(H4O2)]\\@
 Normal termination of Gaussian 16 at Fri Aug 26 21:48:35 2022.
