 Gaussian 16, Revision A.03,
 Gaussian 16:  ES64L-G16RevA.03 25-Dec-2016

 ------------------
 #p CCSD(T)/cc-pVTZ
 ------------------

 ------------
 H2O_H2O_3627
 ------------
 Symbolic Z-matrix:
 Charge =  0 Multiplicity = 1

                         Standard orientation:
 ---------------------------------------------------------------------
 Center     Atomic      Atomic             Coordinates (Angstroms)
 Number     Number       Type             X           Y           Z
 ---------------------------------------------------------------------
      1          8           0        0.088231   -2.539067    0.000000
      2          1           0        0.088068   -1.556466    0.000000
      3          1           0       -0.841210   -2.857887    0.000000
      4          8           0        0.088231    2.394745    0.000000
      5          1           0        0.216325    3.368961    0.000000
      6          1           0       -0.874873    2.199968    0.000000
 ---------------------------------------------------------------------

 SCF Done:  E(RHF) =  -152.108044452     A.U. after   10 cycles
 E2 =    -0.5259279124D+00 EUMP2 =    -0.15263397236419D+03
 CCSD(T)
 CCSD(T)= -0.15266116875D+03

 The electronic state is 1-A'.
 Alpha  occ. eigenvalues --  -20.56414 -20.55126  -1.33712  -1.32430  -0.71131
 Alpha  occ. eigenvalues --   -0.69820  -0.57184  -0.55886  -0.50824  -0.49545
 Alpha virt. eigenvalues --    0.12111   0.15242   0.19098   0.22271   0.53292
 Alpha virt. eigenvalues --    0.54991   0.56461   0.57982   0.66862   0.68953
 Alpha virt. eigenvalues --    0.78080   0.78762   0.79321   0.81230   0.82529

 Mulliken charges:
               1
     1  O   -0.510776
     2  H    0.259293
     3  H    0.250895
     4  O   -0.511201
     5  H    0.259545
     6  H    0.252244
 Sum of Mulliken charges =  -0.00000

 Dipole moment (field-independent basis, Debye):
    X=             -3.0158    Y=              2.5584    Z=              0.0000  Tot=              3.9548
 Quadrupole moment (field-independent basis, Debye-Ang):
   XX=            -10.5549   YY=             -8.5901   ZZ=            -14.7131
   XY=              2.6201   XZ=              0.0000   YZ=              0.0000

 CCSD(T)=-152.6611688\RMSD=7.249e-09\PG=CS [SG(H4O2)]\\@
 Normal termination of Gaussian 16 at Fri Aug 26 22:45:47 2022.
