 Gaussian 16, Revision A.03,
 Gaussian 16:  ES64L-G16RevA.03 25-Dec-2016

 ------------------
 #p CCSD(T)/cc-pVTZ
 ------------------

 -----------
 H2O_H2O_139
 -----------
 Symbolic Z-matrix:
 Charge =  0 Multiplicity = 1

                         Standard orientation:
 ---------------------------------------------------------------------
 Center     Atomic      Atomic             Coordinates (Angstroms)
 Number     Number       Type             X           Y           Z
 ---------------------------------------------------------------------
      1          8           0        0.048752    1.162503    0.000000
      2          1           0        0.045240    0.179908    0.000000
      3          1           0       -0.879596    1.484490   -0.000000
      4          8           0        0.048752   -0.982298    0.000000
      5          1           0        0.826159   -1.583250    0.000000
      6          1           0       -0.771840   -1.522793   -0.000000
 ---------------------------------------------------------------------

 SCF Done:  E(RHF) =  -152.058172078     A.U. after   11 cycles
 E2 =    -0.5350393345D+00 EUMP2 =    -0.15259321141299D+03
 CCSD(T)
 CCSD(T)= -0.15261891189D+03

 The electronic state is 1-A'.
 Alpha  occ. eigenvalues --  -20.61747 -20.44966  -1.42588  -1.24906  -0.77657
 Alpha  occ. eigenvalues --   -0.77327  -0.57964  -0.55320  -0.45277  -0.41483
 Alpha virt. eigenvalues --    0.10501   0.16615   0.20970   0.33113   0.47036
 Alpha virt. eigenvalues --    0.52245   0.63193   0.64513   0.70771   0.71146
 Alpha virt. eigenvalues --    0.79050   0.79896   0.81055   0.82127   0.86428

 Mulliken charges:
               1
     1  O   -0.661387
     2  H    0.296948
     3  H    0.206376
     4  O   -0.338452
     5  H    0.252983
     6  H    0.243531
 Sum of Mulliken charges =  -0.00000

 Dipole moment (field-independent basis, Debye):
    X=             -1.4871    Y=             -4.9401    Z=             -0.0000  Tot=              5.1591
 Quadrupole moment (field-independent basis, Debye-Ang):
   XX=             -9.1353   YY=            -10.0947   ZZ=            -14.5832
   XY=             -2.7312   XZ=              0.0000   YZ=             -0.0000

 Normal termination of Gaussian 16 at Fri Aug 26 16:08:16 2022.
