 Gaussian 16, Revision A.03,
 Gaussian 16:  ES64L-G16RevA.03 25-Dec-2016

 ------------------
 #p CCSD(T)/cc-pVTZ
 ------------------

 ------------
 H2O_H2O_1463
 ------------
 Symbolic Z-matrix:
 Charge =  0 Multiplicity = 1

                         Standard orientation:
 ---------------------------------------------------------------------
 Center     Atomic      Atomic             Coordinates (Angstroms)
 Number     Number       Type             X           Y           Z
 ---------------------------------------------------------------------
      1          8           0        0.052356    1.690800    0.000000
      2          1           0        0.050201    0.708201    0.000000
      3          1           0       -0.876436    2.011505    0.000000
      4          8           0        0.052356   -1.510977   -0.000000
      5          1           0        0.789693   -2.160470   -0.000000
      6          1           0       -0.801157   -1.997824   -0.000000
 ---------------------------------------------------------------------

 SCF Done:  E(RHF) =  -152.113801882     A.U. after   10 cycles
 E2 =    -0.5272399019D+00 EUMP2 =    -0.15264104178442D+03
 CCSD(T)
 CCSD(T)= -0.15266803385D+03

 The electronic state is 1-A'.
 Alpha  occ. eigenvalues --  -20.58014 -20.52875  -1.35305  -1.30328  -0.72642
 Alpha  occ. eigenvalues --   -0.68011  -0.59108  -0.53655  -0.52432  -0.47474
 Alpha virt. eigenvalues --    0.12015   0.17542   0.19034   0.29209   0.49668
 Alpha virt. eigenvalues --    0.54794   0.56236   0.59479   0.69218   0.71965
 Alpha virt. eigenvalues --    0.74175   0.76761   0.81584   0.82982   0.84823

 Mulliken charges:
               1
     1  O   -0.542078
     2  H    0.279276
     3  H    0.244550
     4  O   -0.505009
     5  H    0.264984
     6  H    0.258278
 Sum of Mulliken charges =  -0.00000

 Dipole moment (field-independent basis, Debye):
    X=             -1.7526    Y=             -3.5405    Z=             -0.0000  Tot=              3.9505
 Quadrupole moment (field-independent basis, Debye-Ang):
   XX=             -9.2340   YY=             -8.3052   ZZ=            -14.7346
   XY=             -3.6280   XZ=             -0.0000   YZ=              0.0000

 Normal termination of Gaussian 16 at Sat Aug 27 00:44:14 2022.
