 Gaussian 16, Revision A.03,
 Gaussian 16:  ES64L-G16RevA.03 25-Dec-2016

 ------------------
 #p CCSD(T)/cc-pVTZ
 ------------------

 ------------
 H2O_H2O_4050
 ------------
 Symbolic Z-matrix:
 Charge =  0 Multiplicity = 1

                         Standard orientation:
 ---------------------------------------------------------------------
 Center     Atomic      Atomic             Coordinates (Angstroms)
 Number     Number       Type             X           Y           Z
 ---------------------------------------------------------------------
      1          8           0        0.092949   -2.702325    0.000000
      2          1           0        0.092949   -1.719723    0.000000
      3          1           0       -0.836544   -3.020991    0.000000
      4          8           0        0.092949    2.569538    0.000000
      5          1           0        0.092949    3.552139    0.000000
      6          1           0       -0.836544    2.250871    0.000000
 ---------------------------------------------------------------------

 SCF Done:  E(RHF) =  -152.107681369     A.U. after   10 cycles
 E2 =    -0.5259031639D+00 EUMP2 =    -0.15263358453308D+03
 CCSD(T)
 CCSD(T)= -0.15266079532D+03

 The electronic state is 1-A'.
 Alpha  occ. eigenvalues --  -20.56305 -20.55309  -1.33605  -1.32610  -0.71024
 Alpha  occ. eigenvalues --   -0.70004  -0.57066  -0.56061  -0.50715  -0.49722
 Alpha virt. eigenvalues --    0.12251   0.14965   0.18825   0.22217   0.53124
 Alpha virt. eigenvalues --    0.54911   0.56501   0.57797   0.66789   0.68651
 Alpha virt. eigenvalues --    0.78183   0.79151   0.79314   0.81510   0.82151

 Mulliken charges:
               1
     1  O   -0.509445
     2  H    0.257679
     3  H    0.251589
     4  O   -0.510494
     5  H    0.258847
     6  H    0.251825
 Sum of Mulliken charges =  -0.00000

 Dipole moment (field-independent basis, Debye):
    X=             -3.1829    Y=              2.3395    Z=              0.0000  Tot=              3.9502
 Quadrupole moment (field-independent basis, Debye-Ang):
   XX=            -10.8474   YY=             -9.2711   ZZ=            -14.7118
   XY=              2.1550   XZ=              0.0000   YZ=              0.0000

 Normal termination of Gaussian 16 at Sat Aug 27 22:58:47 2022.
