 Gaussian 16, Revision A.03,
 Gaussian 16:  ES64L-G16RevA.03 25-Dec-2016

 ------------------
 #p CCSD(T)/cc-pVTZ
 ------------------

 ------------
 H2O_H2O_3863
 ------------
 Symbolic Z-matrix:
 Charge =  0 Multiplicity = 1

                         Standard orientation:
 ---------------------------------------------------------------------
 Center     Atomic      Atomic             Coordinates (Angstroms)
 Number     Number       Type             X           Y           Z
 ---------------------------------------------------------------------
      1          8           0        0.052282    2.648147    0.000000
      2          1           0        0.050933    1.665547    0.000000
      3          1           0       -0.876772    2.968089    0.000000
      4          8           0        0.052282   -2.468238   -0.000000
      5          1           0        0.790152   -3.117126   -0.000000
      6          1           0       -0.800831   -2.955786   -0.000000
 ---------------------------------------------------------------------

 SCF Done:  E(RHF) =  -152.108800765     A.U. after   10 cycles
 E2 =    -0.5258332801D+00 EUMP2 =    -0.15263463404464D+03
 CCSD(T)
 CCSD(T)= -0.15266181607D+03

 The electronic state is 1-A'.
 Alpha  occ. eigenvalues --  -20.56330 -20.54782  -1.33626  -1.32093  -0.71030
 Alpha  occ. eigenvalues --   -0.69490  -0.57133  -0.55569  -0.50747  -0.49219
 Alpha virt. eigenvalues --    0.12986   0.15274   0.19614   0.21416   0.53514
 Alpha virt. eigenvalues --    0.54940   0.56553   0.57866   0.66706   0.69177
 Alpha virt. eigenvalues --    0.78149   0.79303   0.79627   0.79654   0.82918

 Mulliken charges:
               1
     1  O   -0.515149
     2  H    0.261946
     3  H    0.252574
     4  O   -0.515377
     5  H    0.259342
     6  H    0.256664
 Sum of Mulliken charges =  -0.00000

 Dipole moment (field-independent basis, Debye):
    X=             -1.7894    Y=             -3.1820    Z=             -0.0000  Tot=              3.6507
 Quadrupole moment (field-independent basis, Debye-Ang):
   XX=             -9.2253   YY=             -6.6542   ZZ=            -14.7162
   XY=             -4.9883   XZ=             -0.0000   YZ=              0.0000

 Normal termination of Gaussian 16 at Sat Aug 27 00:09:07 2022.
