 Gaussian 16, Revision A.03,
 Gaussian 16:  ES64L-G16RevA.03 25-Dec-2016

 ------------------
 #p CCSD(T)/cc-pVTZ
 ------------------

 ------------
 H2O_H2O_2417
 ------------
 Symbolic Z-matrix:
 Charge =  0 Multiplicity = 1

                         Standard orientation:
 ---------------------------------------------------------------------
 Center     Atomic      Atomic             Coordinates (Angstroms)
 Number     Number       Type             X           Y           Z
 ---------------------------------------------------------------------
      1          8           0        0.037473    2.069254   -0.000000
      2          1           0        0.035094    1.086656   -0.000000
      3          1           0       -0.891245    2.390171    0.000000
      4          8           0        0.037473   -1.890313   -0.000000
      5          1           0        0.917687   -2.327040   -0.000000
      6          1           0       -0.661110   -2.581318    0.000000
 ---------------------------------------------------------------------

 SCF Done:  E(RHF) =  -152.111221169     A.U. after   10 cycles
 E2 =    -0.5261194422D+00 EUMP2 =    -0.15263734061110D+03
 CCSD(T)
 CCSD(T)= -0.15266443965D+03

 The electronic state is 1-A'.
 Alpha  occ. eigenvalues --  -20.56999 -20.54064  -1.34259  -1.31401  -0.71652
 Alpha  occ. eigenvalues --   -0.68804  -0.57873  -0.54887  -0.51397  -0.48548
 Alpha virt. eigenvalues --    0.12336   0.16554   0.19283   0.24491   0.52678
 Alpha virt. eigenvalues --    0.55464   0.56425   0.58880   0.69045   0.71102
 Alpha virt. eigenvalues --    0.77241   0.78579   0.80302   0.81533   0.83674

 Mulliken charges:
               1
     1  O   -0.525057
     2  H    0.266889
     3  H    0.251348
     4  O   -0.511204
     5  H    0.260696
     6  H    0.257328
 Sum of Mulliken charges =  -0.00000

 Dipole moment (field-independent basis, Debye):
    X=             -1.2732    Y=             -3.2931    Z=              0.0000  Tot=              3.5306
 Quadrupole moment (field-independent basis, Debye-Ang):
   XX=             -9.1595   YY=             -7.6079   ZZ=            -14.7242
   XY=             -4.6309   XZ=             -0.0000   YZ=              0.0000

 Normal termination of Gaussian 16 at Sun Aug 28 07:09:57 2022.
