 Gaussian 16, Revision A.03,
 Gaussian 16:  ES64L-G16RevA.03 25-Dec-2016

 ------------------
 #p CCSD(T)/cc-pVTZ
 ------------------

 ------------
 H2O_H2O_2364
 ------------
 Symbolic Z-matrix:
 Charge =  0 Multiplicity = 1

                         Standard orientation:
 ---------------------------------------------------------------------
 Center     Atomic      Atomic             Coordinates (Angstroms)
 Number     Number       Type             X           Y           Z
 ---------------------------------------------------------------------
      1          8           0        0.048606    2.050081    0.000000
      2          1           0        0.046685    1.067482    0.000000
      3          1           0       -0.880262    2.370565    0.000000
      4          8           0        0.048606   -1.869718   -0.000000
      5          1           0        0.826986   -2.469411   -0.000000
      6          1           0       -0.771110   -2.411541   -0.000000
 ---------------------------------------------------------------------

 SCF Done:  E(RHF) =  -152.111249988     A.U. after   10 cycles
 E2 =    -0.5261649138D+00 EUMP2 =    -0.15263741490194D+03
 CCSD(T)
 CCSD(T)= -0.15266451115D+03

 The electronic state is 1-A'.
 Alpha  occ. eigenvalues --  -20.57047 -20.54016  -1.34304  -1.31354  -0.71697
 Alpha  occ. eigenvalues --   -0.68753  -0.57921  -0.54835  -0.51441  -0.48499
 Alpha virt. eigenvalues --    0.12302   0.16583   0.19287   0.24643   0.52409
 Alpha virt. eigenvalues --    0.55496   0.56328   0.59010   0.69026   0.71317
 Alpha virt. eigenvalues --    0.77149   0.78397   0.80356   0.81841   0.83634

 Mulliken charges:
               1
     1  O   -0.524553
     2  H    0.267303
     3  H    0.249903
     4  O   -0.510081
     5  H    0.260789
     6  H    0.256639
 Sum of Mulliken charges =  -0.00000

 Dipole moment (field-independent basis, Debye):
    X=             -1.6495    Y=             -3.3279    Z=             -0.0000  Tot=              3.7143
 Quadrupole moment (field-independent basis, Debye-Ang):
   XX=             -9.1848   YY=             -7.6075   ZZ=            -14.7244
   XY=             -4.2566   XZ=             -0.0000   YZ=              0.0000

 9323\MP4DQ=-152.6463781\MP4SDQ=-152.6494452\CCSD=-152.6488444\CCSD(T)=
 Normal termination of Gaussian 16 at Sun Aug 28 06:41:42 2022.
