 Gaussian 16, Revision A.03,
 Gaussian 16:  ES64L-G16RevA.03 25-Dec-2016

 ------------------
 #p CCSD(T)/cc-pVTZ
 ------------------

 -----------
 H2O_H2O_556
 -----------
 Symbolic Z-matrix:
 Charge =  0 Multiplicity = 1

                         Standard orientation:
 ---------------------------------------------------------------------
 Center     Atomic      Atomic             Coordinates (Angstroms)
 Number     Number       Type             X           Y           Z
 ---------------------------------------------------------------------
      1          8           0        0.076800   -1.322740    0.000000
      2          1           0        0.075693   -0.340139    0.000000
      3          1           0       -0.852334   -1.642454    0.000000
      4          8           0        0.076800    1.159610    0.000000
      5          1           0        0.451802    2.067839    0.000000
      6          1           0       -0.903957    1.219797    0.000000
 ---------------------------------------------------------------------

 SCF Done:  E(RHF) =  -152.099354394     A.U. after   11 cycles
 E2 =    -0.5320355137D+00 EUMP2 =    -0.15263138990818D+03
 CCSD(T)
 CCSD(T)= -0.15265788347D+03

 The electronic state is 1-A'.
 Alpha  occ. eigenvalues --  -20.59966 -20.50219  -1.38390  -1.28399  -0.76244
 Alpha  occ. eigenvalues --   -0.69408  -0.59063  -0.54968  -0.50873  -0.45369
 Alpha virt. eigenvalues --    0.11219   0.16761   0.20344   0.32869   0.48388
 Alpha virt. eigenvalues --    0.53196   0.59353   0.63316   0.71327   0.72042
 Alpha virt. eigenvalues --    0.74004   0.78362   0.79257   0.83863   0.83973

 Mulliken charges:
               1
     1  O   -0.584746
     2  H    0.299054
     3  H    0.220070
     4  O   -0.410232
     5  H    0.236878
     6  H    0.238975
 Sum of Mulliken charges =  -0.00000

 Dipole moment (field-independent basis, Debye):
    X=             -2.4623    Y=              3.8393    Z=              0.0000  Tot=              4.5610
 Quadrupole moment (field-independent basis, Debye-Ang):
   XX=             -9.9743   YY=             -9.2784   ZZ=            -14.6624
   XY=              2.7245   XZ=              0.0000   YZ=              0.0000

 Normal termination of Gaussian 16 at Fri Aug 26 19:02:56 2022.
