 Gaussian 16, Revision A.03,
 Gaussian 16:  ES64L-G16RevA.03 25-Dec-2016

 ------------------
 #p CCSD(T)/cc-pVTZ
 ------------------

 ------------
 H2O_H2O_2897
 ------------
 Symbolic Z-matrix:
 Charge =  0 Multiplicity = 1

                         Standard orientation:
 ---------------------------------------------------------------------
 Center     Atomic      Atomic             Coordinates (Angstroms)
 Number     Number       Type             X           Y           Z
 ---------------------------------------------------------------------
      1          8           0       -0.019871    2.252291    0.000000
      2          1           0       -0.017011    1.269693    0.000000
      3          1           0        0.908690    2.573661    0.000000
      4          8           0       -0.019871   -2.085192    0.000000
      5          1           0       -0.993690   -2.216281    0.000000
      6          1           0        0.419951   -2.963862    0.000000
 ---------------------------------------------------------------------

 SCF Done:  E(RHF) =  -152.110028381     A.U. after   10 cycles
 E2 =    -0.5259449178D+00 EUMP2 =    -0.15263597329878D+03
 CCSD(T)
 CCSD(T)= -0.15266311158D+03

 The electronic state is 1-A'.
 Alpha  occ. eigenvalues --  -20.56680 -20.54530  -1.33963  -1.31852  -0.71368
 Alpha  occ. eigenvalues --   -0.69257  -0.57512  -0.55343  -0.51092  -0.48991
 Alpha virt. eigenvalues --    0.12321   0.16017   0.19295   0.23221   0.53651
 Alpha virt. eigenvalues --    0.55579   0.56402   0.58385   0.68454   0.69409
 Alpha virt. eigenvalues --    0.77777   0.78933   0.79845   0.80383   0.83230

 Mulliken charges:
               1
     1  O   -0.520951
     2  H    0.263680
     3  H    0.254161
     4  O   -0.514580
     5  H    0.259113
     6  H    0.258576
 Sum of Mulliken charges =  -0.00000

 Dipole moment (field-independent basis, Debye):
    X=              0.6805    Y=             -3.0153    Z=              0.0000  Tot=              3.0911
 Quadrupole moment (field-independent basis, Debye-Ang):
   XX=             -9.4468   YY=             -7.7190   ZZ=            -14.7202
   XY=              5.7407   XZ=              0.0000   YZ=              0.0000

 Normal termination of Gaussian 16 at Fri Aug 26 18:10:35 2022.
