 Gaussian 16, Revision A.03,
 Gaussian 16:  ES64L-G16RevA.03 25-Dec-2016

 ------------------
 #p CCSD(T)/cc-pVTZ
 ------------------

 ------------
 H2O_H2O_2463
 ------------
 Symbolic Z-matrix:
 Charge =  0 Multiplicity = 1

                         Standard orientation:
 ---------------------------------------------------------------------
 Center     Atomic      Atomic             Coordinates (Angstroms)
 Number     Number       Type             X           Y           Z
 ---------------------------------------------------------------------
      1          8           0        0.052317    2.089700    0.000000
      2          1           0        0.050591    1.107100    0.000000
      3          1           0       -0.876615    2.409998    0.000000
      4          8           0        0.052317   -1.909830    0.000000
      5          1           0        0.789937   -2.559001    0.000000
      6          1           0       -0.800984   -2.397051    0.000000
 ---------------------------------------------------------------------

 SCF Done:  E(RHF) =  -152.110921299     A.U. after   10 cycles
 E2 =    -0.5261240427D+00 EUMP2 =    -0.15263704534132D+03
 CCSD(T)
 CCSD(T)= -0.15266415066D+03

 The electronic state is 1-A'.
 Alpha  occ. eigenvalues --  -20.56975 -20.54109  -1.34236  -1.31442  -0.71631
 Alpha  occ. eigenvalues --   -0.68836  -0.57832  -0.54925  -0.51371  -0.48585
 Alpha virt. eigenvalues --    0.12308   0.16457   0.19325   0.24246   0.52597
 Alpha virt. eigenvalues --    0.55600   0.56240   0.59013   0.69015   0.70848
 Alpha virt. eigenvalues --    0.77315   0.78603   0.80262   0.81111   0.83676

 Mulliken charges:
               1
     1  O   -0.523028
     2  H    0.266787
     3  H    0.249831
     4  O   -0.510504
     5  H    0.260556
     6  H    0.256358
 Sum of Mulliken charges =  -0.00000

 Dipole moment (field-independent basis, Debye):
    X=             -1.7768    Y=             -3.3036    Z=              0.0000  Tot=              3.7511
 Quadrupole moment (field-independent basis, Debye-Ang):
   XX=             -9.2284   YY=             -7.5535   ZZ=            -14.7231
   XY=             -4.2001   XZ=             -0.0000   YZ=              0.0000

 53577\MP4DQ=-152.646025\MP4SDQ=-152.6490902\CCSD=-152.6484907\CCSD(T)=
 Normal termination of Gaussian 16 at Sun Aug 28 07:31:56 2022.
