 Gaussian 16, Revision A.03,
 Gaussian 16:  ES64L-G16RevA.03 25-Dec-2016

 ------------------
 #p CCSD(T)/cc-pVTZ
 ------------------

 ------------
 H2O_H2O_3292
 ------------
 Symbolic Z-matrix:
 Charge =  0 Multiplicity = 1

                         Standard orientation:
 ---------------------------------------------------------------------
 Center     Atomic      Atomic             Coordinates (Angstroms)
 Number     Number       Type             X           Y           Z
 ---------------------------------------------------------------------
      1          8           0        0.037441    2.418285   -0.000000
      2          1           0        0.035418    1.435685   -0.000000
      3          1           0       -0.891394    2.738864   -0.000000
      4          8           0        0.037441   -2.239316    0.000000
      5          1           0        0.917813   -2.675724    0.000000
      6          1           0       -0.660892   -2.930574    0.000000
 ---------------------------------------------------------------------

 SCF Done:  E(RHF) =  -152.109529349     A.U. after   10 cycles
 E2 =    -0.5258762730D+00 EUMP2 =    -0.15263540562196D+03
 CCSD(T)
 CCSD(T)= -0.15266256185D+03

 The electronic state is 1-A'.
 Alpha  occ. eigenvalues --  -20.56517 -20.54572  -1.33802  -1.31889  -0.71203
 Alpha  occ. eigenvalues --   -0.69288  -0.57335  -0.55376  -0.50930  -0.49023
 Alpha virt. eigenvalues --    0.12646   0.15711   0.19496   0.22162   0.53331
 Alpha virt. eigenvalues --    0.55282   0.56463   0.58188   0.67435   0.69356
 Alpha virt. eigenvalues --    0.77975   0.78934   0.79592   0.79809   0.83125

 Mulliken charges:
               1
     1  O   -0.518164
     2  H    0.263409
     3  H    0.252872
     4  O   -0.515589
     5  H    0.259629
     6  H    0.257843
 Sum of Mulliken charges =  -0.00000

 Dipole moment (field-independent basis, Debye):
    X=             -1.2789    Y=             -3.1993    Z=              0.0000  Tot=              3.4455
 Quadrupole moment (field-independent basis, Debye-Ang):
   XX=             -9.1590   YY=             -7.0499   ZZ=            -14.7188
   XY=             -5.3022   XZ=              0.0000   YZ=             -0.0000

 Normal termination of Gaussian 16 at Fri Aug 26 20:52:10 2022.
