 Gaussian 16, Revision A.03,
 Gaussian 16:  ES64L-G16RevA.03 25-Dec-2016

 ------------------
 #p CCSD(T)/cc-pVTZ
 ------------------

 -----------
 H2O_H2O_755
 -----------
 Symbolic Z-matrix:
 Charge =  0 Multiplicity = 1

                         Standard orientation:
 ---------------------------------------------------------------------
 Center     Atomic      Atomic             Coordinates (Angstroms)
 Number     Number       Type             X           Y           Z
 ---------------------------------------------------------------------
      1          8           0        0.079880   -1.400273    0.000000
      2          1           0        0.079039   -0.417672    0.000000
      3          1           0       -0.849339   -1.719736    0.000000
      4          8           0        0.079880    1.241269    0.000000
      5          1           0        0.394930    2.171994    0.000000
      6          1           0       -0.902714    1.237448    0.000000
 ---------------------------------------------------------------------

 SCF Done:  E(RHF) =  -152.105903244     A.U. after   10 cycles
 E2 =    -0.5305740547D+00 EUMP2 =    -0.15263647729831D+03
 CCSD(T)
 CCSD(T)= -0.15266320443D+03

 The electronic state is 1-A'.
 Alpha  occ. eigenvalues --  -20.59357 -20.51559  -1.37287  -1.29394  -0.75166
 Alpha  occ. eigenvalues --   -0.68421  -0.59639  -0.54099  -0.52240  -0.46427
 Alpha virt. eigenvalues --    0.11400   0.16784   0.20180   0.32308   0.48221
 Alpha virt. eigenvalues --    0.53576   0.58897   0.61860   0.69792   0.72054
 Alpha virt. eigenvalues --    0.74257   0.77707   0.80071   0.83123   0.83739

 Mulliken charges:
               1
     1  O   -0.565127
     2  H    0.295827
     3  H    0.226370
     4  O   -0.433443
     5  H    0.237106
     6  H    0.239266
 Sum of Mulliken charges =  -0.00000

 Dipole moment (field-independent basis, Debye):
    X=             -2.5966    Y=              3.5371    Z=              0.0000  Tot=              4.3879
 Quadrupole moment (field-independent basis, Debye-Ang):
   XX=            -10.1351   YY=             -9.0732   ZZ=            -14.6860
   XY=              2.7031   XZ=              0.0000   YZ=              0.0000

 Normal termination of Gaussian 16 at Fri Aug 26 20:18:33 2022.
