 Gaussian 16, Revision A.03,
 Gaussian 16:  ES64L-G16RevA.03 25-Dec-2016

 ------------------
 #p CCSD(T)/cc-pVTZ
 ------------------

 ------------
 H2O_H2O_2460
 ------------
 Symbolic Z-matrix:
 Charge =  0 Multiplicity = 1

                         Standard orientation:
 ---------------------------------------------------------------------
 Center     Atomic      Atomic             Coordinates (Angstroms)
 Number     Number       Type             X           Y           Z
 ---------------------------------------------------------------------
      1          8           0        0.063249    2.087318    0.000000
      2          1           0        0.061988    1.104718    0.000000
      3          1           0       -0.865834    2.407178    0.000000
      4          8           0        0.063249   -1.911830   -0.000000
      5          1           0        0.660419   -2.692147   -0.000000
      6          1           0       -0.868561   -2.223658   -0.000000
 ---------------------------------------------------------------------

 SCF Done:  E(RHF) =  -152.110601311     A.U. after   10 cycles
 E2 =    -0.5261581515D+00 EUMP2 =    -0.15263675946280D+03
 CCSD(T)
 CCSD(T)= -0.15266387021D+03

 The electronic state is 1-A'.
 Alpha  occ. eigenvalues --  -20.56976 -20.54204  -1.34241  -1.31533  -0.71644
 Alpha  occ. eigenvalues --   -0.68920  -0.57820  -0.55009  -0.51372  -0.48671
 Alpha virt. eigenvalues --    0.12204   0.16367   0.19365   0.24178   0.52811
 Alpha virt. eigenvalues --    0.55726   0.56047   0.58878   0.68924   0.70794
 Alpha virt. eigenvalues --    0.77309   0.78747   0.80187   0.81192   0.83541

 Mulliken charges:
               1
     1  O   -0.521314
     2  H    0.266407
     3  H    0.248795
     4  O   -0.509383
     5  H    0.260221
     6  H    0.255275
 Sum of Mulliken charges =  -0.00000

 Dipole moment (field-independent basis, Debye):
    X=             -2.1476    Y=             -3.2215    Z=             -0.0000  Tot=              3.8717
 Quadrupole moment (field-independent basis, Debye-Ang):
   XX=             -9.4619   YY=             -7.6793   ZZ=            -14.7219
   XY=             -3.8254   XZ=             -0.0000   YZ=              0.0000

 Normal termination of Gaussian 16 at Sun Aug 28 07:30:01 2022.
