 Gaussian 16, Revision A.03,
 Gaussian 16:  ES64L-G16RevA.03 25-Dec-2016

 ------------------
 #p CCSD(T)/cc-pVTZ
 ------------------

 ------------
 H2O_H2O_3523
 ------------
 Symbolic Z-matrix:
 Charge =  0 Multiplicity = 1

                         Standard orientation:
 ---------------------------------------------------------------------
 Center     Atomic      Atomic             Coordinates (Angstroms)
 Number     Number       Type             X           Y           Z
 ---------------------------------------------------------------------
      1          8           0       -0.016611    2.499577    0.000000
      2          1           0       -0.013933    1.516979    0.000000
      3          1           0        0.912010    2.820776    0.000000
      4          8           0       -0.016611   -2.336181    0.000000
      5          1           0       -0.996930   -2.403118    0.000000
      6          1           0        0.364635   -3.241807    0.000000
 ---------------------------------------------------------------------

 SCF Done:  E(RHF) =  -152.109134306     A.U. after   10 cycles
 E2 =    -0.5258426500D+00 EUMP2 =    -0.15263497695594D+03
 CCSD(T)
 CCSD(T)= -0.15266214847D+03

 The electronic state is 1-A'.
 Alpha  occ. eigenvalues --  -20.56418 -20.54821  -1.33714  -1.32135  -0.71120
 Alpha  occ. eigenvalues --   -0.69541  -0.57230  -0.55619  -0.50837  -0.49266
 Alpha virt. eigenvalues --    0.12542   0.15494   0.19265   0.22197   0.53312
 Alpha virt. eigenvalues --    0.55337   0.56549   0.57953   0.66956   0.69241
 Alpha virt. eigenvalues --    0.78063   0.78715   0.79578   0.80634   0.82914

 Mulliken charges:
               1
     1  O   -0.517147
     2  H    0.261325
     3  H    0.254771
     4  O   -0.515996
     5  H    0.258057
     6  H    0.258990
 Sum of Mulliken charges =  -0.00000

 Dipole moment (field-independent basis, Debye):
    X=              0.5707    Y=             -2.9033    Z=              0.0000  Tot=              2.9588
 Quadrupole moment (field-independent basis, Debye-Ang):
   XX=             -9.5428   YY=             -7.6089   ZZ=            -14.7172
   XY=              6.5609   XZ=              0.0000   YZ=              0.0000

 Normal termination of Gaussian 16 at Fri Aug 26 22:11:21 2022.
