 Gaussian 16, Revision A.03,
 Gaussian 16:  ES64L-G16RevA.03 25-Dec-2016

 ------------------
 #p CCSD(T)/cc-pVTZ
 ------------------

 ------------
 H2O_H2O_1646
 ------------
 Symbolic Z-matrix:
 Charge =  0 Multiplicity = 1

                         Standard orientation:
 ---------------------------------------------------------------------
 Center     Atomic      Atomic             Coordinates (Angstroms)
 Number     Number       Type             X           Y           Z
 ---------------------------------------------------------------------
      1          8           0       -0.023290    1.755459    0.000000
      2          1           0       -0.019746    0.772864    0.000000
      3          1           0        0.905048    2.077476    0.000000
      4          8           0       -0.023290   -1.585116    0.000000
      5          1           0       -0.986313   -1.780287    0.000000
      6          1           0        0.473649   -2.432796    0.000000
 ---------------------------------------------------------------------

 SCF Done:  E(RHF) =  -152.113264787     A.U. after   10 cycles
 E2 =    -0.5268222381D+00 EUMP2 =    -0.15264008702480D+03
 CCSD(T)
 CCSD(T)= -0.15266711347D+03

 The electronic state is 1-A'.
 Alpha  occ. eigenvalues --  -20.57710 -20.53365  -1.34996  -1.30773  -0.72406
 Alpha  occ. eigenvalues --   -0.68291  -0.58783  -0.54164  -0.52124  -0.47930
 Alpha virt. eigenvalues --    0.12180   0.17439   0.19074   0.28116   0.51198
 Alpha virt. eigenvalues --    0.54289   0.55954   0.59925   0.68962   0.73270
 Alpha virt. eigenvalues --    0.74850   0.77422   0.81141   0.83107   0.84389

 Mulliken charges:
               1
     1  O   -0.539396
     2  H    0.272695
     3  H    0.251748
     4  O   -0.505971
     5  H    0.263426
     6  H    0.257498
 Sum of Mulliken charges =  -0.00000

 Dipole moment (field-independent basis, Debye):
    X=              0.7893    Y=             -3.2925    Z=              0.0000  Tot=              3.3857
 Quadrupole moment (field-independent basis, Debye-Ang):
   XX=             -9.3622   YY=             -8.2954   ZZ=            -14.7322
   XY=              4.3755   XZ=              0.0000   YZ=              0.0000

 Normal termination of Gaussian 16 at Sun Aug 28 00:18:07 2022.
