 Gaussian 16, Revision A.03,
 Gaussian 16:  ES64L-G16RevA.03 25-Dec-2016

 ------------------
 #p CCSD(T)/cc-pVTZ
 ------------------

 ------------
 H2O_H2O_4774
 ------------
 Symbolic Z-matrix:
 Charge =  0 Multiplicity = 1

                         Standard orientation:
 ---------------------------------------------------------------------
 Center     Atomic      Atomic             Coordinates (Angstroms)
 Number     Number       Type             X           Y           Z
 ---------------------------------------------------------------------
      1          8           0       -0.013465    2.995936    0.000000
      2          1           0       -0.011154    2.013338    0.000000
      3          1           0        0.915276    3.316788    0.000000
      4          8           0       -0.013465   -2.836656    0.000000
      5          1           0       -0.996064   -2.838968    0.000000
      6          1           0        0.307386   -3.765397    0.000000
 ---------------------------------------------------------------------

 SCF Done:  E(RHF) =  -152.108292850     A.U. after   10 cycles
 E2 =    -0.5258005794D+00 EUMP2 =    -0.15263409342957D+03
 CCSD(T)
 CCSD(T)= -0.15266129552D+03

 The electronic state is 1-A'.
 Alpha  occ. eigenvalues --  -20.56135 -20.55138  -1.33439  -1.32444  -0.70845
 Alpha  occ. eigenvalues --   -0.69851  -0.56925  -0.55915  -0.50557  -0.49566
 Alpha virt. eigenvalues --    0.13350   0.14767   0.19443   0.21143   0.53528
 Alpha virt. eigenvalues --    0.54821   0.56699   0.57718   0.66990   0.68471
 Alpha virt. eigenvalues --    0.78327   0.79295   0.79683   0.80788   0.81991

 Mulliken charges:
               1
     1  O   -0.513709
     2  H    0.258678
     3  H    0.254984
     4  O   -0.514158
     5  H    0.256553
     6  H    0.257652
 Sum of Mulliken charges =   0.00000

 Dipole moment (field-independent basis, Debye):
    X=              0.4637    Y=             -2.7881    Z=              0.0000  Tot=              2.8264
 Quadrupole moment (field-independent basis, Debye-Ang):
   XX=             -9.6488   YY=             -7.3727   ZZ=            -14.7143
   XY=              8.1216   XZ=              0.0000   YZ=              0.0000

 Normal termination of Gaussian 16 at Sun Aug 28 05:48:44 2022.
