 Gaussian 16, Revision A.03,
 Gaussian 16:  ES64L-G16RevA.03 25-Dec-2016

 ------------------
 #p CCSD(T)/cc-pVTZ
 ------------------

 ------------
 H2O_H2O_2968
 ------------
 Symbolic Z-matrix:
 Charge =  0 Multiplicity = 1

                         Standard orientation:
 ---------------------------------------------------------------------
 Center     Atomic      Atomic             Coordinates (Angstroms)
 Number     Number       Type             X           Y           Z
 ---------------------------------------------------------------------
      1          8           0        0.033796    2.287864    0.000000
      2          1           0        0.031513    1.305265    0.000000
      3          1           0       -0.894954    2.608689   -0.000000
      4          8           0        0.033796   -2.110345    0.000000
      5          1           0        0.940726   -2.488479    0.000000
      6          1           0       -0.618025   -2.845623   -0.000000
 ---------------------------------------------------------------------

 SCF Done:  E(RHF) =  -152.110033265     A.U. after   10 cycles
 E2 =    -0.5259319302D+00 EUMP2 =    -0.15263596519505D+03
 CCSD(T)
 CCSD(T)= -0.15266310347D+03

 The electronic state is 1-A'.
 Alpha  occ. eigenvalues --  -20.56660 -20.54434  -1.33938  -1.31756  -0.71338
 Alpha  occ. eigenvalues --   -0.69155  -0.57490  -0.55247  -0.51069  -0.48894
 Alpha virt. eigenvalues --    0.12483   0.15992   0.19411   0.22841   0.53254
 Alpha virt. eigenvalues --    0.55514   0.56412   0.58512   0.68394   0.69337
 Alpha virt. eigenvalues --    0.77818   0.79014   0.79683   0.79933   0.83269

 Mulliken charges:
               1
     1  O   -0.520277
     2  H    0.264395
     3  H    0.252769
     4  O   -0.514670
     5  H    0.259858
     6  H    0.257925
 Sum of Mulliken charges =  -0.00000

 Dipole moment (field-independent basis, Debye):
    X=             -1.1529    Y=             -3.2002    Z=             -0.0000  Tot=              3.4015
 Quadrupole moment (field-independent basis, Debye-Ang):
   XX=             -9.1859   YY=             -7.3029   ZZ=            -14.7204
   XY=             -5.1981   XZ=             -0.0000   YZ=             -0.0000

 Normal termination of Gaussian 16 at Fri Aug 26 18:50:56 2022.
