 Gaussian 16, Revision A.03,
 Gaussian 16:  ES64L-G16RevA.03 25-Dec-2016

 ------------------
 #p CCSD(T)/cc-pVTZ
 ------------------

 ------------
 H2O_H2O_3890
 ------------
 Symbolic Z-matrix:
 Charge =  0 Multiplicity = 1

                         Standard orientation:
 ---------------------------------------------------------------------
 Center     Atomic      Atomic             Coordinates (Angstroms)
 Number     Number       Type             X           Y           Z
 ---------------------------------------------------------------------
      1          8           0        0.044838    2.658397   -0.000000
      2          1           0        0.043249    1.675797   -0.000000
      3          1           0       -0.884138    2.978567   -0.000000
      4          8           0        0.044838   -2.477978    0.000000
      5          1           0        0.860958   -3.025203    0.000000
      6          1           0       -0.737484   -3.072517    0.000000
 ---------------------------------------------------------------------

 SCF Done:  E(RHF) =  -152.108845798     A.U. after   10 cycles
 E2 =    -0.5258246393D+00 EUMP2 =    -0.15263467043743D+03
 CCSD(T)
 CCSD(T)= -0.15266185208D+03

 The electronic state is 1-A'.
 Alpha  occ. eigenvalues --  -20.56320 -20.54779  -1.33616  -1.32090  -0.71019
 Alpha  occ. eigenvalues --   -0.69490  -0.57125  -0.55568  -0.50738  -0.49218
 Alpha virt. eigenvalues --    0.13019   0.15270   0.19625   0.21406   0.53530
 Alpha virt. eigenvalues --    0.54941   0.56569   0.57855   0.66696   0.69167
 Alpha virt. eigenvalues --    0.78157   0.79398   0.79584   0.79628   0.82923

 Mulliken charges:
               1
     1  O   -0.515521
     2  H    0.261937
     3  H    0.252985
     4  O   -0.515707
     5  H    0.259133
     6  H    0.257172
 Sum of Mulliken charges =  -0.00000

 Dipole moment (field-independent basis, Debye):
    X=             -1.5350    Y=             -3.1897    Z=              0.0000  Tot=              3.5398
 Quadrupole moment (field-independent basis, Debye-Ang):
   XX=             -9.1568   YY=             -6.6108   ZZ=            -14.7164
   XY=             -5.3827   XZ=              0.0000   YZ=             -0.0000

 Normal termination of Gaussian 16 at Sat Aug 27 00:18:17 2022.
