 Gaussian 16, Revision A.03,
 Gaussian 16:  ES64L-G16RevA.03 25-Dec-2016

 ------------------
 #p CCSD(T)/cc-pVTZ
 ------------------

 ------------
 H2O_H2O_1059
 ------------
 Symbolic Z-matrix:
 Charge =  0 Multiplicity = 1

                         Standard orientation:
 ---------------------------------------------------------------------
 Center     Atomic      Atomic             Coordinates (Angstroms)
 Number     Number       Type             X           Y           Z
 ---------------------------------------------------------------------
      1          8           0        0.066810    1.527556   -0.000000
      2          1           0        0.065267    0.544956   -0.000000
      3          1           0       -0.862182    1.847681   -0.000000
      4          8           0        0.066810   -1.354528    0.000000
      5          1           0        0.611431   -2.172388    0.000000
      6          1           0       -0.883471   -1.604473    0.000000
 ---------------------------------------------------------------------

 SCF Done:  E(RHF) =  -152.112429057     A.U. after   10 cycles
 E2 =    -0.5285909805D+00 EUMP2 =    -0.15264102003769D+03
 CCSD(T)
 CCSD(T)= -0.15266790309D+03

 The electronic state is 1-A'.
 Alpha  occ. eigenvalues --  -20.58700 -20.52116  -1.36181  -1.29733  -0.73552
 Alpha  occ. eigenvalues --   -0.68099  -0.59623  -0.53227  -0.52827  -0.46836
 Alpha virt. eigenvalues --    0.11711   0.17318   0.19453   0.31359   0.48366
 Alpha virt. eigenvalues --    0.54669   0.58273   0.59429   0.69802   0.72799
 Alpha virt. eigenvalues --    0.73284   0.76756   0.82035   0.82423   0.84463

 Mulliken charges:
               1
     1  O   -0.556292
     2  H    0.293353
     3  H    0.236345
     4  O   -0.481131
     5  H    0.255150
     6  H    0.252575
 Sum of Mulliken charges =  -0.00000

 Dipole moment (field-independent basis, Debye):
    X=             -2.2055    Y=             -3.6022    Z=              0.0000  Tot=              4.2238
 Quadrupole moment (field-independent basis, Debye-Ang):
   XX=             -9.5847   YY=             -8.7212   ZZ=            -14.7215
   XY=             -3.1545   XZ=              0.0000   YZ=             -0.0000

 Normal termination of Gaussian 16 at Fri Aug 26 22:12:35 2022.
