 Gaussian 16, Revision A.03,
 Gaussian 16:  ES64L-G16RevA.03 25-Dec-2016

 ------------------
 #p CCSD(T)/cc-pVTZ
 ------------------

 ------------
 H2O_H2O_3194
 ------------
 Symbolic Z-matrix:
 Charge =  0 Multiplicity = 1

                         Standard orientation:
 ---------------------------------------------------------------------
 Center     Atomic      Atomic             Coordinates (Angstroms)
 Number     Number       Type             X           Y           Z
 ---------------------------------------------------------------------
      1          8           0        0.030186    2.376574   -0.000000
      2          1           0        0.027859    1.393975   -0.000000
      3          1           0       -0.898549    2.697441   -0.000000
      4          8           0        0.030186   -2.200965    0.000000
      5          1           0        0.959891   -2.519014    0.000000
      6          1           0       -0.572185   -2.977274    0.000000
 ---------------------------------------------------------------------

 SCF Done:  E(RHF) =  -152.109665590     A.U. after   10 cycles
 E2 =    -0.5258868612D+00 EUMP2 =    -0.15263555245145D+03
 CCSD(T)
 CCSD(T)= -0.15266270410D+03

 The electronic state is 1-A'.
 Alpha  occ. eigenvalues --  -20.56552 -20.54564  -1.33837  -1.31882  -0.71239
 Alpha  occ. eigenvalues --   -0.69283  -0.57374  -0.55371  -0.50965  -0.49018
 Alpha virt. eigenvalues --    0.12554   0.15788   0.19430   0.22405   0.53352
 Alpha virt. eigenvalues --    0.55397   0.56464   0.58245   0.67661   0.69351
 Alpha virt. eigenvalues --    0.77936   0.78850   0.79814   0.79855   0.83140

 Mulliken charges:
               1
     1  O   -0.518917
     2  H    0.263404
     3  H    0.253367
     4  O   -0.515547
     5  H    0.259432
     6  H    0.258261
 Sum of Mulliken charges =  -0.00000

 Dipole moment (field-independent basis, Debye):
    X=             -1.0314    Y=             -3.1457    Z=              0.0000  Tot=              3.3105
 Quadrupole moment (field-independent basis, Debye-Ang):
   XX=             -9.2294   YY=             -7.2401   ZZ=            -14.7192
   XY=             -5.5409   XZ=              0.0000   YZ=             -0.0000

 Normal termination of Gaussian 16 at Fri Aug 26 20:19:38 2022.
