 Gaussian 16, Revision A.03,
 Gaussian 16:  ES64L-G16RevA.03 25-Dec-2016

 ------------------
 #p CCSD(T)/cc-pVTZ
 ------------------

 ------------
 H2O_H2O_3988
 ------------
 Symbolic Z-matrix:
 Charge =  0 Multiplicity = 1

                         Standard orientation:
 ---------------------------------------------------------------------
 Center     Atomic      Atomic             Coordinates (Angstroms)
 Number     Number       Type             X           Y           Z
 ---------------------------------------------------------------------
      1          8           0        0.052280    2.698008   -0.000000
      2          1           0        0.050957    1.715408   -0.000000
      3          1           0       -0.876783    3.017926   -0.000000
      4          8           0        0.052280   -2.518096    0.000000
      5          1           0        0.790166   -3.166965    0.000000
      6          1           0       -0.800821   -3.005666    0.000000
 ---------------------------------------------------------------------

 SCF Done:  E(RHF) =  -152.108702554     A.U. after   10 cycles
 E2 =    -0.5258262074D+00 EUMP2 =    -0.15263452876090D+03
 CCSD(T)
 CCSD(T)= -0.15266171470D+03

 The electronic state is 1-A'.
 Alpha  occ. eigenvalues --  -20.56297 -20.54819  -1.33594  -1.32129  -0.70998
 Alpha  occ. eigenvalues --   -0.69527  -0.57098  -0.55604  -0.50715  -0.49254
 Alpha virt. eigenvalues --    0.13066   0.15196   0.19632   0.21319   0.53544
 Alpha virt. eigenvalues --    0.54913   0.56577   0.57839   0.66680   0.69103
 Alpha virt. eigenvalues --    0.78179   0.79401   0.79594   0.79716   0.82880

 Mulliken charges:
               1
     1  O   -0.514816
     2  H    0.261643
     3  H    0.252698
     4  O   -0.515282
     5  H    0.259163
     6  H    0.256595
 Sum of Mulliken charges =   0.00000

 Dipole moment (field-independent basis, Debye):
    X=             -1.7901    Y=             -3.1764    Z=              0.0000  Tot=              3.6461
 Quadrupole moment (field-independent basis, Debye-Ang):
   XX=             -9.2252   YY=             -6.5747   ZZ=            -14.7158
   XY=             -5.0585   XZ=              0.0000   YZ=              0.0000

 CCSD(T)=-152.6617147\RMSD=7.102e-09\PG=CS [SG(H4O2)]\\@
 Normal termination of Gaussian 16 at Sat Aug 27 00:51:27 2022.
