 Gaussian 16, Revision A.03,
 Gaussian 16:  ES64L-G16RevA.03 25-Dec-2016

 ------------------
 #p CCSD(T)/cc-pVTZ
 ------------------

 ------------
 H2O_H2O_1439
 ------------
 Symbolic Z-matrix:
 Charge =  0 Multiplicity = 1

                         Standard orientation:
 ---------------------------------------------------------------------
 Center     Atomic      Atomic             Coordinates (Angstroms)
 Number     Number       Type             X           Y           Z
 ---------------------------------------------------------------------
      1          8           0        0.048647    1.681098   -0.000000
      2          1           0        0.046280    0.698500   -0.000000
      3          1           0       -0.880075    2.002003   -0.000000
      4          8           0        0.048647   -1.500779    0.000000
      5          1           0        0.826755   -2.100825    0.000000
      6          1           0       -0.771314   -2.042231    0.000000
 ---------------------------------------------------------------------

 SCF Done:  E(RHF) =  -152.113971671     A.U. after   10 cycles
 E2 =    -0.5272773480D+00 EUMP2 =    -0.15264124901850D+03
 CCSD(T)
 CCSD(T)= -0.15266823470D+03

 The electronic state is 1-A'.
 Alpha  occ. eigenvalues --  -20.58049 -20.52796  -1.35345  -1.30259  -0.72672
 Alpha  occ. eigenvalues --   -0.67978  -0.59159  -0.53576  -0.52471  -0.47406
 Alpha virt. eigenvalues --    0.12030   0.17642   0.18978   0.29391   0.49688
 Alpha virt. eigenvalues --    0.54700   0.56138   0.59671   0.69088   0.71851
 Alpha virt. eigenvalues --    0.74080   0.76819   0.81651   0.82970   0.84882

 Mulliken charges:
               1
     1  O   -0.543930
     2  H    0.280067
     3  H    0.245040
     4  O   -0.505436
     5  H    0.265457
     6  H    0.258802
 Sum of Mulliken charges =  -0.00000

 Dipole moment (field-independent basis, Debye):
    X=             -1.6280    Y=             -3.5607    Z=              0.0000  Tot=              3.9152
 Quadrupole moment (field-independent basis, Debye-Ang):
   XX=             -9.1883   YY=             -8.3225   ZZ=            -14.7351
   XY=             -3.6787   XZ=              0.0000   YZ=             -0.0000

 Normal termination of Gaussian 16 at Sat Aug 27 00:35:33 2022.
