 Gaussian 16, Revision A.03,
 Gaussian 16:  ES64L-G16RevA.03 25-Dec-2016

 ------------------
 #p CCSD(T)/cc-pVTZ
 ------------------

 ------------
 H2O_H2O_2728
 ------------
 Symbolic Z-matrix:
 Charge =  0 Multiplicity = 1

                         Standard orientation:
 ---------------------------------------------------------------------
 Center     Atomic      Atomic             Coordinates (Angstroms)
 Number     Number       Type             X           Y           Z
 ---------------------------------------------------------------------
      1          8           0        0.085602   -2.182941    0.000000
      2          1           0        0.085307   -1.200340    0.000000
      3          1           0       -0.843795   -2.501887    0.000000
      4          8           0        0.085602    2.033348    0.000000
      5          1           0        0.277009    2.997126    0.000000
      6          1           0       -0.888159    1.901846    0.000000
 ---------------------------------------------------------------------

 SCF Done:  E(RHF) =  -152.108901490     A.U. after   10 cycles
 E2 =    -0.5261367682D+00 EUMP2 =    -0.15263503825814D+03
 CCSD(T)
 CCSD(T)= -0.15266219388D+03

 The electronic state is 1-A'.
 Alpha  occ. eigenvalues --  -20.56792 -20.54817  -1.34078  -1.32126  -0.71511
 Alpha  occ. eigenvalues --   -0.69501  -0.57575  -0.55584  -0.51192  -0.49246
 Alpha virt. eigenvalues --    0.11764   0.15841   0.19539   0.23413   0.54109
 Alpha virt. eigenvalues --    0.55073   0.56434   0.58231   0.68599   0.69617
 Alpha virt. eigenvalues --    0.77628   0.78836   0.79634   0.80703   0.82908

 Mulliken charges:
               1
     1  O   -0.514005
     2  H    0.262727
     3  H    0.248420
     4  O   -0.507931
     5  H    0.259522
     6  H    0.251267
 Sum of Mulliken charges =  -0.00000

 Dipole moment (field-independent basis, Debye):
    X=             -2.9099    Y=              2.7093    Z=              0.0000  Tot=              3.9759
 Quadrupole moment (field-independent basis, Debye-Ang):
   XX=            -10.4131   YY=             -8.4736   ZZ=            -14.7157
   XY=              2.7539   XZ=              0.0000   YZ=              0.0000

 Normal termination of Gaussian 16 at Fri Aug 26 16:52:02 2022.
