 Gaussian 16, Revision A.03,
 Gaussian 16:  ES64L-G16RevA.03 25-Dec-2016

 ------------------
 #p CCSD(T)/cc-pVTZ
 ------------------

 ------------
 H2O_H2O_2165
 ------------
 Symbolic Z-matrix:
 Charge =  0 Multiplicity = 1

                         Standard orientation:
 ---------------------------------------------------------------------
 Center     Atomic      Atomic             Coordinates (Angstroms)
 Number     Number       Type             X           Y           Z
 ---------------------------------------------------------------------
      1          8           0        0.044892    1.970309    0.000000
      2          1           0        0.042721    0.987710    0.000000
      3          1           0       -0.883895    2.291028    0.000000
      4          8           0        0.044892   -1.789942   -0.000000
      5          1           0        0.860688   -2.337650   -0.000000
      6          1           0       -0.737783   -2.384018   -0.000000
 ---------------------------------------------------------------------

 SCF Done:  E(RHF) =  -152.111875669     A.U. after   10 cycles
 E2 =    -0.5262805442D+00 EUMP2 =    -0.15263815621352D+03
 CCSD(T)
 CCSD(T)= -0.15266523437D+03

 The electronic state is 1-A'.
 Alpha  occ. eigenvalues --  -20.57208 -20.53830  -1.34460  -1.31179  -0.71846
 Alpha  occ. eigenvalues --   -0.68593  -0.58119  -0.54652  -0.51600  -0.48329
 Alpha virt. eigenvalues --    0.12267   0.16823   0.19213   0.25499   0.52026
 Alpha virt. eigenvalues --    0.55232   0.56427   0.58965   0.69056   0.72041
 Alpha virt. eigenvalues --    0.76713   0.77936   0.80556   0.83533   0.83637

 Mulliken charges:
               1
     1  O   -0.527494
     2  H    0.268383
     3  H    0.249685
     4  O   -0.509067
     5  H    0.261402
     6  H    0.257091
 Sum of Mulliken charges =  -0.00000

 Dipole moment (field-independent basis, Debye):
    X=             -1.5208    Y=             -3.3622    Z=             -0.0000  Tot=              3.6902
 Quadrupole moment (field-independent basis, Debye-Ang):
   XX=             -9.1593   YY=             -7.7470   ZZ=            -14.7269
   XY=             -4.2345   XZ=             -0.0000   YZ=             -0.0000

 Normal termination of Gaussian 16 at Sun Aug 28 05:01:30 2022.
