 Gaussian 16, Revision A.03,
 Gaussian 16:  ES64L-G16RevA.03 25-Dec-2016

 ------------------
 #p CCSD(T)/cc-pVTZ
 ------------------

 -----------
 H2O_H2O_252
 -----------
 Symbolic Z-matrix:
 Charge =  0 Multiplicity = 1

                         Standard orientation:
 ---------------------------------------------------------------------
 Center     Atomic      Atomic             Coordinates (Angstroms)
 Number     Number       Type             X           Y           Z
 ---------------------------------------------------------------------
      1          8           0        0.088245   -1.192839    0.000000
      2          1           0        0.087888   -0.210237    0.000000
      3          1           0       -0.841132   -1.511843    0.000000
      4          8           0        0.088245    1.048552    0.000000
      5          1           0        0.216147    2.022793    0.000000
      6          1           0       -0.874819    0.853584    0.000000
 ---------------------------------------------------------------------

 SCF Done:  E(RHF) =  -152.065161344     A.U. after   11 cycles
 E2 =    -0.5362580417D+00 EUMP2 =    -0.15260141938594D+03
 CCSD(T)
 CCSD(T)= -0.15262742704D+03

 The electronic state is 1-A'.
 Alpha  occ. eigenvalues --  -20.60944 -20.48831  -1.41423  -1.27623  -0.80770
 Alpha  occ. eigenvalues --   -0.69814  -0.57864  -0.56721  -0.49546  -0.44484
 Alpha virt. eigenvalues --    0.10892   0.16135   0.21360   0.32205   0.49226
 Alpha virt. eigenvalues --    0.51336   0.59598   0.66099   0.71480   0.72822
 Alpha virt. eigenvalues --    0.76062   0.76641   0.79528   0.83446   0.85448

 Mulliken charges:
               1
     1  O   -0.590314
     2  H    0.273568
     3  H    0.200154
     4  O   -0.343959
     5  H    0.227091
     6  H    0.233460
 Sum of Mulliken charges =   0.00000

 Dipole moment (field-independent basis, Debye):
    X=             -2.7737    Y=              3.8556    Z=              0.0000  Tot=              4.7497
 Quadrupole moment (field-independent basis, Debye-Ang):
   XX=            -10.5436   YY=             -9.7022   ZZ=            -14.5750
   XY=              2.2097   XZ=              0.0000   YZ=              0.0000

 Normal termination of Gaussian 16 at Fri Aug 26 16:55:33 2022.
