 Gaussian 16, Revision A.03,
 Gaussian 16:  ES64L-G16RevA.03 25-Dec-2016

 ------------------
 #p CCSD(T)/cc-pVTZ
 ------------------

 -----------
 H2O_H2O_982
 -----------
 Symbolic Z-matrix:
 Charge =  0 Multiplicity = 1

                         Standard orientation:
 ---------------------------------------------------------------------
 Center     Atomic      Atomic             Coordinates (Angstroms)
 Number     Number       Type             X           Y           Z
 ---------------------------------------------------------------------
      1          8           0        0.073573    1.494297    0.000000
      2          1           0        0.072405    0.511696    0.000000
      3          1           0       -0.855540    1.814068    0.000000
      4          8           0        0.073573   -1.327421   -0.000000
      5          1           0        0.507119   -2.209206   -0.000000
      6          1           0       -0.901155   -1.451563   -0.000000
 ---------------------------------------------------------------------

 SCF Done:  E(RHF) =  -152.110969505     A.U. after   10 cycles
 E2 =    -0.5290535134D+00 EUMP2 =    -0.15264002301879D+03
 CCSD(T)
 CCSD(T)= -0.15266688304D+03

 The electronic state is 1-A'.
 Alpha  occ. eigenvalues --  -20.58840 -20.52125  -1.36409  -1.29773  -0.73924
 Alpha  occ. eigenvalues --   -0.68179  -0.59655  -0.53407  -0.52823  -0.46858
 Alpha virt. eigenvalues --    0.11605   0.17061   0.19725   0.31562   0.48272
 Alpha virt. eigenvalues --    0.54429   0.58928   0.59555   0.69667   0.72548
 Alpha virt. eigenvalues --    0.74230   0.76813   0.81502   0.82502   0.84137

 Mulliken charges:
               1
     1  O   -0.556466
     2  H    0.293629
     3  H    0.233511
     4  O   -0.464843
     5  H    0.246343
     6  H    0.247825
 Sum of Mulliken charges =   0.00000

 Dipole moment (field-independent basis, Debye):
    X=             -2.4197    Y=             -3.5232    Z=             -0.0000  Tot=              4.2741
 Quadrupole moment (field-independent basis, Debye-Ang):
   XX=             -9.8443   YY=             -8.8248   ZZ=            -14.7120
   XY=             -2.9656   XZ=             -0.0000   YZ=              0.0000

 Normal termination of Gaussian 16 at Fri Aug 26 21:43:31 2022.
