 Gaussian 16, Revision A.03,
 Gaussian 16:  ES64L-G16RevA.03 25-Dec-2016

 ------------------
 #p CCSD(T)/cc-pVTZ
 ------------------

 -----------
 H2O_H2O_602
 -----------
 Symbolic Z-matrix:
 Charge =  0 Multiplicity = 1

                         Standard orientation:
 ---------------------------------------------------------------------
 Center     Atomic      Atomic             Coordinates (Angstroms)
 Number     Number       Type             X           Y           Z
 ---------------------------------------------------------------------
      1          8           0        0.088242   -1.332449    0.000000
      2          1           0        0.087924   -0.349848    0.000000
      3          1           0       -0.841148   -1.651416    0.000000
      4          8           0        0.088242    1.188155    0.000000
      5          1           0        0.216183    2.162392    0.000000
      6          1           0       -0.874831    0.993227    0.000000
 ---------------------------------------------------------------------

 SCF Done:  E(RHF) =  -152.096967731     A.U. after   11 cycles
 E2 =    -0.5322450717D+00 EUMP2 =    -0.15262921280238D+03
 CCSD(T)
 CCSD(T)= -0.15265583033D+03

 The electronic state is 1-A'.
 Alpha  occ. eigenvalues --  -20.59724 -20.51485  -1.38177  -1.29449  -0.76891
 Alpha  occ. eigenvalues --   -0.68201  -0.59598  -0.54664  -0.52205  -0.46437
 Alpha virt. eigenvalues --    0.11272   0.16469   0.20770   0.32318   0.48439
 Alpha virt. eigenvalues --    0.52394   0.58893   0.64011   0.70138   0.71497
 Alpha virt. eigenvalues --    0.74004   0.78400   0.78443   0.83045   0.83473

 Mulliken charges:
               1
     1  O   -0.563136
     2  H    0.289764
     3  H    0.218864
     4  O   -0.407841
     5  H    0.231996
     6  H    0.230353
 Sum of Mulliken charges =  -0.00000

 Dipole moment (field-independent basis, Debye):
    X=             -2.8481    Y=              3.3745    Z=              0.0000  Tot=              4.4158
 Quadrupole moment (field-independent basis, Debye-Ang):
   XX=            -10.5913   YY=             -9.3078   ZZ=            -14.6535
   XY=              2.3122   XZ=              0.0000   YZ=              0.0000

 Normal termination of Gaussian 16 at Fri Aug 26 19:20:02 2022.
