 Gaussian 16, Revision A.03,
 Gaussian 16:  ES64L-G16RevA.03 25-Dec-2016

 ------------------
 #p CCSD(T)/cc-pVTZ
 ------------------

 -----------
 H2O_H2O_911
 -----------
 Symbolic Z-matrix:
 Charge =  0 Multiplicity = 1

                         Standard orientation:
 ---------------------------------------------------------------------
 Center     Atomic      Atomic             Coordinates (Angstroms)
 Number     Number       Type             X           Y           Z
 ---------------------------------------------------------------------
      1          8           0        0.059713    1.470073   -0.000000
      2          1           0        0.057666    0.487474   -0.000000
      3          1           0       -0.869114    1.790675   -0.000000
      4          8           0        0.059713   -1.292725    0.000000
      5          1           0        0.706047   -2.032832    0.000000
      6          1           0       -0.850004   -1.664103    0.000000
 ---------------------------------------------------------------------

 SCF Done:  E(RHF) =  -152.111852836     A.U. after   10 cycles
 E2 =    -0.5291780559D+00 EUMP2 =    -0.15264103089213D+03
 CCSD(T)
 CCSD(T)= -0.15266782246D+03

 The electronic state is 1-A'.
 Alpha  occ. eigenvalues --  -20.59047 -20.51349  -1.36651  -1.29117  -0.73868
 Alpha  occ. eigenvalues --   -0.68377  -0.59677  -0.53656  -0.52036  -0.46200
 Alpha virt. eigenvalues --    0.11659   0.17579   0.19379   0.32270   0.48134
 Alpha virt. eigenvalues --    0.54481   0.58602   0.60162   0.69957   0.72360
 Alpha virt. eigenvalues --    0.72565   0.77319   0.81963   0.82819   0.84581

 Mulliken charges:
               1
     1  O   -0.570509
     2  H    0.301815
     3  H    0.234858
     4  O   -0.479716
     5  H    0.259654
     6  H    0.253898
 Sum of Mulliken charges =  -0.00000

 Dipole moment (field-independent basis, Debye):
    X=             -1.9586    Y=             -3.8023    Z=              0.0000  Tot=              4.2770
 Quadrupole moment (field-independent basis, Debye-Ang):
   XX=             -9.3734   YY=             -8.8670   ZZ=            -14.7171
   XY=             -3.2034   XZ=              0.0000   YZ=              0.0000

 Normal termination of Gaussian 16 at Fri Aug 26 21:17:31 2022.
