 Gaussian 16, Revision A.03,
 Gaussian 16:  ES64L-G16RevA.03 25-Dec-2016

 ------------------
 #p CCSD(T)/cc-pVTZ
 ------------------

 ------------
 H2O_H2O_2218
 ------------
 Symbolic Z-matrix:
 Charge =  0 Multiplicity = 1

                         Standard orientation:
 ---------------------------------------------------------------------
 Center     Atomic      Atomic             Coordinates (Angstroms)
 Number     Number       Type             X           Y           Z
 ---------------------------------------------------------------------
      1          8           0        0.033829    1.988694    0.000000
      2          1           0        0.031186    1.006096    0.000000
      3          1           0       -0.894804    2.309859    0.000000
      4          8           0        0.033829   -1.811200   -0.000000
      5          1           0        0.940619   -2.189665   -0.000000
      6          1           0       -0.618263   -2.546240   -0.000000
 ---------------------------------------------------------------------

 SCF Done:  E(RHF) =  -152.111767681     A.U. after   10 cycles
 E2 =    -0.5262276892D+00 EUMP2 =    -0.15263799537013D+03
 CCSD(T)
 CCSD(T)= -0.15266507802D+03

 The electronic state is 1-A'.
 Alpha  occ. eigenvalues --  -20.57150 -20.53915  -1.34407  -1.31261  -0.71798
 Alpha  occ. eigenvalues --   -0.68676  -0.58057  -0.54740  -0.51546  -0.48413
 Alpha virt. eigenvalues --    0.12291   0.16778   0.19217   0.25301   0.52467
 Alpha virt. eigenvalues --    0.55197   0.56435   0.58813   0.69044   0.71911
 Alpha virt. eigenvalues --    0.76837   0.78246   0.80470   0.83267   0.83575

 Mulliken charges:
               1
     1  O   -0.527728
     2  H    0.267696
     3  H    0.251351
     4  O   -0.510122
     5  H    0.261137
     6  H    0.257665
 Sum of Mulliken charges =  -0.00000

 Dipole moment (field-independent basis, Debye):
    X=             -1.1481    Y=             -3.2980    Z=             -0.0000  Tot=              3.4922
 Quadrupole moment (field-independent basis, Debye-Ang):
   XX=             -9.1868   YY=             -7.7766   ZZ=            -14.7264
   XY=             -4.5843   XZ=             -0.0000   YZ=              0.0000

 Normal termination of Gaussian 16 at Sun Aug 28 05:30:10 2022.
