 Gaussian 16, Revision A.03,
 Gaussian 16:  ES64L-G16RevA.03 25-Dec-2016

 ------------------
 #p CCSD(T)/cc-pVTZ
 ------------------

 -----------
 H2O_H2O_956
 -----------
 Symbolic Z-matrix:
 Charge =  0 Multiplicity = 1

                         Standard orientation:
 ---------------------------------------------------------------------
 Center     Atomic      Atomic             Coordinates (Angstroms)
 Number     Number       Type             X           Y           Z
 ---------------------------------------------------------------------
      1          8           0        0.076789   -1.482301    0.000000
      2          1           0        0.075808   -0.499700    0.000000
      3          1           0       -0.852385   -1.801895    0.000000
      4          8           0        0.076789    1.319151    0.000000
      5          1           0        0.451908    2.227331    0.000000
      6          1           0       -0.903960    1.379463    0.000000
 ---------------------------------------------------------------------

 SCF Done:  E(RHF) =  -152.110148859     A.U. after   10 cycles
 E2 =    -0.5292584638D+00 EUMP2 =    -0.15263940732291D+03
 CCSD(T)
 CCSD(T)= -0.15266626351D+03

 The electronic state is 1-A'.
 Alpha  occ. eigenvalues --  -20.58883 -20.52197  -1.36492  -1.29849  -0.74112
 Alpha  occ. eigenvalues --   -0.68190  -0.59663  -0.53465  -0.52892  -0.46926
 Alpha virt. eigenvalues --    0.11561   0.16938   0.19865   0.31575   0.48269
 Alpha virt. eigenvalues --    0.54260   0.58824   0.59952   0.69544   0.72430
 Alpha virt. eigenvalues --    0.74427   0.76997   0.81209   0.82506   0.83970

 Mulliken charges:
               1
     1  O   -0.555284
     2  H    0.292775
     3  H    0.232332
     4  O   -0.457321
     5  H    0.242267
     6  H    0.245231
 Sum of Mulliken charges =  -0.00000

 Dipole moment (field-independent basis, Debye):
    X=             -2.5222    Y=              3.4626    Z=              0.0000  Tot=              4.2838
 Quadrupole moment (field-independent basis, Debye-Ang):
   XX=             -9.9885   YY=             -8.8707   ZZ=            -14.7072
   XY=              2.8643   XZ=              0.0000   YZ=              0.0000

 Normal termination of Gaussian 16 at Fri Aug 26 21:33:47 2022.
