 Gaussian 16, Revision A.03,
 Gaussian 16:  ES64L-G16RevA.03 25-Dec-2016

 ------------------
 #p CCSD(T)/cc-pVTZ
 ------------------

 ------------
 H2O_H2O_3981
 ------------
 Symbolic Z-matrix:
 Charge =  0 Multiplicity = 1

                         Standard orientation:
 ---------------------------------------------------------------------
 Center     Atomic      Atomic             Coordinates (Angstroms)
 Number     Number       Type             X           Y           Z
 ---------------------------------------------------------------------
      1          8           0        0.076752    2.688940   -0.000000
      2          1           0        0.076224    1.706338   -0.000000
      3          1           0       -0.852570    3.008105   -0.000000
      4          8           0        0.076752   -2.525719    0.000000
      5          1           0        0.452289   -3.433726    0.000000
      6          1           0       -0.903970   -2.586485    0.000000
 ---------------------------------------------------------------------

 SCF Done:  E(RHF) =  -152.108276359     A.U. after   10 cycles
 E2 =    -0.5258625628D+00 EUMP2 =    -0.15263413892194D+03
 CCSD(T)
 CCSD(T)= -0.15266133417D+03

 The electronic state is 1-A'.
 Alpha  occ. eigenvalues --  -20.56308 -20.54995  -1.33607  -1.32301  -0.71018
 Alpha  occ. eigenvalues --   -0.69696  -0.57091  -0.55766  -0.50723  -0.49421
 Alpha virt. eigenvalues --    0.12784   0.15102   0.19365   0.21501   0.53271
 Alpha virt. eigenvalues --    0.55003   0.56524   0.57875   0.66706   0.68970
 Alpha virt. eigenvalues --    0.78173   0.79018   0.79437   0.80644   0.82682

 Mulliken charges:
               1
     1  O   -0.512394
     2  H    0.260261
     3  H    0.251747
     4  O   -0.513245
     5  H    0.259313
     6  H    0.254317
 Sum of Mulliken charges =  -0.00000

 Dipole moment (field-independent basis, Debye):
    X=             -2.6276    Y=             -2.8807    Z=              0.0000  Tot=              3.8991
 Quadrupole moment (field-independent basis, Debye-Ang):
   XX=             -9.9498   YY=             -7.4541   ZZ=            -14.7142
   XY=             -3.5885   XZ=              0.0000   YZ=             -0.0000

 CCSD(T)=-152.6613342\RMSD=7.192e-09\PG=CS [SG(H4O2)]\\@
 Normal termination of Gaussian 16 at Sat Aug 27 00:49:07 2022.
