 Gaussian 16, Revision A.03,
 Gaussian 16:  ES64L-G16RevA.03 25-Dec-2016

 ------------------
 #p CCSD(T)/cc-pVTZ
 ------------------

 ------------
 H2O_H2O_4253
 ------------
 Symbolic Z-matrix:
 Charge =  0 Multiplicity = 1

                         Standard orientation:
 ---------------------------------------------------------------------
 Center     Atomic      Atomic             Coordinates (Angstroms)
 Number     Number       Type             X           Y           Z
 ---------------------------------------------------------------------
      1          8           0        0.085597   -2.791235    0.000000
      2          1           0        0.085368   -1.808633    0.000000
      3          1           0       -0.843821   -3.110118    0.000000
      4          8           0        0.085597    2.641630    0.000000
      5          1           0        0.277069    3.605396    0.000000
      6          1           0       -0.888174    2.510195    0.000000
 ---------------------------------------------------------------------

 SCF Done:  E(RHF) =  -152.107914256     A.U. after   10 cycles
 E2 =    -0.5258676139D+00 EUMP2 =    -0.15263378187013D+03
 CCSD(T)
 CCSD(T)= -0.15266098833D+03

 The electronic state is 1-A'.
 Alpha  occ. eigenvalues --  -20.56252 -20.55177  -1.33553  -1.32480  -0.70967
 Alpha  occ. eigenvalues --   -0.69876  -0.57023  -0.55937  -0.50666  -0.49596
 Alpha virt. eigenvalues --    0.12776   0.14900   0.19139   0.21565   0.53224
 Alpha virt. eigenvalues --    0.54928   0.56542   0.57788   0.66792   0.68694
 Alpha virt. eigenvalues --    0.78227   0.79271   0.79350   0.81103   0.82305

 Mulliken charges:
               1
     1  O   -0.510792
     2  H    0.258719
     3  H    0.251914
     4  O   -0.511857
     5  H    0.258769
     6  H    0.253247
 Sum of Mulliken charges =  -0.00000

 Dipole moment (field-independent basis, Debye):
    X=             -2.9331    Y=              2.6313    Z=              0.0000  Tot=              3.9404
 Quadrupole moment (field-independent basis, Debye-Ang):
   XX=            -10.3980   YY=             -8.1746   ZZ=            -14.7128
   XY=              2.9155   XZ=              0.0000   YZ=              0.0000

 Normal termination of Gaussian 16 at Sun Aug 28 01:14:45 2022.
