 Gaussian 16, Revision A.03,
 Gaussian 16:  ES64L-G16RevA.03 25-Dec-2016

 ------------------
 #p CCSD(T)/cc-pVTZ
 ------------------

 ------------
 H2O_H2O_3275
 ------------
 Symbolic Z-matrix:
 Charge =  0 Multiplicity = 1

                         Standard orientation:
 ---------------------------------------------------------------------
 Center     Atomic      Atomic             Coordinates (Angstroms)
 Number     Number       Type             X           Y           Z
 ---------------------------------------------------------------------
      1          8           0        0.092949   -2.393195    0.000000
      2          1           0        0.092949   -1.410594    0.000000
      3          1           0       -0.836544   -2.711862    0.000000
      4          8           0        0.092949    2.260408    0.000000
      5          1           0        0.092949    3.243009    0.000000
      6          1           0       -0.836544    1.941741    0.000000
 ---------------------------------------------------------------------

 SCF Done:  E(RHF) =  -152.107913175     A.U. after   10 cycles
 E2 =    -0.5260111092D+00 EUMP2 =    -0.15263392428372D+03
 CCSD(T)
 CCSD(T)= -0.15266111873D+03

 The electronic state is 1-A'.
 Alpha  occ. eigenvalues --  -20.56538 -20.55206  -1.33834  -1.32507  -0.71263
 Alpha  occ. eigenvalues --   -0.69891  -0.57298  -0.55957  -0.50943  -0.49619
 Alpha virt. eigenvalues --    0.11615   0.15402   0.19157   0.23028   0.53863
 Alpha virt. eigenvalues --    0.54721   0.56456   0.58022   0.67352   0.68845
 Alpha virt. eigenvalues --    0.77962   0.78518   0.79256   0.81237   0.82497

 Mulliken charges:
               1
     1  O   -0.509943
     2  H    0.259083
     3  H    0.250045
     4  O   -0.509190
     5  H    0.259685
     6  H    0.250320
 Sum of Mulliken charges =  -0.00000

 Dipole moment (field-independent basis, Debye):
    X=             -3.1707    Y=              2.3672    Z=              0.0000  Tot=              3.9569
 Quadrupole moment (field-independent basis, Debye-Ang):
   XX=            -10.8546   YY=             -9.2332   ZZ=            -14.7123
   XY=              2.1508   XZ=              0.0000   YZ=              0.0000

 CCSD(T)=-152.6611187\RMSD=7.273e-09\PG=CS [SG(H4O2)]\\@
 Normal termination of Gaussian 16 at Fri Aug 26 20:46:33 2022.
