 Gaussian 16, Revision A.03,
 Gaussian 16:  ES64L-G16RevA.03 25-Dec-2016

 ------------------
 #p CCSD(T)/cc-pVTZ
 ------------------

 ------------
 H2O_H2O_4260
 ------------
 Symbolic Z-matrix:
 Charge =  0 Multiplicity = 1

                         Standard orientation:
 ---------------------------------------------------------------------
 Center     Atomic      Atomic             Coordinates (Angstroms)
 Number     Number       Type             X           Y           Z
 ---------------------------------------------------------------------
      1          8           0        0.063220    2.805319   -0.000000
      2          1           0        0.062291    1.822718   -0.000000
      3          1           0       -0.865972    3.124863   -0.000000
      4          8           0        0.063220   -2.629787    0.000000
      5          1           0        0.660653   -3.409902    0.000000
      6          1           0       -0.868485   -2.941931    0.000000
 ---------------------------------------------------------------------

 SCF Done:  E(RHF) =  -152.108390936     A.U. after   10 cycles
 E2 =    -0.5258278467D+00 EUMP2 =    -0.15263421878217D+03
 CCSD(T)
 CCSD(T)= -0.15266141440D+03

 The electronic state is 1-A'.
 Alpha  occ. eigenvalues --  -20.56238 -20.54936  -1.33538  -1.32244  -0.70944
 Alpha  occ. eigenvalues --   -0.69642  -0.57029  -0.55713  -0.50656  -0.49366
 Alpha virt. eigenvalues --    0.13172   0.15010   0.19601   0.21168   0.53523
 Alpha virt. eigenvalues --    0.54898   0.56605   0.57807   0.66739   0.68887
 Alpha virt. eigenvalues --    0.78235   0.79379   0.79490   0.80212   0.82736

 Mulliken charges:
               1
     1  O   -0.513400
     2  H    0.260658
     3  H    0.252509
     4  O   -0.514258
     5  H    0.258886
     6  H    0.255604
 Sum of Mulliken charges =  -0.00000

 Dipole moment (field-independent basis, Debye):
    X=             -2.1664    Y=             -3.0886    Z=              0.0000  Tot=              3.7727
 Quadrupole moment (field-independent basis, Debye-Ang):
   XX=             -9.4541   YY=             -6.6405   ZZ=            -14.7147
   XY=             -4.5682   XZ=              0.0000   YZ=             -0.0000

 Normal termination of Gaussian 16 at Sun Aug 28 01:18:04 2022.
