 Gaussian 16, Revision A.03,
 Gaussian 16:  ES64L-G16RevA.03 25-Dec-2016

 ------------------
 #p CCSD(T)/cc-pVTZ
 ------------------

 ------------
 H2O_H2O_4130
 ------------
 Symbolic Z-matrix:
 Charge =  0 Multiplicity = 1

                         Standard orientation:
 ---------------------------------------------------------------------
 Center     Atomic      Atomic             Coordinates (Angstroms)
 Number     Number       Type             X           Y           Z
 ---------------------------------------------------------------------
      1          8           0        0.079846    2.746518    0.000000
      2          1           0        0.079429    1.763917    0.000000
      3          1           0       -0.849512    3.065579    0.000000
      4          8           0        0.079846   -2.587445   -0.000000
      5          1           0        0.395298   -3.518033   -0.000000
      6          1           0       -0.902750   -2.584049   -0.000000
 ---------------------------------------------------------------------

 SCF Done:  E(RHF) =  -152.108123565     A.U. after   10 cycles
 E2 =    -0.5258602848D+00 EUMP2 =    -0.15263398384955D+03
 CCSD(T)
 CCSD(T)= -0.15266118429D+03

 The electronic state is 1-A'.
 Alpha  occ. eigenvalues --  -20.56274 -20.55067  -1.33575  -1.32372  -0.70986
 Alpha  occ. eigenvalues --   -0.69767  -0.57053  -0.55834  -0.50689  -0.49490
 Alpha virt. eigenvalues --    0.12833   0.15000   0.19303   0.21465   0.53261
 Alpha virt. eigenvalues --    0.54971   0.56541   0.57834   0.66734   0.68844
 Alpha virt. eigenvalues --    0.78205   0.79168   0.79372   0.80808   0.82577

 Mulliken charges:
               1
     1  O   -0.511771
     2  H    0.259650
     3  H    0.251866
     4  O   -0.512769
     5  H    0.259060
     6  H    0.253964
 Sum of Mulliken charges =  -0.00000

 Dipole moment (field-independent basis, Debye):
    X=             -2.7349    Y=             -2.8021    Z=             -0.0000  Tot=              3.9156
 Quadrupole moment (field-independent basis, Debye-Ang):
   XX=            -10.0951   YY=             -7.6339   ZZ=            -14.7136
   XY=             -3.3868   XZ=             -0.0000   YZ=              0.0000

 Normal termination of Gaussian 16 at Sat Aug 27 23:59:12 2022.
