 Gaussian 16, Revision A.03,
 Gaussian 16:  ES64L-G16RevA.03 25-Dec-2016

 ------------------
 #p CCSD(T)/cc-pVTZ
 ------------------

 ------------
 H2O_H2O_2373
 ------------
 Symbolic Z-matrix:
 Charge =  0 Multiplicity = 1

                         Standard orientation:
 ---------------------------------------------------------------------
 Center     Atomic      Atomic             Coordinates (Angstroms)
 Number     Number       Type             X           Y           Z
 ---------------------------------------------------------------------
      1          8           0       -0.016663    2.040860    0.000000
      2          1           0       -0.013358    1.058264    0.000000
      3          1           0        0.911752    2.362651    0.000000
      4          8           0       -0.016663   -1.877485    0.000000
      5          1           0       -0.996940   -1.945048    0.000000
      6          1           0        0.365160   -2.782867    0.000000
 ---------------------------------------------------------------------

 SCF Done:  E(RHF) =  -152.111010364     A.U. after   10 cycles
 E2 =    -0.5261387904D+00 EUMP2 =    -0.15263714915455D+03
 CCSD(T)
 CCSD(T)= -0.15266425392D+03

 The electronic state is 1-A'.
 Alpha  occ. eigenvalues --  -20.56993 -20.54279  -1.34268  -1.31613  -0.71682
 Alpha  occ. eigenvalues --   -0.69025  -0.57868  -0.55098  -0.51399  -0.48761
 Alpha virt. eigenvalues --    0.12203   0.16505   0.19256   0.24824   0.53705
 Alpha virt. eigenvalues --    0.55214   0.56144   0.58607   0.68728   0.71430
 Alpha virt. eigenvalues --    0.77149   0.79196   0.80129   0.81571   0.83652

 Mulliken charges:
               1
     1  O   -0.525793
     2  H    0.265376
     3  H    0.254233
     4  O   -0.511654
     5  H    0.259674
     6  H    0.258164
 Sum of Mulliken charges =   0.00000

 Dipole moment (field-independent basis, Debye):
    X=              0.5720    Y=             -3.0059    Z=              0.0000  Tot=              3.0598
 Quadrupole moment (field-independent basis, Debye-Ang):
   XX=             -9.5440   YY=             -8.0770   ZZ=            -14.7232
   XY=              5.3537   XZ=              0.0000   YZ=              0.0000

 Normal termination of Gaussian 16 at Sun Aug 28 06:44:57 2022.
