 Gaussian 16, Revision A.03,
 Gaussian 16:  ES64L-G16RevA.03 25-Dec-2016

 ------------------
 #p CCSD(T)/cc-pVTZ
 ------------------

 ------------
 H2O_H2O_2422
 ------------
 Symbolic Z-matrix:
 Charge =  0 Multiplicity = 1

                         Standard orientation:
 ---------------------------------------------------------------------
 Center     Atomic      Atomic             Coordinates (Angstroms)
 Number     Number       Type             X           Y           Z
 ---------------------------------------------------------------------
      1          8           0       -0.019895    2.062819    0.000000
      2          1           0       -0.016761    1.080223    0.000000
      3          1           0        0.908578    2.384448    0.000000
      4          8           0       -0.019895   -1.895732    0.000000
      5          1           0       -0.993677   -2.027093    0.000000
      6          1           0        0.420173   -2.774279    0.000000
 ---------------------------------------------------------------------

 SCF Done:  E(RHF) =  -152.110999170     A.U. after   10 cycles
 E2 =    -0.5261120985D+00 EUMP2 =    -0.15263711126876D+03
 CCSD(T)
 CCSD(T)= -0.15266421678D+03

 The electronic state is 1-A'.
 Alpha  occ. eigenvalues --  -20.56966 -20.54251  -1.34238  -1.31584  -0.71646
 Alpha  occ. eigenvalues --   -0.68995  -0.57837  -0.55072  -0.51371  -0.48732
 Alpha virt. eigenvalues --    0.12242   0.16483   0.19258   0.24602   0.53544
 Alpha virt. eigenvalues --    0.55358   0.56245   0.58588   0.68823   0.71128
 Alpha virt. eigenvalues --    0.77241   0.79098   0.80141   0.81476   0.83682

 Mulliken charges:
               1
     1  O   -0.525411
     2  H    0.265608
     3  H    0.253755
     4  O   -0.511902
     5  H    0.259908
     6  H    0.258042
 Sum of Mulliken charges =  -0.00000

 Dipole moment (field-independent basis, Debye):
    X=              0.6804    Y=             -3.0690    Z=              0.0000  Tot=              3.1435
 Quadrupole moment (field-independent basis, Debye-Ang):
   XX=             -9.4474   YY=             -7.9420   ZZ=            -14.7232
   XY=              5.2627   XZ=              0.0000   YZ=              0.0000

 Normal termination of Gaussian 16 at Sun Aug 28 07:11:40 2022.
