 Gaussian 16, Revision A.03,
 Gaussian 16:  ES64L-G16RevA.03 25-Dec-2016

 ------------------
 #p CCSD(T)/cc-pVTZ
 ------------------

 ------------
 H2O_H2O_2510
 ------------
 Symbolic Z-matrix:
 Charge =  0 Multiplicity = 1

                         Standard orientation:
 ---------------------------------------------------------------------
 Center     Atomic      Atomic             Coordinates (Angstroms)
 Number     Number       Type             X           Y           Z
 ---------------------------------------------------------------------
      1          8           0        0.063248    2.107263    0.000000
      2          1           0        0.061999    1.124663    0.000000
      3          1           0       -0.865839    2.427111    0.000000
      4          8           0        0.063248   -1.931773   -0.000000
      5          1           0        0.660427   -2.712083   -0.000000
      6          1           0       -0.868557   -2.243613   -0.000000
 ---------------------------------------------------------------------

 SCF Done:  E(RHF) =  -152.110489360     A.U. after   10 cycles
 E2 =    -0.5261341541D+00 EUMP2 =    -0.15263662351443D+03
 CCSD(T)
 CCSD(T)= -0.15266373805D+03

 The electronic state is 1-A'.
 Alpha  occ. eigenvalues --  -20.56942 -20.54238  -1.34207  -1.31566  -0.71611
 Alpha  occ. eigenvalues --   -0.68952  -0.57780  -0.55043  -0.51338  -0.48703
 Alpha virt. eigenvalues --    0.12218   0.16320   0.19373   0.24005   0.52902
 Alpha virt. eigenvalues --    0.55708   0.56065   0.58884   0.68934   0.70561
 Alpha virt. eigenvalues --    0.77383   0.78817   0.80150   0.80894   0.83494

 Mulliken charges:
               1
     1  O   -0.520881
     2  H    0.266179
     3  H    0.248982
     4  O   -0.509768
     5  H    0.260183
     6  H    0.255306
 Sum of Mulliken charges =  -0.00000

 Dipole moment (field-independent basis, Debye):
    X=             -2.1485    Y=             -3.2147    Z=             -0.0000  Tot=              3.8665
 Quadrupole moment (field-independent basis, Debye-Ang):
   XX=             -9.4615   YY=             -7.6493   ZZ=            -14.7215
   XY=             -3.8461   XZ=             -0.0000   YZ=             -0.0000

 Normal termination of Gaussian 16 at Fri Aug 26 15:16:00 2022.
