 Gaussian 16, Revision A.03,
 Gaussian 16:  ES64L-G16RevA.03 25-Dec-2016

 ------------------
 #p CCSD(T)/cc-pVTZ
 ------------------

 ------------
 H2O_H2O_4956
 ------------
 Symbolic Z-matrix:
 Charge =  0 Multiplicity = 1

                         Standard orientation:
 ---------------------------------------------------------------------
 Center     Atomic      Atomic             Coordinates (Angstroms)
 Number     Number       Type             X           Y           Z
 ---------------------------------------------------------------------
      1          8           0        0.076746    3.077850    0.000000
      2          1           0        0.076287    2.095249    0.000000
      3          1           0       -0.852598    3.396951   -0.000000
      4          8           0        0.076746   -2.914619    0.000000
      5          1           0        0.452348   -3.822599    0.000000
      6          1           0       -0.903971   -2.975453   -0.000000
 ---------------------------------------------------------------------

 SCF Done:  E(RHF) =  -152.107929142     A.U. after   10 cycles
 E2 =    -0.5258359742D+00 EUMP2 =    -0.15263376511607D+03
 CCSD(T)
 CCSD(T)= -0.15266097425D+03

 The electronic state is 1-A'.
 Alpha  occ. eigenvalues --  -20.56125 -20.55168  -1.33427  -1.32471  -0.70836
 Alpha  occ. eigenvalues --   -0.69871  -0.56899  -0.55931  -0.50542  -0.49588
 Alpha virt. eigenvalues --    0.13420   0.14648   0.19544   0.20915   0.53616
 Alpha virt. eigenvalues --    0.54749   0.56676   0.57663   0.67099   0.68399
 Alpha virt. eigenvalues --    0.78344   0.79279   0.79717   0.80723   0.81928

 Mulliken charges:
               1
     1  O   -0.511314
     2  H    0.258540
     3  H    0.252748
     4  O   -0.512118
     5  H    0.257825
     6  H    0.254319
 Sum of Mulliken charges =  -0.00000

 Dipole moment (field-independent basis, Debye):
    X=             -2.6346    Y=             -2.8556    Z=             -0.0000  Tot=              3.8853
 Quadrupole moment (field-independent basis, Debye-Ang):
   XX=             -9.9470   YY=             -7.0572   ZZ=            -14.7131
   XY=             -3.8100   XZ=              0.0000   YZ=             -0.0000

 Normal termination of Gaussian 16 at Sun Aug 28 07:13:38 2022.
