 Gaussian 16, Revision A.03,
 Gaussian 16:  ES64L-G16RevA.03 25-Dec-2016

 ------------------
 #p CCSD(T)/cc-pVTZ
 ------------------

 ------------
 H2O_H2O_2641
 ------------
 Symbolic Z-matrix:
 Charge =  0 Multiplicity = 1

                         Standard orientation:
 ---------------------------------------------------------------------
 Center     Atomic      Atomic             Coordinates (Angstroms)
 Number     Number       Type             X           Y           Z
 ---------------------------------------------------------------------
      1          8           0        0.041157    2.159526    0.000000
      2          1           0        0.039032    1.176927    0.000000
      3          1           0       -0.887644    2.480202   -0.000000
      4          8           0        0.041157   -1.979617    0.000000
      5          1           0        0.891051   -2.472757    0.000000
      6          1           0       -0.700957   -2.623645   -0.000000
 ---------------------------------------------------------------------

 SCF Done:  E(RHF) =  -152.110661145     A.U. after   10 cycles
 E2 =    -0.5260310589D+00 EUMP2 =    -0.15263669220390D+03
 CCSD(T)
 CCSD(T)= -0.15266380853D+03

 The electronic state is 1-A'.
 Alpha  occ. eigenvalues --  -20.56850 -20.54216  -1.34116  -1.31545  -0.71512
 Alpha  occ. eigenvalues --   -0.68942  -0.57698  -0.55035  -0.51251  -0.48687
 Alpha virt. eigenvalues --    0.12394   0.16312   0.19355   0.23695   0.52884
 Alpha virt. eigenvalues --    0.55591   0.56354   0.58885   0.69068   0.70034
 Alpha virt. eigenvalues --    0.77547   0.78892   0.80145   0.80208   0.83553

 Mulliken charges:
               1
     1  O   -0.522505
     2  H    0.265974
     3  H    0.251453
     4  O   -0.512550
     5  H    0.260402
     6  H    0.257227
 Sum of Mulliken charges =  -0.00000

 Dipole moment (field-independent basis, Debye):
    X=             -1.4003    Y=             -3.2804    Z=             -0.0000  Tot=              3.5667
 Quadrupole moment (field-independent basis, Debye-Ang):
   XX=             -9.1495   YY=             -7.4326   ZZ=            -14.7223
   XY=             -4.6772   XZ=              0.0000   YZ=             -0.0000

 Normal termination of Gaussian 16 at Fri Aug 26 16:14:29 2022.
