 Gaussian 16, Revision A.03,
 Gaussian 16:  ES64L-G16RevA.03 25-Dec-2016

 ------------------
 #p CCSD(T)/cc-pVTZ
 ------------------

 ------------
 H2O_H2O_2035
 ------------
 Symbolic Z-matrix:
 Charge =  0 Multiplicity = 1

                         Standard orientation:
 ---------------------------------------------------------------------
 Center     Atomic      Atomic             Coordinates (Angstroms)
 Number     Number       Type             X           Y           Z
 ---------------------------------------------------------------------
      1          8           0        0.063260    1.917788    0.000000
      2          1           0        0.061881    0.935188    0.000000
      3          1           0       -0.865785    2.237758    0.000000
      4          8           0        0.063260   -1.742315   -0.000000
      5          1           0        0.660335   -2.522703   -0.000000
      6          1           0       -0.868587   -2.054032   -0.000000
 ---------------------------------------------------------------------

 SCF Done:  E(RHF) =  -152.111699283     A.U. after   10 cycles
 E2 =    -0.5264482900D+00 EUMP2 =    -0.15263814757340D+03
 CCSD(T)
 CCSD(T)= -0.15266522231D+03

 The electronic state is 1-A'.
 Alpha  occ. eigenvalues --  -20.57326 -20.53846  -1.34583  -1.31196  -0.71982
 Alpha  occ. eigenvalues --   -0.68605  -0.58235  -0.54649  -0.51716  -0.48340
 Alpha virt. eigenvalues --    0.12097   0.16773   0.19294   0.25914   0.51610
 Alpha virt. eigenvalues --    0.55457   0.56167   0.58751   0.68972   0.72332
 Alpha virt. eigenvalues --    0.76342   0.77974   0.80595   0.83412   0.83940

 Mulliken charges:
               1
     1  O   -0.525866
     2  H    0.268739
     3  H    0.246894
     4  O   -0.506438
     5  H    0.261357
     6  H    0.255314
 Sum of Mulliken charges =  -0.00000

 Dipole moment (field-independent basis, Debye):
    X=             -2.1384    Y=             -3.2926    Z=              0.0000  Tot=              3.9261
 Quadrupole moment (field-independent basis, Debye-Ang):
   XX=             -9.4668   YY=             -7.9444   ZZ=            -14.7264
   XY=             -3.6488   XZ=             -0.0000   YZ=              0.0000

 Normal termination of Gaussian 16 at Sun Aug 28 03:45:56 2022.
