 Gaussian 16, Revision A.03,
 Gaussian 16:  ES64L-G16RevA.03 25-Dec-2016

 ------------------
 #p CCSD(T)/cc-pVTZ
 ------------------

 ------------
 H2O_H2O_1397
 ------------
 Symbolic Z-matrix:
 Charge =  0 Multiplicity = 1

                         Standard orientation:
 ---------------------------------------------------------------------
 Center     Atomic      Atomic             Coordinates (Angstroms)
 Number     Number       Type             X           Y           Z
 ---------------------------------------------------------------------
      1          8           0       -0.019964    1.653956    0.000000
      2          1           0       -0.016015    0.671363    0.000000
      3          1           0        0.908241    1.976356    0.000000
      4          8           0       -0.019964   -1.486901    0.000000
      5          1           0       -0.993636   -1.619071    0.000000
      6          1           0        0.420832   -2.365084    0.000000
 ---------------------------------------------------------------------

 SCF Done:  E(RHF) =  -152.113542610     A.U. after   10 cycles
 E2 =    -0.5273175599D+00 EUMP2 =    -0.15264086016980D+03
 CCSD(T)
 CCSD(T)= -0.15266784783D+03

 The electronic state is 1-A'.
 Alpha  occ. eigenvalues --  -20.58038 -20.52991  -1.35381  -1.30460  -0.72834
 Alpha  occ. eigenvalues --   -0.68102  -0.59208  -0.53755  -0.52488  -0.47611
 Alpha virt. eigenvalues --    0.12129   0.17734   0.19021   0.29581   0.50334
 Alpha virt. eigenvalues --    0.54416   0.55765   0.61023   0.68798   0.73715
 Alpha virt. eigenvalues --    0.73804   0.77037   0.81562   0.82687   0.84364

 Mulliken charges:
               1
     1  O   -0.548495
     2  H    0.278106
     3  H    0.251650
     4  O   -0.497542
     5  H    0.263879
     6  H    0.252401
 Sum of Mulliken charges =  -0.00000

 Dipole moment (field-independent basis, Debye):
    X=              0.6768    Y=             -3.3162    Z=              0.0000  Tot=              3.3846
 Quadrupole moment (field-independent basis, Debye-Ang):
   XX=             -9.4455   YY=             -8.5119   ZZ=            -14.7308
   XY=              4.2227   XZ=              0.0000   YZ=              0.0000

 Normal termination of Gaussian 16 at Sat Aug 27 00:20:11 2022.
