 Gaussian 16, Revision A.03,
 Gaussian 16:  ES64L-G16RevA.03 25-Dec-2016

 ------------------
 #p CCSD(T)/cc-pVTZ
 ------------------

 ------------
 H2O_H2O_4787
 ------------
 Symbolic Z-matrix:
 Charge =  0 Multiplicity = 1

                         Standard orientation:
 ---------------------------------------------------------------------
 Center     Atomic      Atomic             Coordinates (Angstroms)
 Number     Number       Type             X           Y           Z
 ---------------------------------------------------------------------
      1          8           0        0.055961    3.016583   -0.000000
      2          1           0        0.054889    2.033982   -0.000000
      3          1           0       -0.873184    3.336263   -0.000000
      4          8           0        0.055961   -2.837639    0.000000
      5          1           0        0.750007   -3.533200    0.000000
      6          1           0       -0.827092   -3.268596    0.000000
 ---------------------------------------------------------------------

 SCF Done:  E(RHF) =  -152.108233978     A.U. after   10 cycles
 E2 =    -0.5258135832D+00 EUMP2 =    -0.15263404756158D+03
 CCSD(T)
 CCSD(T)= -0.15266124981D+03

 The electronic state is 1-A'.
 Alpha  occ. eigenvalues --  -20.56141 -20.55016  -1.33442  -1.32322  -0.70848
 Alpha  occ. eigenvalues --   -0.69723  -0.56928  -0.55789  -0.50560  -0.49443
 Alpha virt. eigenvalues --    0.13470   0.14804   0.19711   0.20933   0.53691
 Alpha virt. eigenvalues --    0.54816   0.56693   0.57767   0.66993   0.68580
 Alpha virt. eigenvalues --    0.78325   0.79417   0.79711   0.80425   0.82378

 Mulliken charges:
               1
     1  O   -0.512986
     2  H    0.259769
     3  H    0.253161
     4  O   -0.513735
     5  H    0.258002
     6  H    0.255789
 Sum of Mulliken charges =  -0.00000

 Dipole moment (field-independent basis, Debye):
    X=             -1.9204    Y=             -3.1342    Z=              0.0000  Tot=              3.6758
 Quadrupole moment (field-independent basis, Debye-Ang):
   XX=             -9.2849   YY=             -6.1206   ZZ=            -14.7142
   XY=             -5.2697   XZ=              0.0000   YZ=             -0.0000

 Normal termination of Gaussian 16 at Sun Aug 28 05:53:29 2022.
