 Gaussian 16, Revision A.03,
 Gaussian 16:  ES64L-G16RevA.03 25-Dec-2016

 ------------------
 #p CCSD(T)/cc-pVTZ
 ------------------

 ------------
 H2O_H2O_1358
 ------------
 Symbolic Z-matrix:
 Charge =  0 Multiplicity = 1

                         Standard orientation:
 ---------------------------------------------------------------------
 Center     Atomic      Atomic             Coordinates (Angstroms)
 Number     Number       Type             X           Y           Z
 ---------------------------------------------------------------------
      1          8           0        0.070232    1.645676    0.000000
      2          1           0        0.068994    0.663076    0.000000
      3          1           0       -0.858859    1.965513    0.000000
      4          8           0        0.070232   -1.475486   -0.000000
      5          1           0        0.560461   -2.327062   -0.000000
      6          1           0       -0.894303   -1.663045   -0.000000
 ---------------------------------------------------------------------

 SCF Done:  E(RHF) =  -152.112701111     A.U. after   10 cycles
 E2 =    -0.5276126907D+00 EUMP2 =    -0.15264031380215D+03
 CCSD(T)
 CCSD(T)= -0.15266730173D+03

 The electronic state is 1-A'.
 Alpha  occ. eigenvalues --  -20.58148 -20.53020  -1.35488  -1.30479  -0.72914
 Alpha  occ. eigenvalues --   -0.68155  -0.59189  -0.53769  -0.52585  -0.47606
 Alpha virt. eigenvalues --    0.11819   0.17108   0.19434   0.29474   0.49107
 Alpha virt. eigenvalues --    0.55002   0.57277   0.58893   0.69772   0.73603
 Alpha virt. eigenvalues --    0.73706   0.76553   0.81568   0.82632   0.84358

 Mulliken charges:
               1
     1  O   -0.539662
     2  H    0.281159
     3  H    0.240337
     4  O   -0.492808
     5  H    0.257272
     6  H    0.253702
 Sum of Mulliken charges =  -0.00000

 Dipole moment (field-independent basis, Debye):
    X=             -2.3421    Y=             -3.3865    Z=             -0.0000  Tot=              4.1175
 Quadrupole moment (field-independent basis, Debye-Ang):
   XX=             -9.7078   YY=             -8.4914   ZZ=            -14.7278
   XY=             -3.1870   XZ=             -0.0000   YZ=              0.0000

 CCSD(T)=-152.6673017\RMSD=7.040e-09\PG=CS [SG(H4O2)]\\@
 Normal termination of Gaussian 16 at Sat Aug 27 00:05:45 2022.
