 Gaussian 16, Revision A.03,
 Gaussian 16:  ES64L-G16RevA.03 25-Dec-2016

 ------------------
 #p CCSD(T)/cc-pVTZ
 ------------------

 -----------
 H2O_H2O_409
 -----------
 Symbolic Z-matrix:
 Charge =  0 Multiplicity = 1

                         Standard orientation:
 ---------------------------------------------------------------------
 Center     Atomic      Atomic             Coordinates (Angstroms)
 Number     Number       Type             X           Y           Z
 ---------------------------------------------------------------------
      1          8           0        0.066839    1.268263   -0.000000
      2          1           0        0.064959    0.285664   -0.000000
      3          1           0       -0.862042    1.588708   -0.000000
      4          8           0        0.066839   -1.095281    0.000000
      5          1           0        0.611179   -1.913329    0.000000
      6          1           0       -0.883527   -1.344900    0.000000
 ---------------------------------------------------------------------

 SCF Done:  E(RHF) =  -152.092028930     A.U. after   11 cycles
 E2 =    -0.5329937844D+00 EUMP2 =    -0.15262502271401D+03
 CCSD(T)
 CCSD(T)= -0.15265125955D+03

 The electronic state is 1-A'.
 Alpha  occ. eigenvalues --  -20.60548 -20.48495  -1.39482  -1.27145  -0.76662
 Alpha  occ. eigenvalues --   -0.71528  -0.57958  -0.55843  -0.49076  -0.44028
 Alpha virt. eigenvalues --    0.11033   0.16864   0.20398   0.33162   0.48226
 Alpha virt. eigenvalues --    0.53077   0.60552   0.63554   0.72086   0.72094
 Alpha virt. eigenvalues --    0.75043   0.79179   0.79468   0.83718   0.84056

 Mulliken charges:
               1
     1  O   -0.610663
     2  H    0.304210
     3  H    0.216191
     4  O   -0.397146
     5  H    0.243842
     6  H    0.243566
 Sum of Mulliken charges =  -0.00000

 Dipole moment (field-independent basis, Debye):
    X=             -2.1116    Y=             -4.2660    Z=              0.0000  Tot=              4.7600
 Quadrupole moment (field-independent basis, Debye-Ang):
   XX=             -9.5607   YY=             -9.5205   ZZ=            -14.6454
   XY=             -2.8364   XZ=              0.0000   YZ=             -0.0000

 Normal termination of Gaussian 16 at Fri Aug 26 18:03:50 2022.
