 Gaussian 16, Revision A.03,
 Gaussian 16:  ES64L-G16RevA.03 25-Dec-2016

 ------------------
 #p CCSD(T)/cc-pVTZ
 ------------------

 ------------
 H2O_H2O_1297
 ------------
 Symbolic Z-matrix:
 Charge =  0 Multiplicity = 1

                         Standard orientation:
 ---------------------------------------------------------------------
 Center     Atomic      Atomic             Coordinates (Angstroms)
 Number     Number       Type             X           Y           Z
 ---------------------------------------------------------------------
      1          8           0       -0.019973    1.614067    0.000000
      2          1           0       -0.015920    0.631474    0.000000
      3          1           0        0.908198    1.936564    0.000000
      4          8           0       -0.019973   -1.447016    0.000000
      5          1           0       -0.993631   -1.579288    0.000000
      6          1           0        0.420916   -2.325152    0.000000
 ---------------------------------------------------------------------

 SCF Done:  E(RHF) =  -152.113565753     A.U. after   10 cycles
 E2 =    -0.5275799929D+00 EUMP2 =    -0.15264114574624D+03
 CCSD(T)
 CCSD(T)= -0.15266810927D+03

 The electronic state is 1-A'.
 Alpha  occ. eigenvalues --  -20.58196 -20.52764  -1.35574  -1.30270  -0.73040
 Alpha  occ. eigenvalues --   -0.68015  -0.59396  -0.53509  -0.52668  -0.47417
 Alpha virt. eigenvalues --    0.12099   0.17876   0.18972   0.30208   0.49954
 Alpha virt. eigenvalues --    0.54516   0.55734   0.61521   0.68703   0.73432
 Alpha virt. eigenvalues --    0.73726   0.76921   0.81769   0.82501   0.84375

 Mulliken charges:
               1
     1  O   -0.553212
     2  H    0.281063
     3  H    0.251115
     4  O   -0.492765
     5  H    0.263841
     6  H    0.249958
 Sum of Mulliken charges =  -0.00000

 Dipole moment (field-independent basis, Debye):
    X=              0.6757    Y=             -3.3604    Z=              0.0000  Tot=              3.4277
 Quadrupole moment (field-independent basis, Debye-Ang):
   XX=             -9.4439   YY=             -8.5837   ZZ=            -14.7294
   XY=              4.1200   XZ=              0.0000   YZ=              0.0000

 CCSD(T)=-152.6681093\RMSD=6.360e-09\PG=CS [SG(H4O2)]\\@
 Normal termination of Gaussian 16 at Fri Aug 26 23:40:44 2022.
