 Gaussian 16, Revision A.03,
 Gaussian 16:  ES64L-G16RevA.03 25-Dec-2016

 ------------------
 #p CCSD(T)/cc-pVTZ
 ------------------

 ------------
 H2O_H2O_1737
 ------------
 Symbolic Z-matrix:
 Charge =  0 Multiplicity = 1

                         Standard orientation:
 ---------------------------------------------------------------------
 Center     Atomic      Atomic             Coordinates (Angstroms)
 Number     Number       Type             X           Y           Z
 ---------------------------------------------------------------------
      1          8           0        0.056031    1.799965   -0.000000
      2          1           0        0.054196    0.817365   -0.000000
      3          1           0       -0.872866    2.120366   -0.000000
      4          8           0        0.056031   -1.621108    0.000000
      5          1           0        0.749537   -2.317208    0.000000
      6          1           0       -0.827357   -2.051379    0.000000
 ---------------------------------------------------------------------

 SCF Done:  E(RHF) =  -152.112926782     A.U. after   10 cycles
 E2 =    -0.5267627741D+00 EUMP2 =    -0.15263968955620D+03
 CCSD(T)
 CCSD(T)= -0.15266672637D+03

 The electronic state is 1-A'.
 Alpha  occ. eigenvalues --  -20.57649 -20.53385  -1.34908  -1.30774  -0.72282
 Alpha  occ. eigenvalues --   -0.68264  -0.58655  -0.54186  -0.52043  -0.47923
 Alpha virt. eigenvalues --    0.12082   0.17189   0.19145   0.27556   0.50547
 Alpha virt. eigenvalues --    0.54983   0.56315   0.59034   0.69137   0.72433
 Alpha virt. eigenvalues --    0.75286   0.77045   0.81073   0.83219   0.84466

 Mulliken charges:
               1
     1  O   -0.533050
     2  H    0.272688
     3  H    0.246071
     4  O   -0.506132
     5  H    0.263420
     6  H    0.257003
 Sum of Mulliken charges =   0.00000

 Dipole moment (field-independent basis, Debye):
    X=             -1.8859    Y=             -3.4299    Z=              0.0000  Tot=              3.9142
 Quadrupole moment (field-independent basis, Debye-Ang):
   XX=             -9.2960   YY=             -8.0920   ZZ=            -14.7318
   XY=             -3.7041   XZ=              0.0000   YZ=              0.0000

 Normal termination of Gaussian 16 at Sun Aug 28 01:06:16 2022.
