 Gaussian 16, Revision A.03,
 Gaussian 16:  ES64L-G16RevA.03 25-Dec-2016

 ------------------
 #p CCSD(T)/cc-pVTZ
 ------------------

 ------------
 H2O_H2O_1898
 ------------
 Symbolic Z-matrix:
 Charge =  0 Multiplicity = 1

                         Standard orientation:
 ---------------------------------------------------------------------
 Center     Atomic      Atomic             Coordinates (Angstroms)
 Number     Number       Type             X           Y           Z
 ---------------------------------------------------------------------
      1          8           0       -0.016693    1.851388    0.000000
      2          1           0       -0.013033    0.868794    0.000000
      3          1           0        0.911607    2.173514    0.000000
      4          8           0       -0.016693   -1.688026    0.000000
      5          1           0       -0.996945   -1.755941    0.000000
      6          1           0        0.365458   -2.593269    0.000000
 ---------------------------------------------------------------------

 SCF Done:  E(RHF) =  -152.112247240     A.U. after   10 cycles
 E2 =    -0.5264965749D+00 EUMP2 =    -0.15263874381465D+03
 CCSD(T)
 CCSD(T)= -0.15266580811D+03

 The electronic state is 1-A'.
 Alpha  occ. eigenvalues --  -20.57401 -20.53857  -1.34680  -1.31222  -0.72113
 Alpha  occ. eigenvalues --   -0.68660  -0.58377  -0.54668  -0.51809  -0.48377
 Alpha virt. eigenvalues --    0.12192   0.17036   0.19221   0.26784   0.52368
 Alpha virt. eigenvalues --    0.54466   0.55947   0.59328   0.68834   0.73313
 Alpha virt. eigenvalues --    0.75811   0.78288   0.80645   0.83308   0.84118

 Mulliken charges:
               1
     1  O   -0.532813
     2  H    0.268103
     3  H    0.253816
     4  O   -0.508500
     5  H    0.261496
     6  H    0.257897
 Sum of Mulliken charges =  -0.00000

 Dipole moment (field-independent basis, Debye):
    X=              0.5722    Y=             -3.0900    Z=              0.0000  Tot=              3.1425
 Quadrupole moment (field-independent basis, Debye-Ang):
   XX=             -9.5449   YY=             -8.2907   ZZ=            -14.7280
   XY=              4.8536   XZ=              0.0000   YZ=              0.0000

 Normal termination of Gaussian 16 at Sun Aug 28 02:34:30 2022.
