 Gaussian 16, Revision A.03,
 Gaussian 16:  ES64L-G16RevA.03 25-Dec-2016

 ------------------
 #p CCSD(T)/cc-pVTZ
 ------------------

 -----------
 H2O_H2O_548
 -----------
 Symbolic Z-matrix:
 Charge =  0 Multiplicity = 1

                         Standard orientation:
 ---------------------------------------------------------------------
 Center     Atomic      Atomic             Coordinates (Angstroms)
 Number     Number       Type             X           Y           Z
 ---------------------------------------------------------------------
      1          8           0        0.016826   -1.312882    0.000000
      2          1           0        0.011566   -0.330295    0.000000
      3          1           0       -0.910948   -1.636519    0.000000
      4          8           0        0.016826    1.149574    0.000000
      5          1           0        0.996966    1.219086    0.000000
      6          1           0       -0.366798    2.054195    0.000000
 ---------------------------------------------------------------------

 SCF Done:  E(RHF) =  -152.099948904     A.U. after   11 cycles
 E2 =    -0.5315869174D+00 EUMP2 =    -0.15263153582128D+03
 CCSD(T)
 CCSD(T)= -0.15265797672D+03

 The electronic state is 1-A'.
 Alpha  occ. eigenvalues --  -20.59927 -20.49607  -1.38444  -1.27921  -0.76384
 Alpha  occ. eigenvalues --   -0.69066  -0.59507  -0.55012  -0.50094  -0.44924
 Alpha virt. eigenvalues --    0.11565   0.18055   0.19503   0.33960   0.47808
 Alpha virt. eigenvalues --    0.53387   0.58210   0.68104   0.69611   0.72116
 Alpha virt. eigenvalues --    0.74445   0.76588   0.79154   0.83882   0.84216

 Mulliken charges:
               1
     1  O   -0.613056
     2  H    0.296873
     3  H    0.242037
     4  O   -0.418568
     5  H    0.258687
     6  H    0.234027
 Sum of Mulliken charges =  -0.00000

 Dipole moment (field-independent basis, Debye):
    X=             -0.5524    Y=              3.8913    Z=              0.0000  Tot=              3.9303
 Quadrupole moment (field-independent basis, Debye-Ang):
   XX=             -9.4937   YY=             -9.3312   ZZ=            -14.6678
   XY=              3.3965   XZ=              0.0000   YZ=              0.0000

 Normal termination of Gaussian 16 at Fri Aug 26 18:58:49 2022.
