 Gaussian 16, Revision A.03,
 Gaussian 16:  ES64L-G16RevA.03 25-Dec-2016

 ------------------
 #p CCSD(T)/cc-pVTZ
 ------------------

 -----------
 H2O_H2O_794
 -----------
 Symbolic Z-matrix:
 Charge =  0 Multiplicity = 1

                         Standard orientation:
 ---------------------------------------------------------------------
 Center     Atomic      Atomic             Coordinates (Angstroms)
 Number     Number       Type             X           Y           Z
 ---------------------------------------------------------------------
      1          8           0        0.030336    1.419221    0.000000
      2          1           0        0.026335    0.436628    0.000000
      3          1           0       -0.897852    1.741669   -0.000000
      4          8           0        0.030336   -1.243715    0.000000
      5          1           0        0.959498   -1.563348    0.000000
      6          1           0       -0.573356   -2.018997   -0.000000
 ---------------------------------------------------------------------

 SCF Done:  E(RHF) =  -152.110415398     A.U. after   10 cycles
 E2 =    -0.5296502069D+00 EUMP2 =    -0.15264006560542D+03
 CCSD(T)
 CCSD(T)= -0.15266676181D+03

 The electronic state is 1-A'.
 Alpha  occ. eigenvalues --  -20.59303 -20.50672  -1.37094  -1.28607  -0.74328
 Alpha  occ. eigenvalues --   -0.68624  -0.59737  -0.54031  -0.51297  -0.45679
 Alpha virt. eigenvalues --    0.11731   0.18321   0.18969   0.33050   0.48045
 Alpha virt. eigenvalues --    0.54359   0.57500   0.64419   0.68370   0.72425
 Alpha virt. eigenvalues --    0.72738   0.77615   0.81398   0.83260   0.84301

 Mulliken charges:
               1
     1  O   -0.589328
     2  H    0.303276
     3  H    0.241176
     4  O   -0.468359
     5  H    0.263809
     6  H    0.249426
 Sum of Mulliken charges =  -0.00000

 Dipole moment (field-independent basis, Debye):
    X=             -0.9960    Y=             -3.8797    Z=              0.0000  Tot=              4.0055
 Quadrupole moment (field-independent basis, Debye-Ang):
   XX=             -9.2107   YY=             -9.0227   ZZ=            -14.7086
   XY=             -3.4230   XZ=              0.0000   YZ=              0.0000

 Normal termination of Gaussian 16 at Fri Aug 26 20:33:09 2022.
