 Gaussian 16, Revision A.03,
 Gaussian 16:  ES64L-G16RevA.03 25-Dec-2016

 ------------------
 #p CCSD(T)/cc-pVTZ
 ------------------

 ------------
 H2O_H2O_3842
 ------------
 Symbolic Z-matrix:
 Charge =  0 Multiplicity = 1

                         Standard orientation:
 ---------------------------------------------------------------------
 Center     Atomic      Atomic             Coordinates (Angstroms)
 Number     Number       Type             X           Y           Z
 ---------------------------------------------------------------------
      1          8           0        0.037425    2.637674    0.000000
      2          1           0        0.035576    1.655074    0.000000
      3          1           0       -0.891467    2.958089   -0.000000
      4          8           0        0.037425   -2.458692    0.000000
      5          1           0        0.917875   -2.894943    0.000000
      6          1           0       -0.660785   -3.150074   -0.000000
 ---------------------------------------------------------------------

 SCF Done:  E(RHF) =  -152.108924382     A.U. after   10 cycles
 E2 =    -0.5258222487D+00 EUMP2 =    -0.15263474663090D+03
 CCSD(T)
 CCSD(T)= -0.15266192613D+03

 The electronic state is 1-A'.
 Alpha  occ. eigenvalues --  -20.56331 -20.54773  -1.33627  -1.32085  -0.71029
 Alpha  occ. eigenvalues --   -0.69485  -0.57139  -0.55565  -0.50749  -0.49213
 Alpha virt. eigenvalues --    0.12978   0.15306   0.19594   0.21478   0.53481
 Alpha virt. eigenvalues --    0.54993   0.56571   0.57865   0.66713   0.69185
 Alpha virt. eigenvalues --    0.78147   0.79188   0.79632   0.79791   0.82931

 Mulliken charges:
               1
     1  O   -0.515976
     2  H    0.261946
     3  H    0.253372
     4  O   -0.515975
     5  H    0.258960
     6  H    0.257672
 Sum of Mulliken charges =  -0.00000

 Dipole moment (field-independent basis, Debye):
    X=             -1.2813    Y=             -3.1663    Z=             -0.0000  Tot=              3.4157
 Quadrupole moment (field-independent basis, Debye-Ang):
   XX=             -9.1591   YY=             -6.7080   ZZ=            -14.7166
   XY=             -5.7234   XZ=              0.0000   YZ=             -0.0000

 Normal termination of Gaussian 16 at Fri Aug 26 23:59:50 2022.
