 Gaussian 16, Revision A.03,
 Gaussian 16:  ES64L-G16RevA.03 25-Dec-2016

 ------------------
 #p CCSD(T)/cc-pVTZ
 ------------------

 ------------
 H2O_H2O_1083
 ------------
 Symbolic Z-matrix:
 Charge =  0 Multiplicity = 1

                         Standard orientation:
 ---------------------------------------------------------------------
 Center     Atomic      Atomic             Coordinates (Angstroms)
 Number     Number       Type             X           Y           Z
 ---------------------------------------------------------------------
      1          8           0        0.070240    1.535978   -0.000000
      2          1           0        0.068909    0.553378   -0.000000
      3          1           0       -0.858821    1.855903   -0.000000
      4          8           0        0.070240   -1.365802    0.000000
      5          1           0        0.560388   -2.217424    0.000000
      6          1           0       -0.894313   -1.553269    0.000000
 ---------------------------------------------------------------------

 SCF Done:  E(RHF) =  -152.112157405     A.U. after   10 cycles
 E2 =    -0.5285402043D+00 EUMP2 =    -0.15264069760888D+03
 CCSD(T)
 CCSD(T)= -0.15266759780D+03

 The electronic state is 1-A'.
 Alpha  occ. eigenvalues --  -20.58640 -20.52316  -1.36113  -1.29906  -0.73544
 Alpha  occ. eigenvalues --   -0.68100  -0.59584  -0.53157  -0.53029  -0.47008
 Alpha virt. eigenvalues --    0.11694   0.17186   0.19543   0.31124   0.48416
 Alpha virt. eigenvalues --    0.54670   0.58427   0.59215   0.69756   0.72823
 Alpha virt. eigenvalues --    0.73806   0.76628   0.81944   0.82317   0.84334

 Mulliken charges:
               1
     1  O   -0.552811
     2  H    0.291275
     3  H    0.236137
     4  O   -0.477764
     5  H    0.251958
     6  H    0.251205
 Sum of Mulliken charges =  -0.00000

 Dipole moment (field-independent basis, Debye):
    X=             -2.3206    Y=             -3.5270    Z=              0.0000  Tot=              4.2219
 Quadrupole moment (field-independent basis, Debye-Ang):
   XX=             -9.7092   YY=             -8.7148   ZZ=            -14.7202
   XY=             -3.0872   XZ=              0.0000   YZ=             -0.0000

 CCSD(T)=-152.6675978\RMSD=7.522e-09\PG=CS [SG(H4O2)]\\@
 Normal termination of Gaussian 16 at Fri Aug 26 22:21:24 2022.
