 Gaussian 16, Revision A.03,
 Gaussian 16:  ES64L-G16RevA.03 25-Dec-2016

 ------------------
 #p CCSD(T)/cc-pVTZ
 ------------------

 ------------
 H2O_H2O_3389
 ------------
 Symbolic Z-matrix:
 Charge =  0 Multiplicity = 1

                         Standard orientation:
 ---------------------------------------------------------------------
 Center     Atomic      Atomic             Coordinates (Angstroms)
 Number     Number       Type             X           Y           Z
 ---------------------------------------------------------------------
      1          8           0        0.048576    2.458946    0.000000
      2          1           0        0.046986    1.476346    0.000000
      3          1           0       -0.880400    2.779116    0.000000
      4          8           0        0.048576   -2.278550   -0.000000
      5          1           0        0.827158   -2.877980   -0.000000
      6          1           0       -0.770956   -2.820649   -0.000000
 ---------------------------------------------------------------------

 SCF Done:  E(RHF) =  -152.109323236     A.U. after   10 cycles
 E2 =    -0.5258738856D+00 EUMP2 =    -0.15263519712126D+03
 CCSD(T)
 CCSD(T)= -0.15266235932D+03

 The electronic state is 1-A'.
 Alpha  occ. eigenvalues --  -20.56484 -20.54607  -1.33771  -1.31922  -0.71173
 Alpha  occ. eigenvalues --   -0.69318  -0.57296  -0.55405  -0.50897  -0.49053
 Alpha virt. eigenvalues --    0.12702   0.15620   0.19541   0.21956   0.53372
 Alpha virt. eigenvalues --    0.55155   0.56454   0.58128   0.67226   0.69352
 Alpha virt. eigenvalues --    0.78009   0.79075   0.79403   0.79782   0.83088

 Mulliken charges:
               1
     1  O   -0.517053
     2  H    0.263239
     3  H    0.252208
     4  O   -0.515293
     5  H    0.259833
     6  H    0.257066
 Sum of Mulliken charges =   0.00000

 Dipole moment (field-independent basis, Debye):
    X=             -1.6594    Y=             -3.2183    Z=             -0.0000  Tot=              3.6209
 Quadrupole moment (field-independent basis, Debye-Ang):
   XX=             -9.1825   YY=             -6.9335   ZZ=            -14.7181
   XY=             -4.8864   XZ=             -0.0000   YZ=              0.0000

 CCSD(T)=-152.6623593\RMSD=6.974e-09\PG=CS [SG(H4O2)]\\@
 Normal termination of Gaussian 16 at Fri Aug 26 21:25:46 2022.
