 Gaussian 16, Revision A.03,
 Gaussian 16:  ES64L-G16RevA.03 25-Dec-2016

 ------------------
 #p CCSD(T)/cc-pVTZ
 ------------------

 ------------
 H2O_H2O_3003
 ------------
 Symbolic Z-matrix:
 Charge =  0 Multiplicity = 1

                         Standard orientation:
 ---------------------------------------------------------------------
 Center     Atomic      Atomic             Coordinates (Angstroms)
 Number     Number       Type             X           Y           Z
 ---------------------------------------------------------------------
      1          8           0        0.085601   -2.292634    0.000000
      2          1           0        0.085320   -1.310032    0.000000
      3          1           0       -0.843800   -2.611566    0.000000
      4          8           0        0.085601    2.143038    0.000000
      5          1           0        0.277022    3.106814    0.000000
      6          1           0       -0.888162    2.011551    0.000000
 ---------------------------------------------------------------------

 SCF Done:  E(RHF) =  -152.108613427     A.U. after   10 cycles
 E2 =    -0.5260415555D+00 EUMP2 =    -0.15263465498261D+03
 CCSD(T)
 CCSD(T)= -0.15266182469D+03

 The electronic state is 1-A'.
 Alpha  occ. eigenvalues --  -20.56651 -20.54909  -1.33941  -1.32216  -0.71367
 Alpha  occ. eigenvalues --   -0.69597  -0.57429  -0.55676  -0.51055  -0.49335
 Alpha virt. eigenvalues --    0.11850   0.15662   0.19408   0.22896   0.54160
 Alpha virt. eigenvalues --    0.54813   0.56419   0.58254   0.68008   0.69138
 Alpha virt. eigenvalues --    0.77833   0.78611   0.79530   0.80896   0.82755

 Mulliken charges:
               1
     1  O   -0.512841
     2  H    0.261541
     3  H    0.249381
     4  O   -0.509698
     5  H    0.259760
     6  H    0.251858
 Sum of Mulliken charges =  -0.00000

 Dipole moment (field-independent basis, Debye):
    X=             -2.9157    Y=              2.6874    Z=              0.0000  Tot=              3.9653
 Quadrupole moment (field-independent basis, Debye-Ang):
   XX=            -10.4088   YY=             -8.4210   ZZ=            -14.7150
   XY=              2.7833   XZ=              0.0000   YZ=              0.0000

 Normal termination of Gaussian 16 at Fri Aug 26 19:11:30 2022.
