 Gaussian 16, Revision A.03,
 Gaussian 16:  ES64L-G16RevA.03 25-Dec-2016

 ------------------
 #p CCSD(T)/cc-pVTZ
 ------------------

 -----------
 H2O_H2O_382
 -----------
 Symbolic Z-matrix:
 Charge =  0 Multiplicity = 1

                         Standard orientation:
 ---------------------------------------------------------------------
 Center     Atomic      Atomic             Coordinates (Angstroms)
 Number     Number       Type             X           Y           Z
 ---------------------------------------------------------------------
      1          8           0       -0.073593    1.254953    0.000000
      2          1           0       -0.072187    0.272353    0.000000
      3          1           0        0.855443    1.574950    0.000000
      4          8           0       -0.073593   -1.088113    0.000000
      5          1           0       -0.506926   -1.970003    0.000000
      6          1           0        0.901165   -1.212019    0.000000
 ---------------------------------------------------------------------

 SCF Done:  E(RHF) =  -152.088236914     A.U. after   11 cycles
 E2 =    -0.5335713981D+00 EUMP2 =    -0.15262180831226D+03
 CCSD(T)
 CCSD(T)= -0.15264801728D+03

 The electronic state is 1-A'.
 Alpha  occ. eigenvalues --  -20.60608 -20.48666  -1.39750  -1.27313  -0.77479
 Alpha  occ. eigenvalues --   -0.71064  -0.57971  -0.55967  -0.49270  -0.44191
 Alpha virt. eigenvalues --    0.10986   0.16639   0.20603   0.32958   0.48602
 Alpha virt. eigenvalues --    0.52784   0.59894   0.64116   0.71989   0.72472
 Alpha virt. eigenvalues --    0.75199   0.78579   0.79354   0.84035   0.84401

 Mulliken charges:
               1
     1  O   -0.604985
     2  H    0.297427
     3  H    0.212982
     4  O   -0.381855
     5  H    0.236747
     6  H    0.239685
 Sum of Mulliken charges =  -0.00000

 Dipole moment (field-independent basis, Debye):
    X=              2.3219    Y=             -4.1617    Z=              0.0000  Tot=              4.7656
 Quadrupole moment (field-independent basis, Debye-Ang):
   XX=             -9.8163   YY=             -9.5252   ZZ=            -14.6323
   XY=              2.7184   XZ=              0.0000   YZ=              0.0000

 Normal termination of Gaussian 16 at Fri Aug 26 17:50:32 2022.
