 Gaussian 16, Revision A.03,
 Gaussian 16:  ES64L-G16RevA.03 25-Dec-2016

 ------------------
 #p CCSD(T)/cc-pVTZ
 ------------------

 ------------
 H2O_H2O_1772
 ------------
 Symbolic Z-matrix:
 Charge =  0 Multiplicity = 1

                         Standard orientation:
 ---------------------------------------------------------------------
 Center     Atomic      Atomic             Coordinates (Angstroms)
 Number     Number       Type             X           Y           Z
 ---------------------------------------------------------------------
      1          8           0       -0.019935    1.803541    0.000000
      2          1           0       -0.016329    0.820946    0.000000
      3          1           0        0.908383    2.125616    0.000000
      4          8           0       -0.019935   -1.636473    0.000000
      5          1           0       -0.993653   -1.768302    0.000000
      6          1           0        0.420555   -2.514809    0.000000
 ---------------------------------------------------------------------

 SCF Done:  E(RHF) =  -152.112765934     A.U. after   10 cycles
 E2 =    -0.5266413441D+00 EUMP2 =    -0.15263940727762D+03
 CCSD(T)
 CCSD(T)= -0.15266645370D+03

 The electronic state is 1-A'.
 Alpha  occ. eigenvalues --  -20.57548 -20.53622  -1.34828  -1.31006  -0.72252
 Alpha  occ. eigenvalues --   -0.68473  -0.58571  -0.54429  -0.51957  -0.48162
 Alpha virt. eigenvalues --    0.12195   0.17234   0.19156   0.27415   0.51780
 Alpha virt. eigenvalues --    0.54356   0.55954   0.59605   0.68938   0.73372
 Alpha virt. eigenvalues --    0.75344   0.77830   0.80885   0.83213   0.84279

 Mulliken charges:
               1
     1  O   -0.535841
     2  H    0.270103
     3  H    0.252871
     4  O   -0.507334
     5  H    0.262495
     6  H    0.257706
 Sum of Mulliken charges =  -0.00000

 Dipole moment (field-independent basis, Debye):
    X=              0.6791    Y=             -3.1926    Z=              0.0000  Tot=              3.2640
 Quadrupole moment (field-independent basis, Debye-Ang):
   XX=             -9.4483   YY=             -8.2776   ZZ=            -14.7302
   XY=              4.6054   XZ=              0.0000   YZ=              0.0000

 Normal termination of Gaussian 16 at Sun Aug 28 01:27:14 2022.
