 Gaussian 16, Revision A.03,
 Gaussian 16:  ES64L-G16RevA.03 25-Dec-2016

 ------------------
 #p CCSD(T)/cc-pVTZ
 ------------------

 -----------
 H2O_H2O_890
 -----------
 Symbolic Z-matrix:
 Charge =  0 Multiplicity = 1

                         Standard orientation:
 ---------------------------------------------------------------------
 Center     Atomic      Atomic             Coordinates (Angstroms)
 Number     Number       Type             X           Y           Z
 ---------------------------------------------------------------------
      1          8           0        0.044966    1.461705    0.000000
      2          1           0        0.041989    0.479108    0.000000
      3          1           0       -0.883558    1.783185    0.000000
      4          8           0        0.044966   -1.281412   -0.000000
      5          1           0        0.860312   -1.829788   -0.000000
      6          1           0       -0.738195   -1.874846   -0.000000
 ---------------------------------------------------------------------

 SCF Done:  E(RHF) =  -152.112293053     A.U. after   10 cycles
 E2 =    -0.5291512939D+00 EUMP2 =    -0.15264144434699D+03
 CCSD(T)
 CCSD(T)= -0.15266821183D+03

 The electronic state is 1-A'.
 Alpha  occ. eigenvalues --  -20.59104 -20.51039  -1.36726  -1.28859  -0.73834
 Alpha  occ. eigenvalues --   -0.68450  -0.59706  -0.53735  -0.51715  -0.45947
 Alpha virt. eigenvalues --    0.11732   0.18078   0.19050   0.32544   0.48147
 Alpha virt. eigenvalues --    0.54500   0.57609   0.61713   0.69282   0.71728
 Alpha virt. eigenvalues --    0.72568   0.77721   0.82187   0.82841   0.84697

 Mulliken charges:
               1
     1  O   -0.578222
     2  H    0.303766
     3  H    0.238249
     4  O   -0.485548
     5  H    0.265384
     6  H    0.256371
 Sum of Mulliken charges =  -0.00000

 Dipole moment (field-independent basis, Debye):
    X=             -1.4757    Y=             -3.8895    Z=             -0.0000  Tot=              4.1600
 Quadrupole moment (field-independent basis, Debye-Ang):
   XX=             -9.1505   YY=             -8.9000   ZZ=            -14.7194
   XY=             -3.3509   XZ=             -0.0000   YZ=              0.0000

 Normal termination of Gaussian 16 at Fri Aug 26 21:09:47 2022.
