 Gaussian 16, Revision A.03,
 Gaussian 16:  ES64L-G16RevA.03 25-Dec-2016

 ------------------
 #p CCSD(T)/cc-pVTZ
 ------------------

 ------------
 H2O_H2O_3874
 ------------
 Symbolic Z-matrix:
 Charge =  0 Multiplicity = 1

                         Standard orientation:
 ---------------------------------------------------------------------
 Center     Atomic      Atomic             Coordinates (Angstroms)
 Number     Number       Type             X           Y           Z
 ---------------------------------------------------------------------
      1          8           0       -0.013491    2.636943    0.000000
      2          1           0       -0.010856    1.654345    0.000000
      3          1           0        0.915144    2.958101    0.000000
      4          8           0       -0.013491   -2.477672    0.000000
      5          1           0       -0.996090   -2.480307    0.000000
      6          1           0        0.307667   -3.406307    0.000000
 ---------------------------------------------------------------------

 SCF Done:  E(RHF) =  -152.108779031     A.U. after   10 cycles
 E2 =    -0.5258170100D+00 EUMP2 =    -0.15263459604121D+03
 CCSD(T)
 CCSD(T)= -0.15266178121D+03

 The electronic state is 1-A'.
 Alpha  occ. eigenvalues --  -20.56313 -20.54961  -1.33614  -1.32271  -0.71021
 Alpha  occ. eigenvalues --   -0.69679  -0.57118  -0.55751  -0.50734  -0.49399
 Alpha virt. eigenvalues --    0.12718   0.15243   0.19212   0.21909   0.53201
 Alpha virt. eigenvalues --    0.55196   0.56606   0.57856   0.66703   0.69036
 Alpha virt. eigenvalues --    0.78160   0.78955   0.79452   0.80843   0.82756

 Mulliken charges:
               1
     1  O   -0.515784
     2  H    0.260234
     3  H    0.255062
     4  O   -0.515770
     5  H    0.257386
     6  H    0.258872
 Sum of Mulliken charges =   0.00000

 Dipole moment (field-independent basis, Debye):
    X=              0.4646    Y=             -2.8131    Z=              0.0000  Tot=              2.8512
 Quadrupole moment (field-independent basis, Debye-Ang):
   XX=             -9.6478   YY=             -7.6881   ZZ=            -14.7159
   XY=              7.1393   XZ=              0.0000   YZ=              0.0000

 2475\MP4DQ=-152.6437047\MP4SDQ=-152.6467514\CCSD=-152.6461661\CCSD(T)=
 Normal termination of Gaussian 16 at Sat Aug 27 00:12:52 2022.
