 Gaussian 16, Revision A.03,
 Gaussian 16:  ES64L-G16RevA.03 25-Dec-2016

 ------------------
 #p CCSD(T)/cc-pVTZ
 ------------------

 ------------
 H2O_H2O_1449
 ------------
 Symbolic Z-matrix:
 Charge =  0 Multiplicity = 1

                         Standard orientation:
 ---------------------------------------------------------------------
 Center     Atomic      Atomic             Coordinates (Angstroms)
 Number     Number       Type             X           Y           Z
 ---------------------------------------------------------------------
      1          8           0        0.013621   -1.669649    0.000000
      2          1           0        0.009383   -0.687057    0.000000
      3          1           0       -0.914488   -1.992322    0.000000
      4          8           0        0.013621    1.510423    0.000000
      5          1           0        0.996214    1.514661    0.000000
      6          1           0       -0.309051    2.438532    0.000000
 ---------------------------------------------------------------------

 SCF Done:  E(RHF) =  -152.112954336     A.U. after   10 cycles
 E2 =    -0.5272180545D+00 EUMP2 =    -0.15264017239046D+03
 CCSD(T)
 CCSD(T)= -0.15266718379D+03

 The electronic state is 1-A'.
 Alpha  occ. eigenvalues --  -20.57928 -20.53306  -1.35276  -1.30748  -0.72804
 Alpha  occ. eigenvalues --   -0.68273  -0.59075  -0.54069  -0.52376  -0.47899
 Alpha virt. eigenvalues --    0.12147   0.17531   0.19194   0.29237   0.50685
 Alpha virt. eigenvalues --    0.54510   0.55584   0.60903   0.68753   0.73926
 Alpha virt. eigenvalues --    0.74325   0.77058   0.81321   0.82583   0.84266

 Mulliken charges:
               1
     1  O   -0.545800
     2  H    0.275207
     3  H    0.253827
     4  O   -0.496105
     5  H    0.262573
     6  H    0.250299
 Sum of Mulliken charges =  -0.00000

 Dipole moment (field-independent basis, Debye):
    X=             -0.4699    Y=              3.1394    Z=              0.0000  Tot=              3.1744
 Quadrupole moment (field-independent basis, Debye-Ang):
   XX=             -9.6478   YY=             -8.5972   ZZ=            -14.7279
   XY=              4.4884   XZ=              0.0000   YZ=              0.0000

 Normal termination of Gaussian 16 at Sat Aug 27 00:39:11 2022.
