 Gaussian 16, Revision A.03,
 Gaussian 16:  ES64L-G16RevA.03 25-Dec-2016

 ------------------
 #p CCSD(T)/cc-pVTZ
 ------------------

 ------------
 H2O_H2O_1189
 ------------
 Symbolic Z-matrix:
 Charge =  0 Multiplicity = 1

                         Standard orientation:
 ---------------------------------------------------------------------
 Center     Atomic      Atomic             Coordinates (Angstroms)
 Number     Number       Type             X           Y           Z
 ---------------------------------------------------------------------
      1          8           0        0.048662    1.581371   -0.000000
      2          1           0        0.046136    0.598773   -0.000000
      3          1           0       -0.880009    1.902426   -0.000000
      4          8           0        0.048662   -1.401068    0.000000
      5          1           0        0.826672   -2.001240    0.000000
      6          1           0       -0.771387   -1.942387    0.000000
 ---------------------------------------------------------------------

 SCF Done:  E(RHF) =  -152.114077159     A.U. after   10 cycles
 E2 =    -0.5279591821D+00 EUMP2 =    -0.15264203634152D+03
 CCSD(T)
 CCSD(T)= -0.15266895507D+03

 The electronic state is 1-A'.
 Alpha  occ. eigenvalues --  -20.58469 -20.52168  -1.35849  -1.29739  -0.73115
 Alpha  occ. eigenvalues --   -0.67924  -0.59553  -0.52948  -0.52909  -0.46870
 Alpha virt. eigenvalues --    0.11917   0.17890   0.18946   0.30919   0.48901
 Alpha virt. eigenvalues --    0.54780   0.56314   0.60292   0.69228   0.71535
 Alpha virt. eigenvalues --    0.73204   0.77105   0.82200   0.82676   0.84955

 Mulliken charges:
               1
     1  O   -0.555936
     2  H    0.289724
     3  H    0.242286
     4  O   -0.500411
     5  H    0.265863
     6  H    0.258473
 Sum of Mulliken charges =  -0.00000

 Dipole moment (field-independent basis, Debye):
    X=             -1.6166    Y=             -3.6804    Z=              0.0000  Tot=              4.0198
 Quadrupole moment (field-independent basis, Debye-Ang):
   XX=             -9.1860   YY=             -8.5624   ZZ=            -14.7325
   XY=             -3.5166   XZ=              0.0000   YZ=             -0.0000

 Normal termination of Gaussian 16 at Fri Aug 26 22:59:39 2022.
