 Gaussian 16, Revision A.03,
 Gaussian 16:  ES64L-G16RevA.03 25-Dec-2016

 ------------------
 #p CCSD(T)/cc-pVTZ
 ------------------

 ------------
 H2O_H2O_4526
 ------------
 Symbolic Z-matrix:
 Charge =  0 Multiplicity = 1

                         Standard orientation:
 ---------------------------------------------------------------------
 Center     Atomic      Atomic             Coordinates (Angstroms)
 Number     Number       Type             X           Y           Z
 ---------------------------------------------------------------------
      1          8           0        0.090683   -2.895009    0.000000
      2          1           0        0.090615   -1.912408    0.000000
      3          1           0       -0.838787   -3.213740    0.000000
      4          8           0        0.090683    2.756298    0.000000
      5          1           0        0.154880    3.736800    0.000000
      6          1           0       -0.857644    2.499039    0.000000
 ---------------------------------------------------------------------

 SCF Done:  E(RHF) =  -152.107692476     A.U. after   10 cycles
 E2 =    -0.5258708155D+00 EUMP2 =    -0.15263356329111D+03
 CCSD(T)
 CCSD(T)= -0.15266077656D+03

 The electronic state is 1-A'.
 Alpha  occ. eigenvalues --  -20.56205 -20.55306  -1.33506  -1.32608  -0.70920
 Alpha  occ. eigenvalues --   -0.70005  -0.56968  -0.56061  -0.50617  -0.49721
 Alpha virt. eigenvalues --    0.12839   0.14733   0.18986   0.21564   0.53278
 Alpha virt. eigenvalues --    0.54812   0.56559   0.57676   0.66927   0.68459
 Alpha virt. eigenvalues --    0.78274   0.79151   0.79635   0.81248   0.81664

 Mulliken charges:
               1
     1  O   -0.509823
     2  H    0.257576
     3  H    0.252187
     4  O   -0.510823
     5  H    0.258197
     6  H    0.252686
 Sum of Mulliken charges =  -0.00000

 Dipole moment (field-independent basis, Debye):
    X=             -3.1101    Y=              2.4332    Z=              0.0000  Tot=              3.9488
 Quadrupole moment (field-independent basis, Debye-Ang):
   XX=            -10.6998   YY=             -8.8649   ZZ=            -14.7120
   XY=              2.4202   XZ=              0.0000   YZ=              0.0000

 Normal termination of Gaussian 16 at Sun Aug 28 03:38:09 2022.
