 Gaussian 16, Revision A.03,
 Gaussian 16:  ES64L-G16RevA.03 25-Dec-2016

 ------------------
 #p CCSD(T)/cc-pVTZ
 ------------------

 ------------
 H2O_H2O_1159
 ------------
 Symbolic Z-matrix:
 Charge =  0 Multiplicity = 1

                         Standard orientation:
 ---------------------------------------------------------------------
 Center     Atomic      Atomic             Coordinates (Angstroms)
 Number     Number       Type             X           Y           Z
 ---------------------------------------------------------------------
      1          8           0        0.066806    1.567447    0.000000
      2          1           0        0.065305    0.584846    0.000000
      3          1           0       -0.862199    1.887532    0.000000
      4          8           0        0.066806   -1.394413   -0.000000
      5          1           0        0.611462   -2.212250   -0.000000
      6          1           0       -0.883464   -1.644399   -0.000000
 ---------------------------------------------------------------------

 SCF Done:  E(RHF) =  -152.112845796     A.U. after   10 cycles
 E2 =    -0.5282020225D+00 EUMP2 =    -0.15264104781835D+03
 CCSD(T)
 CCSD(T)= -0.15266797182D+03

 The electronic state is 1-A'.
 Alpha  occ. eigenvalues --  -20.58503 -20.52422  -1.35918  -1.29977  -0.73300
 Alpha  occ. eigenvalues --   -0.68049  -0.59514  -0.53149  -0.52990  -0.47092
 Alpha virt. eigenvalues --    0.11766   0.17301   0.19398   0.30784   0.48573
 Alpha virt. eigenvalues --    0.54799   0.57775   0.59282   0.69811   0.73060
 Alpha virt. eigenvalues --    0.73220   0.76616   0.82054   0.82378   0.84507

 Mulliken charges:
               1
     1  O   -0.550521
     2  H    0.289205
     3  H    0.238077
     4  O   -0.487010
     5  H    0.256651
     6  H    0.253598
 Sum of Mulliken charges =  -0.00000

 Dipole moment (field-independent basis, Debye):
    X=             -2.2141    Y=             -3.5423    Z=             -0.0000  Tot=              4.1774
 Quadrupole moment (field-independent basis, Debye-Ang):
   XX=             -9.5850   YY=             -8.6283   ZZ=            -14.7254
   XY=             -3.1965   XZ=             -0.0000   YZ=              0.0000

 CCSD(T)=-152.6679718\RMSD=7.250e-09\PG=CS [SG(H4O2)]\\@
 Normal termination of Gaussian 16 at Fri Aug 26 22:49:05 2022.
