 Gaussian 16, Revision A.03,
 Gaussian 16:  ES64L-G16RevA.03 25-Dec-2016

 ------------------
 #p CCSD(T)/cc-pVTZ
 ------------------

 ------------
 H2O_H2O_1656
 ------------
 Symbolic Z-matrix:
 Charge =  0 Multiplicity = 1

                         Standard orientation:
 ---------------------------------------------------------------------
 Center     Atomic      Atomic             Coordinates (Angstroms)
 Number     Number       Type             X           Y           Z
 ---------------------------------------------------------------------
      1          8           0        0.076776    1.761527   -0.000000
      2          1           0        0.075958    0.778926   -0.000000
      3          1           0       -0.852452    2.080967   -0.000000
      4          8           0        0.076776   -1.598352    0.000000
      5          1           0        0.452046   -2.506470    0.000000
      6          1           0       -0.903963   -1.658828    0.000000
 ---------------------------------------------------------------------

 SCF Done:  E(RHF) =  -152.111614742     A.U. after   10 cycles
 E2 =    -0.5270242380D+00 EUMP2 =    -0.15263863897999D+03
 CCSD(T)
 CCSD(T)= -0.15266569090D+03

 The electronic state is 1-A'.
 Alpha  occ. eigenvalues --  -20.57714 -20.53745  -1.35008  -1.31120  -0.72471
 Alpha  occ. eigenvalues --   -0.68550  -0.58663  -0.54509  -0.52116  -0.48250
 Alpha virt. eigenvalues --    0.11817   0.16749   0.19594   0.27521   0.50217
 Alpha virt. eigenvalues --    0.55316   0.56846   0.58347   0.69324   0.73855
 Alpha virt. eigenvalues --    0.74875   0.77477   0.80875   0.82935   0.83885

 Mulliken charges:
               1
     1  O   -0.527861
     2  H    0.272508
     3  H    0.242681
     4  O   -0.498067
     5  H    0.258239
     6  H    0.252500
 Sum of Mulliken charges =  -0.00000

 Dipole moment (field-independent basis, Debye):
    X=             -2.5775    Y=             -3.1426    Z=              0.0000  Tot=              4.0644
 Quadrupole moment (field-independent basis, Debye-Ang):
   XX=             -9.9803   YY=             -8.4142   ZZ=            -14.7252
   XY=             -3.0539   XZ=              0.0000   YZ=             -0.0000

 Normal termination of Gaussian 16 at Sun Aug 28 00:22:48 2022.
