 Gaussian 16, Revision A.03,
 Gaussian 16:  ES64L-G16RevA.03 25-Dec-2016

 ------------------
 #p CCSD(T)/cc-pVTZ
 ------------------

 ------------
 H2O_H2O_3884
 ------------
 Symbolic Z-matrix:
 Charge =  0 Multiplicity = 1

                         Standard orientation:
 ---------------------------------------------------------------------
 Center     Atomic      Atomic             Coordinates (Angstroms)
 Number     Number       Type             X           Y           Z
 ---------------------------------------------------------------------
      1          8           0        0.066750    2.654430    0.000000
      2          1           0        0.065884    1.671829    0.000000
      3          1           0       -0.862462    2.973915    0.000000
      4          8           0        0.066750   -2.481310   -0.000000
      5          1           0        0.611934   -3.298794   -0.000000
      6          1           0       -0.883358   -2.731910   -0.000000
 ---------------------------------------------------------------------

 SCF Done:  E(RHF) =  -152.108563802     A.U. after   10 cycles
 E2 =    -0.5258509830D+00 EUMP2 =    -0.15263441478490D+03
 CCSD(T)
 CCSD(T)= -0.15266160217D+03

 The electronic state is 1-A'.
 Alpha  occ. eigenvalues --  -20.56329 -20.54867  -1.33626  -1.32176  -0.71034
 Alpha  occ. eigenvalues --   -0.69571  -0.57122  -0.55646  -0.50745  -0.49299
 Alpha virt. eigenvalues --    0.12882   0.15210   0.19519   0.21438   0.53390
 Alpha virt. eigenvalues --    0.54986   0.56529   0.57884   0.66703   0.69110
 Alpha virt. eigenvalues --    0.78152   0.79018   0.79553   0.80182   0.82827

 Mulliken charges:
               1
     1  O   -0.513803
     2  H    0.261298
     3  H    0.251955
     4  O   -0.514338
     5  H    0.259472
     6  H    0.255416
 Sum of Mulliken charges =  -0.00000

 Dipole moment (field-independent basis, Debye):
    X=             -2.2845    Y=             -3.0604    Z=             -0.0000  Tot=              3.8191
 Quadrupole moment (field-independent basis, Debye-Ang):
   XX=             -9.5614   YY=             -6.9778   ZZ=            -14.7153
   XY=             -4.2093   XZ=             -0.0000   YZ=              0.0000

 Normal termination of Gaussian 16 at Sat Aug 27 00:16:17 2022.
