 Gaussian 16, Revision A.03,
 Gaussian 16:  ES64L-G16RevA.03 25-Dec-2016

 ------------------
 #p CCSD(T)/cc-pVTZ
 ------------------

 ------------
 H2O_H2O_3906
 ------------
 Symbolic Z-matrix:
 Charge =  0 Multiplicity = 1

                         Standard orientation:
 ---------------------------------------------------------------------
 Center     Atomic      Atomic             Coordinates (Angstroms)
 Number     Number       Type             X           Y           Z
 ---------------------------------------------------------------------
      1          8           0        0.076752    2.659023   -0.000000
      2          1           0        0.076219    1.676422   -0.000000
      3          1           0       -0.852568    2.978194   -0.000000
      4          8           0        0.076752   -2.495804    0.000000
      5          1           0        0.452285   -3.403812    0.000000
      6          1           0       -0.903969   -2.556563    0.000000
 ---------------------------------------------------------------------

 SCF Done:  E(RHF) =  -152.108317584     A.U. after   10 cycles
 E2 =    -0.5258677951D+00 EUMP2 =    -0.15263418537898D+03
 CCSD(T)
 CCSD(T)= -0.15266137872D+03

 The electronic state is 1-A'.
 Alpha  occ. eigenvalues --  -20.56327 -20.54978  -1.33626  -1.32285  -0.71037
 Alpha  occ. eigenvalues --   -0.69679  -0.57111  -0.55749  -0.50742  -0.49404
 Alpha virt. eigenvalues --    0.12725   0.15147   0.19361   0.21560   0.53263
 Alpha virt. eigenvalues --    0.55019   0.56510   0.57898   0.66711   0.69015
 Alpha virt. eigenvalues --    0.78155   0.78951   0.79453   0.80632   0.82703

 Mulliken charges:
               1
     1  O   -0.512505
     2  H    0.260407
     3  H    0.251641
     4  O   -0.513263
     5  H    0.259417
     6  H    0.254303
 Sum of Mulliken charges =  -0.00000

 Dipole moment (field-independent basis, Debye):
    X=             -2.6269    Y=             -2.8836    Z=              0.0000  Tot=              3.9007
 Quadrupole moment (field-independent basis, Debye-Ang):
   XX=             -9.9501   YY=             -7.4839   ZZ=            -14.7143
   XY=             -3.5715   XZ=              0.0000   YZ=             -0.0000

 CCSD(T)=-152.6613787\RMSD=7.188e-09\PG=CS [SG(H4O2)]\\@
 Normal termination of Gaussian 16 at Sat Aug 27 00:23:45 2022.
