 Gaussian 16, Revision A.03,
 Gaussian 16:  ES64L-G16RevA.03 25-Dec-2016

 ------------------
 #p CCSD(T)/cc-pVTZ
 ------------------

 ------------
 H2O_H2O_3372
 ------------
 Symbolic Z-matrix:
 Charge =  0 Multiplicity = 1

                         Standard orientation:
 ---------------------------------------------------------------------
 Center     Atomic      Atomic             Coordinates (Angstroms)
 Number     Number       Type             X           Y           Z
 ---------------------------------------------------------------------
      1          8           0       -0.019852    2.441761    0.000000
      2          1           0       -0.017222    1.459163    0.000000
      3          1           0        0.908785    2.762914    0.000000
      4          8           0       -0.019852   -2.274653    0.000000
      5          1           0       -0.993701   -2.405515    0.000000
      6          1           0        0.419765   -3.153426    0.000000
 ---------------------------------------------------------------------

 SCF Done:  E(RHF) =  -152.109346286     A.U. after   10 cycles
 E2 =    -0.5258592567D+00 EUMP2 =    -0.15263520554226D+03
 CCSD(T)
 CCSD(T)= -0.15266236905D+03

 The electronic state is 1-A'.
 Alpha  occ. eigenvalues --  -20.56473 -20.54730  -1.33765  -1.32045  -0.71171
 Alpha  occ. eigenvalues --   -0.69451  -0.57289  -0.55532  -0.50890  -0.49178
 Alpha virt. eigenvalues --    0.12516   0.15618   0.19321   0.22307   0.53386
 Alpha virt. eigenvalues --    0.55381   0.56517   0.58041   0.67202   0.69307
 Alpha virt. eigenvalues --    0.78012   0.78705   0.79661   0.80426   0.82999

 Mulliken charges:
               1
     1  O   -0.517931
     2  H    0.262055
     3  H    0.254427
     4  O   -0.515934
     5  H    0.258525
     6  H    0.258856
 Sum of Mulliken charges =  -0.00000

 Dipole moment (field-independent basis, Debye):
    X=              0.6806    Y=             -2.9790    Z=              0.0000  Tot=              3.0558
 Quadrupole moment (field-independent basis, Debye-Ang):
   XX=             -9.4466   YY=             -7.5027   ZZ=            -14.7180
   XY=              6.2186   XZ=              0.0000   YZ=              0.0000

 Normal termination of Gaussian 16 at Fri Aug 26 21:20:14 2022.
