 Gaussian 16, Revision A.03,
 Gaussian 16:  ES64L-G16RevA.03 25-Dec-2016

 ------------------
 #p CCSD(T)/cc-pVTZ
 ------------------

 ------------
 H2O_H2O_1030
 ------------
 Symbolic Z-matrix:
 Charge =  0 Multiplicity = 1

                         Standard orientation:
 ---------------------------------------------------------------------
 Center     Atomic      Atomic             Coordinates (Angstroms)
 Number     Number       Type             X           Y           Z
 ---------------------------------------------------------------------
      1          8           0        0.079875   -1.509970    0.000000
      2          1           0        0.079098   -0.527369    0.000000
      3          1           0       -0.849366   -1.829371    0.000000
      4          8           0        0.079875    1.350955    0.000000
      5          1           0        0.394986    2.281659    0.000000
      6          1           0       -0.902720    1.347199    0.000000
 ---------------------------------------------------------------------

 SCF Done:  E(RHF) =  -152.110242635     A.U. after   10 cycles
 E2 =    -0.5289716250D+00 EUMP2 =    -0.15263921426027D+03
 CCSD(T)
 CCSD(T)= -0.15266612000D+03

 The electronic state is 1-A'.
 Alpha  occ. eigenvalues --  -20.58708 -20.52618  -1.36260  -1.30200  -0.73947
 Alpha  occ. eigenvalues --   -0.68166  -0.59589  -0.53322  -0.53251  -0.47284
 Alpha virt. eigenvalues --    0.11572   0.16826   0.19941   0.31057   0.48403
 Alpha virt. eigenvalues --    0.54271   0.58593   0.59665   0.69323   0.72506
 Alpha virt. eigenvalues --    0.74542   0.77076   0.81267   0.82202   0.83838

 Mulliken charges:
               1
     1  O   -0.548231
     2  H    0.288831
     3  H    0.233390
     4  O   -0.458868
     5  H    0.240503
     6  H    0.244375
 Sum of Mulliken charges =  -0.00000

 Dipole moment (field-independent basis, Debye):
    X=             -2.6318    Y=              3.3263    Z=              0.0000  Tot=              4.2415
 Quadrupole moment (field-independent basis, Debye-Ang):
   XX=            -10.1396   YY=             -8.8465   ZZ=            -14.7087
   XY=              2.7804   XZ=              0.0000   YZ=              0.0000

 CCSD(T)=-152.66612\RMSD=7.838e-09\PG=CS [SG(H4O2)]\\@
 Normal termination of Gaussian 16 at Fri Aug 26 22:01:06 2022.
