 Gaussian 16, Revision A.03,
 Gaussian 16:  ES64L-G16RevA.03 25-Dec-2016

 ------------------
 #p CCSD(T)/cc-pVTZ
 ------------------

 ------------
 H2O_H2O_3147
 ------------
 Symbolic Z-matrix:
 Charge =  0 Multiplicity = 1

                         Standard orientation:
 ---------------------------------------------------------------------
 Center     Atomic      Atomic             Coordinates (Angstroms)
 Number     Number       Type             X           Y           Z
 ---------------------------------------------------------------------
      1          8           0       -0.019861    2.352012    0.000000
      2          1           0       -0.017126    1.369414    0.000000
      3          1           0        0.908742    2.673264    0.000000
      4          8           0       -0.019861   -2.184908    0.000000
      5          1           0       -0.993695   -2.315874    0.000000
      6          1           0        0.419850   -3.063635    0.000000
 ---------------------------------------------------------------------

 SCF Done:  E(RHF) =  -152.109638126     A.U. after   10 cycles
 E2 =    -0.5258927542D+00 EUMP2 =    -0.15263553087996D+03
 CCSD(T)
 CCSD(T)= -0.15266268336D+03

 The electronic state is 1-A'.
 Alpha  occ. eigenvalues --  -20.56563 -20.54643  -1.33851  -1.31961  -0.71256
 Alpha  occ. eigenvalues --   -0.69366  -0.57385  -0.55450  -0.50978  -0.49096
 Alpha virt. eigenvalues --    0.12407   0.15799   0.19308   0.22689   0.53518
 Alpha virt. eigenvalues --    0.55491   0.56467   0.58195   0.67714   0.69342
 Alpha virt. eigenvalues --    0.77919   0.78749   0.79739   0.80386   0.83093

 Mulliken charges:
               1
     1  O   -0.519177
     2  H    0.262743
     3  H    0.254320
     4  O   -0.515477
     5  H    0.258791
     6  H    0.258801
 Sum of Mulliken charges =   0.00000

 Dipole moment (field-independent basis, Debye):
    X=              0.6806    Y=             -2.9945    Z=              0.0000  Tot=              3.0708
 Quadrupole moment (field-independent basis, Debye-Ang):
   XX=             -9.4467   YY=             -7.6047   ZZ=            -14.7190
   XY=              5.9922   XZ=              0.0000   YZ=              0.0000

 Normal termination of Gaussian 16 at Fri Aug 26 20:04:10 2022.
