 Gaussian 16, Revision A.03,
 Gaussian 16:  ES64L-G16RevA.03 25-Dec-2016

 ------------------
 #p CCSD(T)/cc-pVTZ
 ------------------

 ------------
 H2O_H2O_1327
 ------------
 Symbolic Z-matrix:
 Charge =  0 Multiplicity = 1

                         Standard orientation:
 ---------------------------------------------------------------------
 Center     Atomic      Atomic             Coordinates (Angstroms)
 Number     Number       Type             X           Y           Z
 ---------------------------------------------------------------------
      1          8           0        0.088238   -1.621641    0.000000
      2          1           0        0.087979   -0.639039    0.000000
      3          1           0       -0.841172   -1.940552    0.000000
      4          8           0        0.088238    1.477336    0.000000
      5          1           0        0.216237    2.451565    0.000000
      6          1           0       -0.874847    1.282466    0.000000
 ---------------------------------------------------------------------

 SCF Done:  E(RHF) =  -152.109736327     A.U. after   10 cycles
 E2 =    -0.5280348990D+00 EUMP2 =    -0.15263777122565D+03
 CCSD(T)
 CCSD(T)= -0.15266481250D+03

 The electronic state is 1-A'.
 Alpha  occ. eigenvalues --  -20.58129 -20.53858  -1.35536  -1.31269  -0.73298
 Alpha  occ. eigenvalues --   -0.68592  -0.59047  -0.54579  -0.52574  -0.48365
 Alpha virt. eigenvalues --    0.11553   0.16487   0.20252   0.28938   0.49251
 Alpha virt. eigenvalues --    0.54326   0.57930   0.58618   0.68368   0.73178
 Alpha virt. eigenvalues --    0.74553   0.77619   0.81023   0.81725   0.83474

 Mulliken charges:
               1
     1  O   -0.528607
     2  H    0.277285
     3  H    0.237475
     4  O   -0.473605
     5  H    0.244702
     6  H    0.242750
 Sum of Mulliken charges =  -0.00000

 Dipole moment (field-independent basis, Debye):
    X=             -2.9352    Y=              2.8760    Z=              0.0000  Tot=              4.1093
 Quadrupole moment (field-independent basis, Debye-Ang):
   XX=            -10.6029   YY=             -8.9125   ZZ=            -14.7115
   XY=              2.4339   XZ=              0.0000   YZ=              0.0000

 Normal termination of Gaussian 16 at Fri Aug 26 23:52:52 2022.
