 Gaussian 16, Revision A.03,
 Gaussian 16:  ES64L-G16RevA.03 25-Dec-2016

 ------------------
 #p CCSD(T)/cc-pVTZ
 ------------------

 -----------
 H2O_H2O_562
 -----------
 Symbolic Z-matrix:
 Charge =  0 Multiplicity = 1

                         Standard orientation:
 ---------------------------------------------------------------------
 Center     Atomic      Atomic             Coordinates (Angstroms)
 Number     Number       Type             X           Y           Z
 ---------------------------------------------------------------------
      1          8           0        0.056094    1.331246   -0.000000
      2          1           0        0.053567    0.348648   -0.000000
      3          1           0       -0.872577    1.652301   -0.000000
      4          8           0        0.056094   -1.152468    0.000000
      5          1           0        0.749109   -1.849056    0.000000
      6          1           0       -0.827596   -1.582117    0.000000
 ---------------------------------------------------------------------

 SCF Done:  E(RHF) =  -152.102901235     A.U. after   11 cycles
 E2 =    -0.5313545222D+00 EUMP2 =    -0.15263425575682D+03
 CCSD(T)
 CCSD(T)= -0.15266070537D+03

 The electronic state is 1-A'.
 Alpha  occ. eigenvalues --  -20.60039 -20.49294  -1.38326  -1.27627  -0.75134
 Alpha  occ. eigenvalues --   -0.70594  -0.58745  -0.55036  -0.49895  -0.44592
 Alpha virt. eigenvalues --    0.11296   0.17419   0.19855   0.33351   0.47714
 Alpha virt. eigenvalues --    0.53707   0.61320   0.61876   0.70906   0.72285
 Alpha virt. eigenvalues --    0.73359   0.78447   0.81085   0.82892   0.84187

 Mulliken charges:
               1
     1  O   -0.604527
     2  H    0.313024
     3  H    0.225662
     4  O   -0.440960
     5  H    0.256819
     6  H    0.249983
 Sum of Mulliken charges =   0.00000

 Dipole moment (field-independent basis, Debye):
    X=             -1.7976    Y=             -4.1937    Z=              0.0000  Tot=              4.5627
 Quadrupole moment (field-independent basis, Debye-Ang):
   XX=             -9.2786   YY=             -9.3316   ZZ=            -14.6809
   XY=             -3.0317   XZ=              0.0000   YZ=             -0.0000

 Normal termination of Gaussian 16 at Fri Aug 26 19:05:18 2022.
