 Gaussian 16, Revision A.03,
 Gaussian 16:  ES64L-G16RevA.03 25-Dec-2016

 ------------------
 #p CCSD(T)/cc-pVTZ
 ------------------

 ------------
 H2O_H2O_2097
 ------------
 Symbolic Z-matrix:
 Charge =  0 Multiplicity = 1

                         Standard orientation:
 ---------------------------------------------------------------------
 Center     Atomic      Atomic             Coordinates (Angstroms)
 Number     Number       Type             X           Y           Z
 ---------------------------------------------------------------------
      1          8           0       -0.019913    1.933181    0.000000
      2          1           0       -0.016560    0.950585    0.000000
      3          1           0        0.908487    2.255017    0.000000
      4          8           0       -0.019913   -1.766102    0.000000
      5          1           0       -0.993665   -1.897680    0.000000
      6          1           0        0.420352   -2.644551    0.000000
 ---------------------------------------------------------------------

 SCF Done:  E(RHF) =  -152.111844083     A.U. after   10 cycles
 E2 =    -0.5263120841D+00 EUMP2 =    -0.15263815616659D+03
 CCSD(T)
 CCSD(T)= -0.15266523506D+03

 The electronic state is 1-A'.
 Alpha  occ. eigenvalues --  -20.57223 -20.53986  -1.34492  -1.31336  -0.71905
 Alpha  occ. eigenvalues --   -0.68760  -0.58151  -0.54806  -0.51626  -0.48489
 Alpha virt. eigenvalues --    0.12221   0.16842   0.19218   0.25862   0.52911
 Alpha virt. eigenvalues --    0.54777   0.56101   0.58873   0.68850   0.72542
 Alpha virt. eigenvalues --    0.76490   0.78618   0.80454   0.83492   0.83665

 Mulliken charges:
               1
     1  O   -0.529507
     2  H    0.267027
     3  H    0.253397
     4  O   -0.510032
     5  H    0.260917
     6  H    0.258197
 Sum of Mulliken charges =  -0.00000

 Dipole moment (field-independent basis, Debye):
    X=              0.6800    Y=             -3.1210    Z=              0.0000  Tot=              3.1942
 Quadrupole moment (field-independent basis, Debye-Ang):
   XX=             -9.4481   YY=             -8.1030   ZZ=            -14.7266
   XY=              4.9348   XZ=              0.0000   YZ=              0.0000

 Normal termination of Gaussian 16 at Sun Aug 28 04:17:39 2022.
