 Gaussian 16, Revision A.03,
 Gaussian 16:  ES64L-G16RevA.03 25-Dec-2016

 ------------------
 #p CCSD(T)/cc-pVTZ
 ------------------

 ---------
 H2O_H2O_1
 ---------
 Symbolic Z-matrix:
 Charge =  0 Multiplicity = 1

                         Standard orientation:
 ---------------------------------------------------------------------
 Center     Atomic      Atomic             Coordinates (Angstroms)
 Number     Number       Type             X           Y           Z
 ---------------------------------------------------------------------
      1          8           0        0.090692   -1.090078    0.000000
      2          1           0        0.090504   -0.107477    0.000000
      3          1           0       -0.838740   -1.408923    0.000000
      4          8           0        0.090692    0.951389    0.000000
      5          1           0        0.154769    1.931899    0.000000
      6          1           0       -0.857604    0.694015    0.000000
 ---------------------------------------------------------------------

 SCF Done:  E(RHF) =  -152.003482452     A.U. after   11 cycles
 E2 =    -0.5404425342D+00 EUMP2 =    -0.15254392498582D+03
 CCSD(T)
 CCSD(T)= -0.15256928194D+03

 The electronic state is 1-A'.
 Alpha  occ. eigenvalues --  -20.61850 -20.46316  -1.45927  -1.26087  -0.85317
 Alpha  occ. eigenvalues --   -0.71576  -0.58888  -0.55676  -0.46866  -0.42832
 Alpha virt. eigenvalues --    0.10539   0.15601   0.22106   0.31119   0.49099
 Alpha virt. eigenvalues --    0.50432   0.60168   0.67344   0.70308   0.72344
 Alpha virt. eigenvalues --    0.74771   0.78769   0.80164   0.85615   0.87542

 Mulliken charges:
               1
     1  O   -0.612717
     2  H    0.241896
     3  H    0.178696
     4  O   -0.274995
     5  H    0.225016
     6  H    0.242105
 Sum of Mulliken charges =  -0.00000

 Dipole moment (field-independent basis, Debye):
    X=             -2.7869    Y=              4.1956    Z=              0.0000  Tot=              5.0368
 Quadrupole moment (field-independent basis, Debye-Ang):
   XX=            -10.6190   YY=            -10.1247   ZZ=            -14.4736
   XY=              1.9873   XZ=              0.0000   YZ=              0.0000

 Normal termination of Gaussian 16 at Fri Aug 26 15:11:52 2022.
