 Gaussian 16, Revision A.03,
 Gaussian 16:  ES64L-G16RevA.03 25-Dec-2016

 ------------------
 #p CCSD(T)/cc-pVTZ
 ------------------

 ------------
 H2O_H2O_3258
 ------------
 Symbolic Z-matrix:
 Charge =  0 Multiplicity = 1

                         Standard orientation:
 ---------------------------------------------------------------------
 Center     Atomic      Atomic             Coordinates (Angstroms)
 Number     Number       Type             X           Y           Z
 ---------------------------------------------------------------------
      1          8           0        0.070197    2.403571    0.000000
      2          1           0        0.069364    1.420970    0.000000
      3          1           0       -0.859026    2.723026   -0.000000
      4          8           0        0.070197   -2.233324    0.000000
      5          1           0        0.560777   -3.084698    0.000000
      6          1           0       -0.894261   -2.421280   -0.000000
 ---------------------------------------------------------------------

 SCF Done:  E(RHF) =  -152.109039243     A.U. after   10 cycles
 E2 =    -0.5259316316D+00 EUMP2 =    -0.15263497087460D+03
 CCSD(T)
 CCSD(T)= -0.15266213596D+03

 The electronic state is 1-A'.
 Alpha  occ. eigenvalues --  -20.56540 -20.54702  -1.33828  -1.32015  -0.71238
 Alpha  occ. eigenvalues --   -0.69403  -0.57337  -0.55488  -0.50950  -0.49140
 Alpha virt. eigenvalues --    0.12409   0.15627   0.19444   0.22184   0.53466
 Alpha virt. eigenvalues --    0.55154   0.56375   0.58276   0.67421   0.69309
 Alpha virt. eigenvalues --    0.77956   0.78748   0.79703   0.80118   0.82973

 Mulliken charges:
               1
     1  O   -0.515104
     2  H    0.262615
     3  H    0.250713
     4  O   -0.513192
     5  H    0.260042
     6  H    0.254925
 Sum of Mulliken charges =  -0.00000

 Dipole moment (field-independent basis, Debye):
    X=             -2.3958    Y=             -3.0443    Z=             -0.0000  Tot=              3.8740
 Quadrupole moment (field-independent basis, Debye-Ang):
   XX=             -9.6838   YY=             -7.4333   ZZ=            -14.7169
   XY=             -3.8020   XZ=              0.0000   YZ=             -0.0000

 Normal termination of Gaussian 16 at Fri Aug 26 20:40:55 2022.
