 Gaussian 16, Revision A.03,
 Gaussian 16:  ES64L-G16RevA.03 25-Dec-2016

 ------------------
 #p CCSD(T)/cc-pVTZ
 ------------------

 ------------
 H2O_H2O_3946
 ------------
 Symbolic Z-matrix:
 Charge =  0 Multiplicity = 1

                         Standard orientation:
 ---------------------------------------------------------------------
 Center     Atomic      Atomic             Coordinates (Angstroms)
 Number     Number       Type             X           Y           Z
 ---------------------------------------------------------------------
      1          8           0       -0.023181    2.672903    0.000000
      2          1           0       -0.020894    1.690304    0.000000
      3          1           0        0.905568    2.993732    0.000000
      4          8           0       -0.023181   -2.502501    0.000000
      5          1           0       -0.986454   -2.696440    0.000000
      6          1           0        0.472674   -3.350813    0.000000
 ---------------------------------------------------------------------

 SCF Done:  E(RHF) =  -152.108819801     A.U. after   10 cycles
 E2 =    -0.5258118911D+00 EUMP2 =    -0.15263463169210D+03
 CCSD(T)
 CCSD(T)= -0.15266181579D+03

 The electronic state is 1-A'.
 Alpha  occ. eigenvalues --  -20.56298 -20.54877  -1.33597  -1.32188  -0.71001
 Alpha  occ. eigenvalues --   -0.69592  -0.57104  -0.55667  -0.50718  -0.49315
 Alpha virt. eigenvalues --    0.12940   0.15225   0.19453   0.21554   0.53343
 Alpha virt. eigenvalues --    0.55082   0.56604   0.57851   0.66686   0.69066
 Alpha virt. eigenvalues --    0.78175   0.79042   0.79533   0.80379   0.82829

 Mulliken charges:
               1
     1  O   -0.515830
     2  H    0.261012
     3  H    0.254341
     4  O   -0.515979
     5  H    0.258105
     6  H    0.258351
 Sum of Mulliken charges =  -0.00000

 Dipole moment (field-independent basis, Debye):
    X=              0.7950    Y=             -3.0085    Z=              0.0000  Tot=              3.1118
 Quadrupole moment (field-independent basis, Debye-Ang):
   XX=             -9.3615   YY=             -7.0720   ZZ=            -14.7162
   XY=              6.5909   XZ=              0.0000   YZ=              0.0000

 Normal termination of Gaussian 16 at Sat Aug 27 00:37:17 2022.
