 Gaussian 16, Revision A.03,
 Gaussian 16:  ES64L-G16RevA.03 25-Dec-2016

 ------------------
 #p CCSD(T)/cc-pVTZ
 ------------------

 ------------
 H2O_H2O_1213
 ------------
 Symbolic Z-matrix:
 Charge =  0 Multiplicity = 1

                         Standard orientation:
 ---------------------------------------------------------------------
 Center     Atomic      Atomic             Coordinates (Angstroms)
 Number     Number       Type             X           Y           Z
 ---------------------------------------------------------------------
      1          8           0        0.052369    1.591074    0.000000
      2          1           0        0.050071    0.608475    0.000000
      3          1           0       -0.876376    1.911913    0.000000
      4          8           0        0.052369   -1.411265   -0.000000
      5          1           0        0.789611   -2.060866   -0.000000
      6          1           0       -0.801215   -1.897988   -0.000000
 ---------------------------------------------------------------------

 SCF Done:  E(RHF) =  -152.113973496     A.U. after   10 cycles
 E2 =    -0.5279027429D+00 EUMP2 =    -0.15264187623915D+03
 CCSD(T)
 CCSD(T)= -0.15266880482D+03

 The electronic state is 1-A'.
 Alpha  occ. eigenvalues --  -20.58425 -20.52272  -1.35794  -1.29826  -0.73076
 Alpha  occ. eigenvalues --   -0.67933  -0.59508  -0.53017  -0.52895  -0.46958
 Alpha virt. eigenvalues --    0.11906   0.17764   0.19021   0.30739   0.48890
 Alpha virt. eigenvalues --    0.54812   0.56469   0.59991   0.69426   0.71618
 Alpha virt. eigenvalues --    0.73274   0.76988   0.82125   0.82687   0.84925

 Mulliken charges:
               1
     1  O   -0.553474
     2  H    0.288637
     3  H    0.241774
     4  O   -0.500132
     5  H    0.265103
     6  H    0.258092
 Sum of Mulliken charges =  -0.00000

 Dipole moment (field-independent basis, Debye):
    X=             -1.7405    Y=             -3.6559    Z=             -0.0000  Tot=              4.0491
 Quadrupole moment (field-independent basis, Debye-Ang):
   XX=             -9.2324   YY=             -8.5394   ZZ=            -14.7324
   XY=             -3.4790   XZ=             -0.0000   YZ=              0.0000

 Normal termination of Gaussian 16 at Fri Aug 26 23:09:55 2022.
