 Gaussian 16, Revision A.03,
 Gaussian 16:  ES64L-G16RevA.03 25-Dec-2016

 ------------------
 #p CCSD(T)/cc-pVTZ
 ------------------

 -----------
 H2O_H2O_519
 -----------
 Symbolic Z-matrix:
 Charge =  0 Multiplicity = 1

                         Standard orientation:
 ---------------------------------------------------------------------
 Center     Atomic      Atomic             Coordinates (Angstroms)
 Number     Number       Type             X           Y           Z
 ---------------------------------------------------------------------
      1          8           0        0.030368    1.309520    0.000000
      2          1           0        0.026008    0.326928    0.000000
      3          1           0       -0.897702    1.632307    0.000000
      4          8           0        0.030368   -1.134036   -0.000000
      5          1           0        0.959413   -1.454008   -0.000000
      6          1           0       -0.573607   -1.909097   -0.000000
 ---------------------------------------------------------------------

 SCF Done:  E(RHF) =  -152.100430699     A.U. after   11 cycles
 E2 =    -0.5315777067D+00 EUMP2 =    -0.15263200840526D+03
 CCSD(T)
 CCSD(T)= -0.15265839216D+03

 The electronic state is 1-A'.
 Alpha  occ. eigenvalues --  -20.60130 -20.48896  -1.38620  -1.27357  -0.75691
 Alpha  occ. eigenvalues --   -0.70526  -0.58804  -0.55239  -0.49414  -0.44319
 Alpha virt. eigenvalues --    0.11384   0.17881   0.19641   0.33798   0.47378
 Alpha virt. eigenvalues --    0.53657   0.59428   0.67191   0.68938   0.72250
 Alpha virt. eigenvalues --    0.74067   0.78014   0.80269   0.83580   0.83874

 Mulliken charges:
               1
     1  O   -0.617708
     2  H    0.306852
     3  H    0.233696
     4  O   -0.428791
     5  H    0.261833
     6  H    0.244119
 Sum of Mulliken charges =  -0.00000

 Dipole moment (field-independent basis, Debye):
    X=             -0.9773    Y=             -4.1960    Z=             -0.0000  Tot=              4.3083
 Quadrupole moment (field-independent basis, Debye-Ang):
   XX=             -9.1913   YY=             -9.3975   ZZ=            -14.6728
   XY=             -3.1588   XZ=             -0.0000   YZ=              0.0000

 Normal termination of Gaussian 16 at Fri Aug 26 18:47:51 2022.
