 Gaussian 16, Revision A.03,
 Gaussian 16:  ES64L-G16RevA.03 25-Dec-2016

 ------------------
 #p CCSD(T)/cc-pVTZ
 ------------------

 ------------
 H2O_H2O_2012
 ------------
 Symbolic Z-matrix:
 Charge =  0 Multiplicity = 1

                         Standard orientation:
 ---------------------------------------------------------------------
 Center     Atomic      Atomic             Coordinates (Angstroms)
 Number     Number       Type             X           Y           Z
 ---------------------------------------------------------------------
      1          8           0        0.056021    1.909662    0.000000
      2          1           0        0.054297    0.927062    0.000000
      3          1           0       -0.872912    2.229959    0.000000
      4          8           0        0.056021   -1.730793   -0.000000
      5          1           0        0.749605   -2.426815   -0.000000
      6          1           0       -0.827318   -2.161164   -0.000000
 ---------------------------------------------------------------------

 SCF Done:  E(RHF) =  -152.112075577     A.U. after   10 cycles
 E2 =    -0.5264394877D+00 EUMP2 =    -0.15263851506504D+03
 CCSD(T)
 CCSD(T)= -0.15266558267D+03

 The electronic state is 1-A'.
 Alpha  occ. eigenvalues --  -20.57352 -20.53730  -1.34605  -1.31087  -0.71992
 Alpha  occ. eigenvalues --   -0.68508  -0.58282  -0.54541  -0.51742  -0.48235
 Alpha virt. eigenvalues --    0.12161   0.16901   0.19217   0.26125   0.51506
 Alpha virt. eigenvalues --    0.55243   0.56296   0.58923   0.69011   0.72316
 Alpha virt. eigenvalues --    0.76277   0.77685   0.80691   0.83418   0.84131

 Mulliken charges:
               1
     1  O   -0.527903
     2  H    0.269335
     3  H    0.247632
     4  O   -0.507245
     5  H    0.261888
     6  H    0.256293
 Sum of Mulliken charges =  -0.00000

 Dipole moment (field-independent basis, Debye):
    X=             -1.8935    Y=             -3.3633    Z=             -0.0000  Tot=              3.8596
 Quadrupole moment (field-independent basis, Debye-Ang):
   XX=             -9.2936   YY=             -7.8885   ZZ=            -14.7279
   XY=             -3.8474   XZ=             -0.0000   YZ=             -0.0000

 Normal termination of Gaussian 16 at Sun Aug 28 03:37:27 2022.
