 Gaussian 16, Revision A.03,
 Gaussian 16:  ES64L-G16RevA.03 25-Dec-2016

 ------------------
 #p CCSD(T)/cc-pVTZ
 ------------------

 -----------
 H2O_H2O_818
 -----------
 Symbolic Z-matrix:
 Charge =  0 Multiplicity = 1

                         Standard orientation:
 ---------------------------------------------------------------------
 Center     Atomic      Atomic             Coordinates (Angstroms)
 Number     Number       Type             X           Y           Z
 ---------------------------------------------------------------------
      1          8           0        0.033928    1.430231   -0.000000
      2          1           0        0.030185    0.447636   -0.000000
      3          1           0       -0.894344    1.752435   -0.000000
      4          8           0        0.033928   -1.252813    0.000000
      5          1           0        0.940295   -1.632293    0.000000
      6          1           0       -0.618985   -1.987123    0.000000
 ---------------------------------------------------------------------

 SCF Done:  E(RHF) =  -152.111058270     A.U. after   10 cycles
 E2 =    -0.5295040186D+00 EUMP2 =    -0.15264056228836D+03
 CCSD(T)
 CCSD(T)= -0.15266727639D+03

 The electronic state is 1-A'.
 Alpha  occ. eigenvalues --  -20.59256 -20.50738  -1.36997  -1.28646  -0.74163
 Alpha  occ. eigenvalues --   -0.68609  -0.59721  -0.53957  -0.51379  -0.45722
 Alpha virt. eigenvalues --    0.11732   0.18301   0.18956   0.32929   0.48061
 Alpha virt. eigenvalues --    0.54408   0.57514   0.63684   0.68538   0.72430
 Alpha virt. eigenvalues --    0.72466   0.77740   0.81663   0.83142   0.84415

 Mulliken charges:
               1
     1  O   -0.586828
     2  H    0.304073
     3  H    0.240328
     4  O   -0.474351
     5  H    0.264610
     6  H    0.252169
 Sum of Mulliken charges =  -0.00000

 Dipole moment (field-independent basis, Debye):
    X=             -1.1131    Y=             -3.8968    Z=              0.0000  Tot=              4.0526
 Quadrupole moment (field-independent basis, Debye-Ang):
   XX=             -9.1700   YY=             -8.9927   ZZ=            -14.7122
   XY=             -3.4021   XZ=              0.0000   YZ=             -0.0000

 Normal termination of Gaussian 16 at Fri Aug 26 20:42:14 2022.
