 Gaussian 16, Revision A.03,
 Gaussian 16:  ES64L-G16RevA.03 25-Dec-2016

 ------------------
 #p CCSD(T)/cc-pVTZ
 ------------------

 ------------
 H2O_H2O_3455
 ------------
 Symbolic Z-matrix:
 Charge =  0 Multiplicity = 1

                         Standard orientation:
 ---------------------------------------------------------------------
 Center     Atomic      Atomic             Coordinates (Angstroms)
 Number     Number       Type             X           Y           Z
 ---------------------------------------------------------------------
      1          8           0        0.079850    2.477272    0.000000
      2          1           0        0.079386    1.494671    0.000000
      3          1           0       -0.849493    2.796377    0.000000
      4          8           0        0.079850   -2.318207   -0.000000
      5          1           0        0.395258   -3.248810   -0.000000
      6          1           0       -0.902746   -2.314764   -0.000000
 ---------------------------------------------------------------------

 SCF Done:  E(RHF) =  -152.108516247     A.U. after   10 cycles
 E2 =    -0.5259247001D+00 EUMP2 =    -0.15263444094692D+03
 CCSD(T)
 CCSD(T)= -0.15266162237D+03

 The electronic state is 1-A'.
 Alpha  occ. eigenvalues --  -20.56467 -20.54911  -1.33761  -1.32219  -0.71176
 Alpha  occ. eigenvalues --   -0.69608  -0.57250  -0.55684  -0.50877  -0.49339
 Alpha virt. eigenvalues --    0.12299   0.15417   0.19326   0.22076   0.53415
 Alpha virt. eigenvalues --    0.55062   0.56427   0.58105   0.67029   0.69174
 Alpha virt. eigenvalues --    0.78028   0.78654   0.79515   0.80718   0.82761

 Mulliken charges:
               1
     1  O   -0.512816
     2  H    0.260998
     3  H    0.250746
     4  O   -0.512400
     5  H    0.259837
     6  H    0.253633
 Sum of Mulliken charges =  -0.00000

 Dipole moment (field-independent basis, Debye):
    X=             -2.7274    Y=             -2.8306    Z=             -0.0000  Tot=              3.9308
 Quadrupole moment (field-independent basis, Debye-Ang):
   XX=            -10.0992   YY=             -7.8606   ZZ=            -14.7150
   XY=             -3.2623   XZ=             -0.0000   YZ=              0.0000

 Normal termination of Gaussian 16 at Fri Aug 26 21:47:36 2022.
