 Gaussian 16, Revision A.03,
 Gaussian 16:  ES64L-G16RevA.03 25-Dec-2016

 ------------------
 #p CCSD(T)/cc-pVTZ
 ------------------

 -----------
 H2O_H2O_449
 -----------
 Symbolic Z-matrix:
 Charge =  0 Multiplicity = 1

                         Standard orientation:
 ---------------------------------------------------------------------
 Center     Atomic      Atomic             Coordinates (Angstroms)
 Number     Number       Type             X           Y           Z
 ---------------------------------------------------------------------
      1          8           0        0.013736   -1.270757    0.000000
      2          1           0        0.008079   -0.288172    0.000000
      3          1           0       -0.913906   -1.594770    0.000000
      4          8           0        0.013736    1.111570    0.000000
      5          1           0        0.996322    1.117228    0.000000
      6          1           0       -0.310277    2.039213    0.000000
 ---------------------------------------------------------------------

 SCF Done:  E(RHF) =  -152.092536887     A.U. after   11 cycles
 E2 =    -0.5325871690D+00 EUMP2 =    -0.15262512405607D+03
 CCSD(T)
 CCSD(T)= -0.15265141583D+03

 The electronic state is 1-A'.
 Alpha  occ. eigenvalues --  -20.60230 -20.49014  -1.39221  -1.27541  -0.77546
 Alpha  occ. eigenvalues --   -0.69292  -0.59250  -0.55525  -0.49440  -0.44508
 Alpha virt. eigenvalues --    0.11473   0.17935   0.19728   0.34147   0.47835
 Alpha virt. eigenvalues --    0.52867   0.58564   0.68261   0.71567   0.72004
 Alpha virt. eigenvalues --    0.74803   0.76667   0.78211   0.83831   0.84645

 Mulliken charges:
               1
     1  O   -0.623576
     2  H    0.292198
     3  H    0.241338
     4  O   -0.398906
     5  H    0.258165
     6  H    0.230781
 Sum of Mulliken charges =   0.00000

 Dipole moment (field-independent basis, Debye):
    X=             -0.4484    Y=              3.9348    Z=              0.0000  Tot=              3.9602
 Quadrupole moment (field-independent basis, Debye-Ang):
   XX=             -9.5795   YY=             -9.4630   ZZ=            -14.6465
   XY=              3.3578   XZ=              0.0000   YZ=              0.0000

 Normal termination of Gaussian 16 at Fri Aug 26 18:20:26 2022.
