 Gaussian 16, Revision A.03,
 Gaussian 16:  ES64L-G16RevA.03 25-Dec-2016

 ------------------
 #p CCSD(T)/cc-pVTZ
 ------------------

 -----------
 H2O_H2O_793
 -----------
 Symbolic Z-matrix:
 Charge =  0 Multiplicity = 1

                         Standard orientation:
 ---------------------------------------------------------------------
 Center     Atomic      Atomic             Coordinates (Angstroms)
 Number     Number       Type             X           Y           Z
 ---------------------------------------------------------------------
      1          8           0        0.033931    1.420258   -0.000000
      2          1           0        0.030160    0.437664   -0.000000
      3          1           0       -0.894333    1.742489   -0.000000
      4          8           0        0.033931   -1.242842    0.000000
      5          1           0        0.940287   -1.622348    0.000000
      6          1           0       -0.619003   -1.977133    0.000000
 ---------------------------------------------------------------------

 SCF Done:  E(RHF) =  -152.110576793     A.U. after   10 cycles
 E2 =    -0.5296460050D+00 EUMP2 =    -0.15264022279789D+03
 CCSD(T)
 CCSD(T)= -0.15266691612D+03

 The electronic state is 1-A'.
 Alpha  occ. eigenvalues --  -20.59322 -20.50609  -1.37102  -1.28551  -0.74252
 Alpha  occ. eigenvalues --   -0.68723  -0.59683  -0.54046  -0.51241  -0.45620
 Alpha virt. eigenvalues --    0.11707   0.18270   0.19009   0.33029   0.47991
 Alpha virt. eigenvalues --    0.54360   0.57693   0.63891   0.68560   0.72442
 Alpha virt. eigenvalues --    0.72483   0.77783   0.81586   0.83184   0.84376

 Mulliken charges:
               1
     1  O   -0.589147
     2  H    0.304979
     3  H    0.239784
     4  O   -0.471828
     5  H    0.264421
     6  H    0.251791
 Sum of Mulliken charges =  -0.00000

 Dipole moment (field-independent basis, Debye):
    X=             -1.1116    Y=             -3.9204    Z=              0.0000  Tot=              4.0749
 Quadrupole moment (field-independent basis, Debye-Ang):
   XX=             -9.1688   YY=             -9.0240   ZZ=            -14.7099
   XY=             -3.3798   XZ=              0.0000   YZ=              0.0000

 Normal termination of Gaussian 16 at Fri Aug 26 20:32:47 2022.
