 Gaussian 16, Revision A.03,
 Gaussian 16:  ES64L-G16RevA.03 25-Dec-2016

 ------------------
 #p CCSD(T)/cc-pVTZ
 ------------------

 ------------
 H2O_H2O_4726
 ------------
 Symbolic Z-matrix:
 Charge =  0 Multiplicity = 1

                         Standard orientation:
 ---------------------------------------------------------------------
 Center     Atomic      Atomic             Coordinates (Angstroms)
 Number     Number       Type             X           Y           Z
 ---------------------------------------------------------------------
      1          8           0        0.090683   -2.974785    0.000000
      2          1           0        0.090617   -1.992183    0.000000
      3          1           0       -0.838788   -3.293514    0.000000
      4          8           0        0.090683    2.836073    0.000000
      5          1           0        0.154882    3.816575    0.000000
      6          1           0       -0.857645    2.578816    0.000000
 ---------------------------------------------------------------------

 SCF Done:  E(RHF) =  -152.107666077     A.U. after   10 cycles
 E2 =    -0.5258654420D+00 EUMP2 =    -0.15263353151867D+03
 CCSD(T)
 CCSD(T)= -0.15266074604D+03

 The electronic state is 1-A'.
 Alpha  occ. eigenvalues --  -20.56171 -20.55326  -1.33473  -1.32628  -0.70886
 Alpha  occ. eigenvalues --   -0.70026  -0.56933  -0.56080  -0.50584  -0.49741
 Alpha virt. eigenvalues --    0.13014   0.14642   0.19052   0.21376   0.53375
 Alpha virt. eigenvalues --    0.54746   0.56587   0.57618   0.67017   0.68359
 Alpha virt. eigenvalues --    0.78305   0.79132   0.79692   0.81039   0.81655

 Mulliken charges:
               1
     1  O   -0.509783
     2  H    0.257362
     3  H    0.252388
     4  O   -0.510690
     5  H    0.257901
     6  H    0.252823
 Sum of Mulliken charges =  -0.00000

 Dipole moment (field-independent basis, Debye):
    X=             -3.1117    Y=              2.4297    Z=              0.0000  Tot=              3.9479
 Quadrupole moment (field-independent basis, Debye-Ang):
   XX=            -10.6991   YY=             -8.8532   ZZ=            -14.7120
   XY=              2.4275   XZ=              0.0000   YZ=              0.0000

 Normal termination of Gaussian 16 at Sun Aug 28 05:25:16 2022.
