 Gaussian 16, Revision A.03,
 Gaussian 16:  ES64L-G16RevA.03 25-Dec-2016

 ------------------
 #p CCSD(T)/cc-pVTZ
 ------------------

 -----------
 H2O_H2O_734
 -----------
 Symbolic Z-matrix:
 Charge =  0 Multiplicity = 1

                         Standard orientation:
 ---------------------------------------------------------------------
 Center     Atomic      Atomic             Coordinates (Angstroms)
 Number     Number       Type             X           Y           Z
 ---------------------------------------------------------------------
      1          8           0        0.066823    1.397911   -0.000000
      2          1           0        0.065128    0.415311   -0.000000
      3          1           0       -0.862119    1.718180   -0.000000
      4          8           0        0.066823   -1.224903    0.000000
      5          1           0        0.611317   -2.042847    0.000000
      6          1           0       -0.883496   -1.474702    0.000000
 ---------------------------------------------------------------------

 SCF Done:  E(RHF) =  -152.107910099     A.U. after   10 cycles
 E2 =    -0.5303306064D+00 EUMP2 =    -0.15263824070508D+03
 CCSD(T)
 CCSD(T)= -0.15266490384D+03

 The electronic state is 1-A'.
 Alpha  occ. eigenvalues --  -20.59482 -20.50737  -1.37374  -1.28692  -0.74678
 Alpha  occ. eigenvalues --   -0.68973  -0.59463  -0.54244  -0.51393  -0.45726
 Alpha virt. eigenvalues --    0.11455   0.17236   0.19780   0.32794   0.48048
 Alpha virt. eigenvalues --    0.54037   0.59807   0.60912   0.70347   0.72319
 Alpha virt. eigenvalues --    0.73442   0.77557   0.80995   0.83279   0.84246

 Mulliken charges:
               1
     1  O   -0.580260
     2  H    0.305276
     3  H    0.228649
     4  O   -0.452224
     5  H    0.250544
     6  H    0.248014
 Sum of Mulliken charges =  -0.00000

 Dipole moment (field-independent basis, Debye):
    X=             -2.1684    Y=             -3.8639    Z=              0.0000  Tot=              4.4308
 Quadrupole moment (field-independent basis, Debye-Ang):
   XX=             -9.5786   YY=             -9.0715   ZZ=            -14.6967
   XY=             -3.0076   XZ=              0.0000   YZ=             -0.0000

 Normal termination of Gaussian 16 at Fri Aug 26 20:10:45 2022.
