 Gaussian 16, Revision A.03,
 Gaussian 16:  ES64L-G16RevA.03 25-Dec-2016

 ------------------
 #p CCSD(T)/cc-pVTZ
 ------------------

 ------------
 H2O_H2O_4299
 ------------
 Symbolic Z-matrix:
 Charge =  0 Multiplicity = 1

                         Standard orientation:
 ---------------------------------------------------------------------
 Center     Atomic      Atomic             Coordinates (Angstroms)
 Number     Number       Type             X           Y           Z
 ---------------------------------------------------------------------
      1          8           0       -0.013478    2.806468    0.000000
      2          1           0       -0.011007    1.823870    0.000000
      3          1           0        0.915210    3.127472    0.000000
      4          8           0       -0.013478   -2.647193    0.000000
      5          1           0       -0.996077   -2.649664    0.000000
      6          1           0        0.307525   -3.575881    0.000000
 ---------------------------------------------------------------------

 SCF Done:  E(RHF) =  -152.108507569     A.U. after   10 cycles
 E2 =    -0.5258026559D+00 EUMP2 =    -0.15263431022444D+03
 CCSD(T)
 CCSD(T)= -0.15266150549D+03

 The electronic state is 1-A'.
 Alpha  occ. eigenvalues --  -20.56217 -20.55054  -1.33519  -1.32362  -0.70926
 Alpha  occ. eigenvalues --   -0.69770  -0.57014  -0.55837  -0.50638  -0.49487
 Alpha virt. eigenvalues --    0.13043   0.14992   0.19296   0.21506   0.53313
 Alpha virt. eigenvalues --    0.55003   0.56650   0.57795   0.66758   0.68759
 Alpha virt. eigenvalues --    0.78249   0.79361   0.79369   0.80843   0.82529

 Mulliken charges:
               1
     1  O   -0.514677
     2  H    0.259470
     3  H    0.255030
     4  O   -0.515122
     5  H    0.256975
     6  H    0.258324
 Sum of Mulliken charges =  -0.00000

 Dipole moment (field-independent basis, Debye):
    X=              0.4641    Y=             -2.7990    Z=              0.0000  Tot=              2.8372
 Quadrupole moment (field-independent basis, Debye-Ang):
   XX=             -9.6482   YY=             -7.5409   ZZ=            -14.7150
   XY=              7.6032   XZ=              0.0000   YZ=              0.0000

 Normal termination of Gaussian 16 at Sun Aug 28 01:42:11 2022.
