 Gaussian 16, Revision A.03,
 Gaussian 16:  ES64L-G16RevA.03 25-Dec-2016

 ------------------
 #p CCSD(T)/cc-pVTZ
 ------------------

 ------------
 H2O_H2O_2087
 ------------
 Symbolic Z-matrix:
 Charge =  0 Multiplicity = 1

                         Standard orientation:
 ---------------------------------------------------------------------
 Center     Atomic      Atomic             Coordinates (Angstroms)
 Number     Number       Type             X           Y           Z
 ---------------------------------------------------------------------
      1          8           0        0.056018    1.939580   -0.000000
      2          1           0        0.054322    0.956980   -0.000000
      3          1           0       -0.872924    2.259850   -0.000000
      4          8           0        0.056018   -1.760707    0.000000
      5          1           0        0.749622   -2.456709    0.000000
      6          1           0       -0.827309   -2.191103    0.000000
 ---------------------------------------------------------------------

 SCF Done:  E(RHF) =  -152.111849032     A.U. after   10 cycles
 E2 =    -0.5263730205D+00 EUMP2 =    -0.15263822205263D+03
 CCSD(T)
 CCSD(T)= -0.15266529689D+03

 The electronic state is 1-A'.
 Alpha  occ. eigenvalues --  -20.57281 -20.53809  -1.34534  -1.31160  -0.71924
 Alpha  occ. eigenvalues --   -0.68571  -0.58194  -0.54621  -0.51671  -0.48306
 Alpha virt. eigenvalues --    0.12181   0.16822   0.19237   0.25770   0.51741
 Alpha virt. eigenvalues --    0.55327   0.56279   0.58925   0.68992   0.72180
 Alpha virt. eigenvalues --    0.76502   0.77864   0.80602   0.83466   0.83974

 Mulliken charges:
               1
     1  O   -0.526811
     2  H    0.268755
     3  H    0.247986
     4  O   -0.507619
     5  H    0.261522
     6  H    0.256168
 Sum of Mulliken charges =  -0.00000

 Dipole moment (field-independent basis, Debye):
    X=             -1.8952    Y=             -3.3480    Z=              0.0000  Tot=              3.8472
 Quadrupole moment (field-independent basis, Debye-Ang):
   XX=             -9.2929   YY=             -7.8355   ZZ=            -14.7269
   XY=             -3.8862   XZ=              0.0000   YZ=             -0.0000

 46922\MP4DQ=-152.647123\MP4SDQ=-152.6502028\CCSD=-152.6495956\CCSD(T)=
 Normal termination of Gaussian 16 at Sun Aug 28 04:13:38 2022.
