 Gaussian 16, Revision A.03,
 Gaussian 16:  ES64L-G16RevA.03 25-Dec-2016

 ------------------
 #p CCSD(T)/cc-pVTZ
 ------------------

 ------------
 H2O_H2O_2517
 ------------
 Symbolic Z-matrix:
 Charge =  0 Multiplicity = 1

                         Standard orientation:
 ---------------------------------------------------------------------
 Center     Atomic      Atomic             Coordinates (Angstroms)
 Number     Number       Type             X           Y           Z
 ---------------------------------------------------------------------
      1          8           0        0.037469    2.109144    0.000000
      2          1           0        0.035136    1.126545    0.000000
      3          1           0       -0.891265    2.430016    0.000000
      4          8           0        0.037469   -1.930199    0.000000
      5          1           0        0.917704   -2.366883    0.000000
      6          1           0       -0.661081   -2.621237    0.000000
 ---------------------------------------------------------------------

 SCF Done:  E(RHF) =  -152.110968720     A.U. after   10 cycles
 E2 =    -0.5260744209D+00 EUMP2 =    -0.15263704314127D+03
 CCSD(T)
 CCSD(T)= -0.15266415004D+03

 The electronic state is 1-A'.
 Alpha  occ. eigenvalues --  -20.56928 -20.54140  -1.34191  -1.31472  -0.71586
 Alpha  occ. eigenvalues --   -0.68873  -0.57790  -0.54962  -0.51328  -0.48618
 Alpha virt. eigenvalues --    0.12359   0.16445   0.19312   0.24128   0.52815
 Alpha virt. eigenvalues --    0.55538   0.56403   0.58875   0.69052   0.70627
 Alpha virt. eigenvalues --    0.77394   0.78752   0.80223   0.80877   0.83697

 Mulliken charges:
               1
     1  O   -0.523985
     2  H    0.266436
     3  H    0.251578
     4  O   -0.511902
     5  H    0.260523
     6  H    0.257350
 Sum of Mulliken charges =   0.00000

 Dipole moment (field-independent basis, Debye):
    X=             -1.2741    Y=             -3.2787    Z=              0.0000  Tot=              3.5176
 Quadrupole moment (field-independent basis, Debye-Ang):
   XX=             -9.1593   YY=             -7.5418   ZZ=            -14.7233
   XY=             -4.7078   XZ=              0.0000   YZ=              0.0000

 Normal termination of Gaussian 16 at Fri Aug 26 15:18:44 2022.
