 Gaussian 16, Revision A.03,
 Gaussian 16:  ES64L-G16RevA.03 25-Dec-2016

 ------------------
 #p CCSD(T)/cc-pVTZ
 ------------------

 ------------
 H2O_H2O_4357
 ------------
 Symbolic Z-matrix:
 Charge =  0 Multiplicity = 1

                         Standard orientation:
 ---------------------------------------------------------------------
 Center     Atomic      Atomic             Coordinates (Angstroms)
 Number     Number       Type             X           Y           Z
 ---------------------------------------------------------------------
      1          8           0        0.073525    2.840550   -0.000000
      2          1           0        0.072927    1.857949   -0.000000
      3          1           0       -0.855774    3.159782   -0.000000
      4          8           0        0.073525   -2.673589    0.000000
      5          1           0        0.507583   -3.555122    0.000000
      6          1           0       -0.901131   -2.798297    0.000000
 ---------------------------------------------------------------------

 SCF Done:  E(RHF) =  -152.108171889     A.U. after   10 cycles
 E2 =    -0.5258395586D+00 EUMP2 =    -0.15263401144785D+03
 CCSD(T)
 CCSD(T)= -0.15266121266D+03

 The electronic state is 1-A'.
 Alpha  occ. eigenvalues --  -20.56222 -20.55037  -1.33524  -1.32343  -0.70932
 Alpha  occ. eigenvalues --   -0.69740  -0.57005  -0.55807  -0.50639  -0.49462
 Alpha virt. eigenvalues --    0.13123   0.14914   0.19477   0.21193   0.53430
 Alpha virt. eigenvalues --    0.54903   0.56597   0.57785   0.66798   0.68759
 Alpha virt. eigenvalues --    0.78251   0.79368   0.79398   0.80576   0.82578

 Mulliken charges:
               1
     1  O   -0.512272
     2  H    0.259825
     3  H    0.252286
     4  O   -0.513255
     5  H    0.258751
     6  H    0.254665
 Sum of Mulliken charges =  -0.00000

 Dipole moment (field-independent basis, Debye):
    X=             -2.5202    Y=             -2.9345    Z=              0.0000  Tot=              3.8682
 Quadrupole moment (field-independent basis, Debye-Ang):
   XX=             -9.8094   YY=             -7.0800   ZZ=            -14.7139
   XY=             -3.9145   XZ=              0.0000   YZ=             -0.0000

 Normal termination of Gaussian 16 at Sun Aug 28 02:13:31 2022.
