 Gaussian 16, Revision A.03,
 Gaussian 16:  ES64L-G16RevA.03 25-Dec-2016

 ------------------
 #p CCSD(T)/cc-pVTZ
 ------------------

 ------------
 H2O_H2O_2314
 ------------
 Symbolic Z-matrix:
 Charge =  0 Multiplicity = 1

                         Standard orientation:
 ---------------------------------------------------------------------
 Center     Atomic      Atomic             Coordinates (Angstroms)
 Number     Number       Type             X           Y           Z
 ---------------------------------------------------------------------
      1          8           0        0.048608    2.030136   -0.000000
      2          1           0        0.046667    1.047537   -0.000000
      3          1           0       -0.880253    2.350639   -0.000000
      4          8           0        0.048608   -1.849775    0.000000
      5          1           0        0.826975   -2.449485    0.000000
      6          1           0       -0.771119   -2.391581    0.000000
 ---------------------------------------------------------------------

 SCF Done:  E(RHF) =  -152.111385367     A.U. after   10 cycles
 E2 =    -0.5261927620D+00 EUMP2 =    -0.15263757812887D+03
 CCSD(T)
 CCSD(T)= -0.15266467022D+03

 The electronic state is 1-A'.
 Alpha  occ. eigenvalues --  -20.57086 -20.53974  -1.34342  -1.31314  -0.71733
 Alpha  occ. eigenvalues --   -0.68715  -0.57967  -0.54794  -0.51479  -0.48461
 Alpha virt. eigenvalues --    0.12289   0.16637   0.19272   0.24843   0.52311
 Alpha virt. eigenvalues --    0.55450   0.56344   0.59005   0.69025   0.71523
 Alpha virt. eigenvalues --    0.77053   0.78290   0.80402   0.82264   0.83608

 Mulliken charges:
               1
     1  O   -0.525123
     2  H    0.267555
     3  H    0.249739
     4  O   -0.509726
     5  H    0.260903
     6  H    0.256652
 Sum of Mulliken charges =  -0.00000

 Dipole moment (field-independent basis, Debye):
    X=             -1.6488    Y=             -3.3359    Z=              0.0000  Tot=              3.7212
 Quadrupole moment (field-independent basis, Debye-Ang):
   XX=             -9.1850   YY=             -7.6422   ZZ=            -14.7249
   XY=             -4.2258   XZ=              0.0000   YZ=             -0.0000

 Normal termination of Gaussian 16 at Sun Aug 28 06:15:20 2022.
