 Gaussian 16, Revision A.03,
 Gaussian 16:  ES64L-G16RevA.03 25-Dec-2016

 ------------------
 #p CCSD(T)/cc-pVTZ
 ------------------

 -----------
 H2O_H2O_709
 -----------
 Symbolic Z-matrix:
 Charge =  0 Multiplicity = 1

                         Standard orientation:
 ---------------------------------------------------------------------
 Center     Atomic      Atomic             Coordinates (Angstroms)
 Number     Number       Type             X           Y           Z
 ---------------------------------------------------------------------
      1          8           0        0.066824    1.387938   -0.000000
      2          1           0        0.065116    0.405338   -0.000000
      3          1           0       -0.862113    1.708220   -0.000000
      4          8           0        0.066824   -1.214932    0.000000
      5          1           0        0.611307   -2.032883    0.000000
      6          1           0       -0.883498   -1.464718    0.000000
 ---------------------------------------------------------------------

 SCF Done:  E(RHF) =  -152.107237929     A.U. after   10 cycles
 E2 =    -0.5305004810D+00 EUMP2 =    -0.15263773840991D+03
 CCSD(T)
 CCSD(T)= -0.15266437723D+03

 The electronic state is 1-A'.
 Alpha  occ. eigenvalues --  -20.59553 -20.50600  -1.37495  -1.28593  -0.74791
 Alpha  occ. eigenvalues --   -0.69104  -0.59401  -0.54342  -0.51252  -0.45619
 Alpha virt. eigenvalues --    0.11429   0.17219   0.19816   0.32865   0.48047
 Alpha virt. eigenvalues --    0.53974   0.59866   0.61134   0.70462   0.72301
 Alpha virt. eigenvalues --    0.73452   0.77644   0.80892   0.83339   0.84228

 Mulliken charges:
               1
     1  O   -0.582411
     2  H    0.305844
     3  H    0.227891
     4  O   -0.449073
     5  H    0.250117
     6  H    0.247633
 Sum of Mulliken charges =  -0.00000

 Dipole moment (field-independent basis, Debye):
    X=             -2.1648    Y=             -3.8892    Z=              0.0000  Tot=              4.4511
 Quadrupole moment (field-independent basis, Debye-Ang):
   XX=             -9.5777   YY=             -9.1020   ZZ=            -14.6939
   XY=             -2.9955   XZ=              0.0000   YZ=             -0.0000

 Normal termination of Gaussian 16 at Fri Aug 26 19:59:44 2022.
