 Gaussian 16, Revision A.03,
 Gaussian 16:  ES64L-G16RevA.03 25-Dec-2016

 ------------------
 #p CCSD(T)/cc-pVTZ
 ------------------

 ------------
 H2O_H2O_3224
 ------------
 Symbolic Z-matrix:
 Charge =  0 Multiplicity = 1

                         Standard orientation:
 ---------------------------------------------------------------------
 Center     Atomic      Atomic             Coordinates (Angstroms)
 Number     Number       Type             X           Y           Z
 ---------------------------------------------------------------------
      1          8           0       -0.013516    2.377670    0.000000
      2          1           0       -0.010583    1.395073    0.000000
      3          1           0        0.915022    2.699109    0.000000
      4          8           0       -0.013516   -2.218407    0.000000
      5          1           0       -0.996113   -2.221340    0.000000
      6          1           0        0.307924   -3.146945    0.000000
 ---------------------------------------------------------------------

 SCF Done:  E(RHF) =  -152.109411763     A.U. after   10 cycles
 E2 =    -0.5258816577D+00 EUMP2 =    -0.15263529342058D+03
 CCSD(T)
 CCSD(T)= -0.15266245389D+03

 The electronic state is 1-A'.
 Alpha  occ. eigenvalues --  -20.56524 -20.54768  -1.33817  -1.32083  -0.71226
 Alpha  occ. eigenvalues --   -0.69492  -0.57342  -0.55571  -0.50941  -0.49217
 Alpha virt. eigenvalues --    0.12311   0.15706   0.19200   0.22775   0.53573
 Alpha virt. eigenvalues --    0.55497   0.56471   0.58079   0.67468   0.69305
 Alpha virt. eigenvalues --    0.77957   0.78636   0.79624   0.80771   0.83010

 Mulliken charges:
               1
     1  O   -0.518452
     2  H    0.261730
     3  H    0.255029
     4  O   -0.515505
     5  H    0.258021
     6  H    0.259176
 Sum of Mulliken charges =  -0.00000

 Dipole moment (field-independent basis, Debye):
    X=              0.4657    Y=             -2.8465    Z=              0.0000  Tot=              2.8843
 Quadrupole moment (field-independent basis, Debye-Ang):
   XX=             -9.6479   YY=             -7.9093   ZZ=            -14.7181
   XY=              6.4296   XZ=              0.0000   YZ=              0.0000

 CCSD(T)=-152.6624539\RMSD=6.933e-09\PG=CS [SG(H4O2)]\\@
 Normal termination of Gaussian 16 at Fri Aug 26 20:29:36 2022.
