 Gaussian 16, Revision A.03,
 Gaussian 16:  ES64L-G16RevA.03 25-Dec-2016

 ------------------
 #p CCSD(T)/cc-pVTZ
 ------------------

 ------------
 H2O_H2O_1930
 ------------
 Symbolic Z-matrix:
 Charge =  0 Multiplicity = 1

                         Standard orientation:
 ---------------------------------------------------------------------
 Center     Atomic      Atomic             Coordinates (Angstroms)
 Number     Number       Type             X           Y           Z
 ---------------------------------------------------------------------
      1          8           0        0.079862    1.868972    0.000000
      2          1           0        0.079241    0.886371    0.000000
      3          1           0       -0.849429    2.188226    0.000000
      4          8           0        0.079862   -1.709932    0.000000
      5          1           0        0.395121   -2.640586    0.000000
      6          1           0       -0.902732   -1.706331    0.000000
 ---------------------------------------------------------------------

 SCF Done:  E(RHF) =  -152.110736546     A.U. after   10 cycles
 E2 =    -0.5266627671D+00 EUMP2 =    -0.15263739931272D+03
 CCSD(T)
 CCSD(T)= -0.15266448665D+03

 The electronic state is 1-A'.
 Alpha  occ. eigenvalues --  -20.57404 -20.54156  -1.34683  -1.31497  -0.72140
 Alpha  occ. eigenvalues --   -0.68873  -0.58276  -0.54926  -0.51796  -0.48625
 Alpha virt. eigenvalues --    0.11808   0.16497   0.19652   0.26060   0.51407
 Alpha virt. eigenvalues --    0.55625   0.56514   0.58035   0.68919   0.73338
 Alpha virt. eigenvalues --    0.75938   0.78424   0.80417   0.83199   0.83409

 Mulliken charges:
               1
     1  O   -0.521870
     2  H    0.268134
     3  H    0.244592
     4  O   -0.501876
     5  H    0.259268
     6  H    0.251752
 Sum of Mulliken charges =  -0.00000

 Dipole moment (field-independent basis, Debye):
    X=             -2.6931    Y=             -2.9963    Z=             -0.0000  Tot=              4.0287
 Quadrupole moment (field-independent basis, Debye-Ang):
   XX=            -10.1232   YY=             -8.3843   ZZ=            -14.7222
   XY=             -2.9769   XZ=             -0.0000   YZ=             -0.0000

 Normal termination of Gaussian 16 at Sun Aug 28 02:52:21 2022.
