 Gaussian 16, Revision A.03,
 Gaussian 16:  ES64L-G16RevA.03 25-Dec-2016

 ------------------
 #p CCSD(T)/cc-pVTZ
 ------------------

 ------------
 H2O_H2O_4696
 ------------
 Symbolic Z-matrix:
 Charge =  0 Multiplicity = 1

                         Standard orientation:
 ---------------------------------------------------------------------
 Center     Atomic      Atomic             Coordinates (Angstroms)
 Number     Number       Type             X           Y           Z
 ---------------------------------------------------------------------
      1          8           0       -0.023160    2.972066    0.000000
      2          1           0       -0.021110    1.989467    0.000000
      3          1           0        0.905666    3.292671    0.000000
      4          8           0       -0.023160   -2.801653    0.000000
      5          1           0       -0.986480   -2.995359    0.000000
      6          1           0        0.472490   -3.650085    0.000000
 ---------------------------------------------------------------------

 SCF Done:  E(RHF) =  -152.108377314     A.U. after   10 cycles
 E2 =    -0.5257987701D+00 EUMP2 =    -0.15263417608409D+03
 CCSD(T)
 CCSD(T)= -0.15266137567D+03

 The electronic state is 1-A'.
 Alpha  occ. eigenvalues --  -20.56147 -20.55045  -1.33450  -1.32352  -0.70855
 Alpha  occ. eigenvalues --   -0.69758  -0.56941  -0.55824  -0.50569  -0.49476
 Alpha virt. eigenvalues --    0.13399   0.14836   0.19606   0.21050   0.53595
 Alpha virt. eigenvalues --    0.54845   0.56696   0.57766   0.66942   0.68580
 Alpha virt. eigenvalues --    0.78315   0.79383   0.79627   0.80582   0.82327

 Mulliken charges:
               1
     1  O   -0.514017
     2  H    0.259482
     3  H    0.254466
     4  O   -0.514557
     5  H    0.257203
     6  H    0.257422
 Sum of Mulliken charges =   0.00000

 Dipole moment (field-independent basis, Debye):
    X=              0.7956    Y=             -2.9857    Z=              0.0000  Tot=              3.0898
 Quadrupole moment (field-independent basis, Debye-Ang):
   XX=             -9.3624   YY=             -6.6902   ZZ=            -14.7147
   XY=              7.3105   XZ=              0.0000   YZ=              0.0000

 650844\MP4DQ=-152.6433\MP4SDQ=-152.6463466\CCSD=-152.6457625\CCSD(T)=-
 Normal termination of Gaussian 16 at Sun Aug 28 05:08:21 2022.
