 Gaussian 16, Revision A.03,
 Gaussian 16:  ES64L-G16RevA.03 25-Dec-2016

 ------------------
 #p CCSD(T)/cc-pVTZ
 ------------------

 -----------
 H2O_H2O_442
 -----------
 Symbolic Z-matrix:
 Charge =  0 Multiplicity = 1

                         Standard orientation:
 ---------------------------------------------------------------------
 Center     Atomic      Atomic             Coordinates (Angstroms)
 Number     Number       Type             X           Y           Z
 ---------------------------------------------------------------------
      1          8           0        0.037617    1.281415   -0.000000
      2          1           0        0.033664    0.298822   -0.000000
      3          1           0       -0.890587    1.603818   -0.000000
      4          8           0        0.037617   -1.102594    0.000000
      5          1           0        0.917130   -1.540729    0.000000
      6          1           0       -0.662071   -1.792480    0.000000
 ---------------------------------------------------------------------

 SCF Done:  E(RHF) =  -152.095954470     A.U. after   11 cycles
 E2 =    -0.5321722328D+00 EUMP2 =    -0.15262812670246D+03
 CCSD(T)
 CCSD(T)= -0.15265439045D+03

 The electronic state is 1-A'.
 Alpha  occ. eigenvalues --  -20.60443 -20.48151  -1.39200  -1.26843  -0.75814
 Alpha  occ. eigenvalues --   -0.71851  -0.58147  -0.55696  -0.48657  -0.43746
 Alpha virt. eigenvalues --    0.11200   0.17620   0.19920   0.33740   0.47156
 Alpha virt. eigenvalues --    0.53431   0.60666   0.66175   0.69587   0.72191
 Alpha virt. eigenvalues --    0.75048   0.78693   0.80561   0.82889   0.83830

 Mulliken charges:
               1
     1  O   -0.625646
     2  H    0.310052
     3  H    0.227458
     4  O   -0.419796
     5  H    0.261259
     6  H    0.246673
 Sum of Mulliken charges =  -0.00000

 Dipole moment (field-independent basis, Debye):
    X=             -1.1968    Y=             -4.3779    Z=              0.0000  Tot=              4.5386
 Quadrupole moment (field-independent basis, Debye-Ang):
   XX=             -9.1218   YY=             -9.5361   ZZ=            -14.6616
   XY=             -3.0333   XZ=              0.0000   YZ=             -0.0000

 Normal termination of Gaussian 16 at Fri Aug 26 18:17:30 2022.
