 Gaussian 16, Revision A.03,
 Gaussian 16:  ES64L-G16RevA.03 25-Dec-2016

 ------------------
 #p CCSD(T)/cc-pVTZ
 ------------------

 ------------
 H2O_H2O_3210
 ------------
 Symbolic Z-matrix:
 Charge =  0 Multiplicity = 1

                         Standard orientation:
 ---------------------------------------------------------------------
 Center     Atomic      Atomic             Coordinates (Angstroms)
 Number     Number       Type             X           Y           Z
 ---------------------------------------------------------------------
      1          8           0        0.063235    2.386487   -0.000000
      2          1           0        0.062137    1.403886   -0.000000
      3          1           0       -0.865902    2.706191   -0.000000
      4          8           0        0.063235   -2.210977    0.000000
      5          1           0        0.660534   -2.991195    0.000000
      6          1           0       -0.868523   -2.522961    0.000000
 ---------------------------------------------------------------------

 SCF Done:  E(RHF) =  -152.109291101     A.U. after   10 cycles
 E2 =    -0.5259247210D+00 EUMP2 =    -0.15263521582237D+03
 CCSD(T)
 CCSD(T)= -0.15266237434D+03

 The electronic state is 1-A'.
 Alpha  occ. eigenvalues --  -20.56560 -20.54609  -1.33845  -1.31924  -0.71251
 Alpha  occ. eigenvalues --   -0.69314  -0.57365  -0.55402  -0.50969  -0.49053
 Alpha virt. eigenvalues --    0.12492   0.15707   0.19476   0.22234   0.53389
 Alpha virt. eigenvalues --    0.55219   0.56366   0.58335   0.67578   0.69340
 Alpha virt. eigenvalues --    0.77936   0.78862   0.79763   0.79785   0.83072

 Mulliken charges:
               1
     1  O   -0.516323
     2  H    0.263288
     3  H    0.250983
     4  O   -0.513769
     5  H    0.260102
     6  H    0.255718
 Sum of Mulliken charges =   0.00000

 Dipole moment (field-independent basis, Debye):
    X=             -2.1578    Y=             -3.1432    Z=              0.0000  Tot=              3.8126
 Quadrupole moment (field-independent basis, Debye-Ang):
   XX=             -9.4571   YY=             -7.2419   ZZ=            -14.7179
   XY=             -4.1351   XZ=              0.0000   YZ=             -0.0000

 Normal termination of Gaussian 16 at Fri Aug 26 20:25:01 2022.
