 Gaussian 16, Revision A.03,
 Gaussian 16:  ES64L-G16RevA.03 25-Dec-2016

 ------------------
 #p CCSD(T)/cc-pVTZ
 ------------------

 -----------
 H2O_H2O_899
 -----------
 Symbolic Z-matrix:
 Charge =  0 Multiplicity = 1

                         Standard orientation:
 ---------------------------------------------------------------------
 Center     Atomic      Atomic             Coordinates (Angstroms)
 Number     Number       Type             X           Y           Z
 ---------------------------------------------------------------------
      1          8           0        0.013676   -1.450260    0.000000
      2          1           0        0.008759   -0.467671    0.000000
      3          1           0       -0.914210   -1.773574    0.000000
      4          8           0        0.013676    1.291052    0.000000
      5          1           0        0.996266    1.295969    0.000000
      6          1           0       -0.309638    2.218939    0.000000
 ---------------------------------------------------------------------

 SCF Done:  E(RHF) =  -152.110366004     A.U. after   10 cycles
 E2 =    -0.5292275019D+00 EUMP2 =    -0.15263959350545D+03
 CCSD(T)
 CCSD(T)= -0.15266639900D+03

 The electronic state is 1-A'.
 Alpha  occ. eigenvalues --  -20.58936 -20.51735  -1.36663  -1.29491  -0.74470
 Alpha  occ. eigenvalues --   -0.67849  -0.60053  -0.53601  -0.52361  -0.46595
 Alpha virt. eigenvalues --    0.11944   0.18161   0.19087   0.32618   0.48689
 Alpha virt. eigenvalues --    0.54202   0.56347   0.64538   0.68289   0.72287
 Alpha virt. eigenvalues --    0.74580   0.76261   0.80739   0.82894   0.84154

 Mulliken charges:
               1
     1  O   -0.578122
     2  H    0.290433
     3  H    0.250234
     4  O   -0.457774
     5  H    0.258840
     6  H    0.236390
 Sum of Mulliken charges =  -0.00000

 Dipole moment (field-independent basis, Debye):
    X=             -0.4660    Y=              3.4455    Z=              0.0000  Tot=              3.4768
 Quadrupole moment (field-independent basis, Debye-Ang):
   XX=             -9.6294   YY=             -8.9735   ZZ=            -14.7066
   XY=              3.8763   XZ=              0.0000   YZ=              0.0000

 Normal termination of Gaussian 16 at Fri Aug 26 21:13:07 2022.
