 Gaussian 16, Revision A.03,
 Gaussian 16:  ES64L-G16RevA.03 25-Dec-2016

 ------------------
 #p CCSD(T)/cc-pVTZ
 ------------------

 ------------
 H2O_H2O_1378
 ------------
 Symbolic Z-matrix:
 Charge =  0 Multiplicity = 1

                         Standard orientation:
 ---------------------------------------------------------------------
 Center     Atomic      Atomic             Coordinates (Angstroms)
 Number     Number       Type             X           Y           Z
 ---------------------------------------------------------------------
      1          8           0        0.085610   -1.644448    0.000000
      2          1           0        0.085213   -0.661847    0.000000
      3          1           0       -0.843754   -1.963490    0.000000
      4          8           0        0.085610    1.494873    0.000000
      5          1           0        0.276917    2.458671    0.000000
      6          1           0       -0.888139    1.363270    0.000000
 ---------------------------------------------------------------------

 SCF Done:  E(RHF) =  -152.110433476     A.U. after   10 cycles
 E2 =    -0.5278032440D+00 EUMP2 =    -0.15263823671978D+03
 CCSD(T)
 CCSD(T)= -0.15266527425D+03

 The electronic state is 1-A'.
 Alpha  occ. eigenvalues --  -20.58062 -20.53765  -1.35440  -1.31172  -0.73100
 Alpha  occ. eigenvalues --   -0.68558  -0.59001  -0.54492  -0.52498  -0.48278
 Alpha virt. eigenvalues --    0.11608   0.16566   0.20069   0.28766   0.49398
 Alpha virt. eigenvalues --    0.54668   0.57988   0.58257   0.68712   0.73511
 Alpha virt. eigenvalues --    0.74707   0.77380   0.81064   0.82037   0.83625

 Mulliken charges:
               1
     1  O   -0.529678
     2  H    0.277063
     3  H    0.238518
     4  O   -0.479028
     5  H    0.247226
     6  H    0.245899
 Sum of Mulliken charges =  -0.00000

 Dipole moment (field-independent basis, Debye):
    X=             -2.8525    Y=              2.9622    Z=              0.0000  Tot=              4.1124
 Quadrupole moment (field-independent basis, Debye-Ang):
   XX=            -10.4464   YY=             -8.7937   ZZ=            -14.7158
   XY=              2.5911   XZ=              0.0000   YZ=              0.0000

 Normal termination of Gaussian 16 at Sat Aug 27 00:13:14 2022.
