 Gaussian 16, Revision A.03,
 Gaussian 16:  ES64L-G16RevA.03 25-Dec-2016

 ------------------
 #p CCSD(T)/cc-pVTZ
 ------------------

 ------------
 H2O_H2O_1807
 ------------
 Symbolic Z-matrix:
 Charge =  0 Multiplicity = 1

                         Standard orientation:
 ---------------------------------------------------------------------
 Center     Atomic      Atomic             Coordinates (Angstroms)
 Number     Number       Type             X           Y           Z
 ---------------------------------------------------------------------
      1          8           0        0.073554    1.823387   -0.000000
      2          1           0        0.072607    0.840786   -0.000000
      3          1           0       -0.855631    2.142949   -0.000000
      4          8           0        0.073554   -1.656479    0.000000
      5          1           0        0.507299   -2.538165    0.000000
      6          1           0       -0.901146   -1.780840    0.000000
 ---------------------------------------------------------------------

 SCF Done:  E(RHF) =  -152.111612985     A.U. after   10 cycles
 E2 =    -0.5267638828D+00 EUMP2 =    -0.15263837686797D+03
 CCSD(T)
 CCSD(T)= -0.15266544040D+03

 The electronic state is 1-A'.
 Alpha  occ. eigenvalues --  -20.57546 -20.53825  -1.34820  -1.31186  -0.72253
 Alpha  occ. eigenvalues --   -0.68601  -0.58473  -0.54603  -0.51940  -0.48321
 Alpha virt. eigenvalues --    0.11901   0.16745   0.19478   0.26814   0.50781
 Alpha virt. eigenvalues --    0.55456   0.56440   0.58406   0.69197   0.73236
 Alpha virt. eigenvalues --    0.75513   0.77826   0.80725   0.83163   0.83842

 Mulliken charges:
               1
     1  O   -0.526120
     2  H    0.270255
     3  H    0.244303
     4  O   -0.502295
     5  H    0.260306
     6  H    0.253551
 Sum of Mulliken charges =  -0.00000

 Dipole moment (field-independent basis, Debye):
    X=             -2.4769    Y=             -3.1765    Z=              0.0000  Tot=              4.0280
 Quadrupole moment (field-independent basis, Debye-Ang):
   XX=             -9.8347   YY=             -8.2609   ZZ=            -14.7259
   XY=             -3.2191   XZ=              0.0000   YZ=             -0.0000

 Normal termination of Gaussian 16 at Sun Aug 28 01:49:39 2022.
