 Gaussian 16, Revision A.03,
 Gaussian 16:  ES64L-G16RevA.03 25-Dec-2016

 ------------------
 #p CCSD(T)/cc-pVTZ
 ------------------

 -----------
 H2O_H2O_255
 -----------
 Symbolic Z-matrix:
 Charge =  0 Multiplicity = 1

                         Standard orientation:
 ---------------------------------------------------------------------
 Center     Atomic      Atomic             Coordinates (Angstroms)
 Number     Number       Type             X           Y           Z
 ---------------------------------------------------------------------
      1          8           0        0.079892   -1.200823    0.000000
      2          1           0        0.078901   -0.218222    0.000000
      3          1           0       -0.849279   -1.520426    0.000000
      4          8           0        0.079892    1.041843    0.000000
      5          1           0        0.394801    1.972615    0.000000
      6          1           0       -0.902701    1.037872    0.000000
 ---------------------------------------------------------------------

 SCF Done:  E(RHF) =  -152.071470476     A.U. after   11 cycles
 E2 =    -0.5354126272D+00 EUMP2 =    -0.15260688310364D+03
 CCSD(T)
 CCSD(T)= -0.15263286560D+03

 The electronic state is 1-A'.
 Alpha  occ. eigenvalues --  -20.61056 -20.47975  -1.41177  -1.26933  -0.79630
 Alpha  occ. eigenvalues --   -0.71345  -0.57271  -0.56793  -0.48585  -0.43749
 Alpha virt. eigenvalues --    0.10800   0.16280   0.21070   0.32524   0.49111
 Alpha virt. eigenvalues --    0.52058   0.59739   0.64943   0.71681   0.72629
 Alpha virt. eigenvalues --    0.77047   0.77076   0.80082   0.84330   0.85348

 Mulliken charges:
               1
     1  O   -0.608172
     2  H    0.284854
     3  H    0.203718
     4  O   -0.347560
     5  H    0.230649
     6  H    0.236510
 Sum of Mulliken charges =  -0.00000

 Dipole moment (field-independent basis, Debye):
    X=             -2.4949    Y=              4.1848    Z=              0.0000  Tot=              4.8720
 Quadrupole moment (field-independent basis, Debye-Ang):
   XX=            -10.0901   YY=             -9.6916   ZZ=            -14.5912
   XY=              2.5141   XZ=              0.0000   YZ=              0.0000

 Normal termination of Gaussian 16 at Fri Aug 26 16:56:45 2022.
