 Gaussian 16, Revision A.03,
 Gaussian 16:  ES64L-G16RevA.03 25-Dec-2016

 ------------------
 #p CCSD(T)/cc-pVTZ
 ------------------

 ------------
 H2O_H2O_3311
 ------------
 Symbolic Z-matrix:
 Charge =  0 Multiplicity = 1

                         Standard orientation:
 ---------------------------------------------------------------------
 Center     Atomic      Atomic             Coordinates (Angstroms)
 Number     Number       Type             X           Y           Z
 ---------------------------------------------------------------------
      1          8           0        0.059637    2.427429   -0.000000
      2          1           0        0.058428    1.444828   -0.000000
      3          1           0       -0.869463    2.747238   -0.000000
      4          8           0        0.059637   -2.249979    0.000000
      5          1           0        0.706603   -2.989534    0.000000
      6          1           0       -0.849762   -2.622131    0.000000
 ---------------------------------------------------------------------

 SCF Done:  E(RHF) =  -152.109246047     A.U. after   10 cycles
 E2 =    -0.5259009859D+00 EUMP2 =    -0.15263514703274D+03
 CCSD(T)
 CCSD(T)= -0.15266230889D+03

 The electronic state is 1-A'.
 Alpha  occ. eigenvalues --  -20.56517 -20.54622  -1.33804  -1.31937  -0.71209
 Alpha  occ. eigenvalues --   -0.69329  -0.57324  -0.55416  -0.50928  -0.49066
 Alpha virt. eigenvalues --    0.12588   0.15644   0.19504   0.22062   0.53373
 Alpha virt. eigenvalues --    0.55174   0.56404   0.58227   0.67358   0.69345
 Alpha virt. eigenvalues --    0.77978   0.78899   0.79660   0.79771   0.83065

 Mulliken charges:
               1
     1  O   -0.516333
     2  H    0.263164
     3  H    0.251396
     4  O   -0.514375
     5  H    0.260038
     6  H    0.256110
 Sum of Mulliken charges =  -0.00000

 Dipole moment (field-independent basis, Debye):
    X=             -2.0362    Y=             -3.1708    Z=              0.0000  Tot=              3.7683
 Quadrupole moment (field-independent basis, Debye-Ang):
   XX=             -9.3639   YY=             -7.1041   ZZ=            -14.7177
   XY=             -4.3478   XZ=              0.0000   YZ=             -0.0000

 Normal termination of Gaussian 16 at Fri Aug 26 20:58:32 2022.
