 Gaussian 16, Revision A.03,
 Gaussian 16:  ES64L-G16RevA.03 25-Dec-2016

 ------------------
 #p CCSD(T)/cc-pVTZ
 ------------------

 ------------
 H2O_H2O_4379
 ------------
 Symbolic Z-matrix:
 Charge =  0 Multiplicity = 1

                         Standard orientation:
 ---------------------------------------------------------------------
 Center     Atomic      Atomic             Coordinates (Angstroms)
 Number     Number       Type             X           Y           Z
 ---------------------------------------------------------------------
      1          8           0        0.082798    2.843769   -0.000000
      2          1           0        0.082487    1.861168   -0.000000
      3          1           0       -0.846594    3.162730   -0.000000
      4          8           0        0.082798   -2.689240    0.000000
      5          1           0        0.336813   -3.638440    0.000000
      6          1           0       -0.897479   -2.621691    0.000000
 ---------------------------------------------------------------------

 SCF Done:  E(RHF) =  -152.107956003     A.U. after   10 cycles
 E2 =    -0.5258561021D+00 EUMP2 =    -0.15263381210526D+03
 CCSD(T)
 CCSD(T)= -0.15266101841D+03

 The electronic state is 1-A'.
 Alpha  occ. eigenvalues --  -20.56224 -20.55152  -1.33526  -1.32456  -0.70938
 Alpha  occ. eigenvalues --   -0.69853  -0.56998  -0.55915  -0.50639  -0.49572
 Alpha virt. eigenvalues --    0.12963   0.14851   0.19254   0.21367   0.53312
 Alpha virt. eigenvalues --    0.54897   0.56571   0.57762   0.66833   0.68655
 Alpha virt. eigenvalues --    0.78252   0.79294   0.79426   0.80936   0.82298

 Mulliken charges:
               1
     1  O   -0.511119
     2  H    0.258889
     3  H    0.252106
     4  O   -0.512163
     5  H    0.258624
     6  H    0.253663
 Sum of Mulliken charges =  -0.00000

 Dipole moment (field-independent basis, Debye):
    X=             -2.8383    Y=             -2.7148    Z=              0.0000  Tot=              3.9276
 Quadrupole moment (field-independent basis, Debye-Ang):
   XX=            -10.2447   YY=             -7.8328   ZZ=            -14.7130
   XY=             -3.1826   XZ=              0.0000   YZ=             -0.0000

 Normal termination of Gaussian 16 at Sun Aug 28 02:22:40 2022.
