 Gaussian 16, Revision A.03,
 Gaussian 16:  ES64L-G16RevA.03 25-Dec-2016

 ------------------
 #p CCSD(T)/cc-pVTZ
 ------------------

 ------------
 H2O_H2O_1988
 ------------
 Symbolic Z-matrix:
 Charge =  0 Multiplicity = 1

                         Standard orientation:
 ---------------------------------------------------------------------
 Center     Atomic      Atomic             Coordinates (Angstroms)
 Number     Number       Type             X           Y           Z
 ---------------------------------------------------------------------
      1          8           0        0.052333    1.900224    0.000000
      2          1           0        0.050427    0.917624    0.000000
      3          1           0       -0.876540    2.220693    0.000000
      4          8           0        0.052333   -1.720374    0.000000
      5          1           0        0.789834   -2.369680    0.000000
      6          1           0       -0.801057   -2.207438    0.000000
 ---------------------------------------------------------------------

 SCF Done:  E(RHF) =  -152.112268847     A.U. after   10 cycles
 E2 =    -0.5264493230D+00 EUMP2 =    -0.15263871817005D+03
 CCSD(T)
 CCSD(T)= -0.15266578157D+03

 The electronic state is 1-A'.
 Alpha  occ. eigenvalues --  -20.57376 -20.53673  -1.34627  -1.31033  -0.72010
 Alpha  occ. eigenvalues --   -0.68463  -0.58318  -0.54487  -0.51766  -0.48183
 Alpha virt. eigenvalues --    0.12182   0.16969   0.19184   0.26282   0.51452
 Alpha virt. eigenvalues --    0.55131   0.56353   0.58972   0.69036   0.72338
 Alpha virt. eigenvalues --    0.76201   0.77548   0.80743   0.83411   0.84239

 Mulliken charges:
               1
     1  O   -0.529024
     2  H    0.269665
     3  H    0.247991
     4  O   -0.507544
     5  H    0.262139
     6  H    0.256773
 Sum of Mulliken charges =  -0.00000

 Dipole moment (field-independent basis, Debye):
    X=             -1.7685    Y=             -3.3876    Z=              0.0000  Tot=              3.8214
 Quadrupole moment (field-independent basis, Debye-Ang):
   XX=             -9.2317   YY=             -7.8864   ZZ=            -14.7288
   XY=             -3.9310   XZ=             -0.0000   YZ=              0.0000

 Normal termination of Gaussian 16 at Sun Aug 28 03:21:35 2022.
