 Gaussian 16, Revision A.03,
 Gaussian 16:  ES64L-G16RevA.03 25-Dec-2016

 ------------------
 #p CCSD(T)/cc-pVTZ
 ------------------

 -----------
 H2O_H2O_943
 -----------
 Symbolic Z-matrix:
 Charge =  0 Multiplicity = 1

                         Standard orientation:
 ---------------------------------------------------------------------
 Center     Atomic      Atomic             Coordinates (Angstroms)
 Number     Number       Type             X           Y           Z
 ---------------------------------------------------------------------
      1          8           0        0.033916    1.480095   -0.000000
      2          1           0        0.030307    0.497500   -0.000000
      3          1           0       -0.894400    1.802173   -0.000000
      4          8           0        0.033916   -1.302668    0.000000
      5          1           0        0.940335   -1.682024    0.000000
      6          1           0       -0.618897   -2.037066    0.000000
 ---------------------------------------------------------------------

 SCF Done:  E(RHF) =  -152.112809160     A.U. after   10 cycles
 E2 =    -0.5288655638D+00 EUMP2 =    -0.15264167472426D+03
 CCSD(T)
 CCSD(T)= -0.15266847723D+03

 The electronic state is 1-A'.
 Alpha  occ. eigenvalues --  -20.58952 -20.51318  -1.36531  -1.29081  -0.73762
 Alpha  occ. eigenvalues --   -0.68187  -0.59800  -0.53556  -0.51995  -0.46185
 Alpha virt. eigenvalues --    0.11842   0.18422   0.18721   0.32350   0.48432
 Alpha virt. eigenvalues --    0.54605   0.56721   0.62759   0.68481   0.72262
 Alpha virt. eigenvalues --    0.72623   0.77536   0.82006   0.82883   0.84586

 Mulliken charges:
               1
     1  O   -0.576030
     2  H    0.298948
     3  H    0.242703
     4  O   -0.484827
     5  H    0.265392
     6  H    0.253814
 Sum of Mulliken charges =  -0.00000

 Dipole moment (field-independent basis, Debye):
    X=             -1.1197    Y=             -3.7900    Z=              0.0000  Tot=              3.9519
 Quadrupole moment (field-independent basis, Debye-Ang):
   XX=             -9.1753   YY=             -8.8436   ZZ=            -14.7215
   XY=             -3.5128   XZ=              0.0000   YZ=             -0.0000

 Normal termination of Gaussian 16 at Fri Aug 26 21:28:51 2022.
