 Gaussian 16, Revision A.03,
 Gaussian 16:  ES64L-G16RevA.03 25-Dec-2016

 ------------------
 #p CCSD(T)/cc-pVTZ
 ------------------

 ------------
 H2O_H2O_1375
 ------------
 Symbolic Z-matrix:
 Charge =  0 Multiplicity = 1

                         Standard orientation:
 ---------------------------------------------------------------------
 Center     Atomic      Atomic             Coordinates (Angstroms)
 Number     Number       Type             X           Y           Z
 ---------------------------------------------------------------------
      1          8           0        0.092949   -1.635328    0.000000
      2          1           0        0.092949   -0.652726    0.000000
      3          1           0       -0.836544   -1.953994    0.000000
      4          8           0        0.092949    1.502541    0.000000
      5          1           0        0.092951    2.485143    0.000000
      6          1           0       -0.836543    1.183874    0.000000
 ---------------------------------------------------------------------

 SCF Done:  E(RHF) =  -152.108481207     A.U. after   10 cycles
 E2 =    -0.5280525283D+00 EUMP2 =    -0.15263653373567D+03
 CCSD(T)
 CCSD(T)= -0.15266361576D+03

 The electronic state is 1-A'.
 Alpha  occ. eigenvalues --  -20.58032 -20.54319  -1.35443  -1.31695  -0.73334
 Alpha  occ. eigenvalues --   -0.68849  -0.58891  -0.55032  -0.52467  -0.48782
 Alpha virt. eigenvalues --    0.11469   0.16310   0.20594   0.28426   0.49320
 Alpha virt. eigenvalues --    0.53925   0.57736   0.58728   0.67819   0.73071
 Alpha virt. eigenvalues --    0.74080   0.78131   0.80647   0.81435   0.83238

 Mulliken charges:
               1
     1  O   -0.522135
     2  H    0.274362
     3  H    0.237711
     4  O   -0.474196
     5  H    0.246380
     6  H    0.237878
 Sum of Mulliken charges =  -0.00000

 Dipole moment (field-independent basis, Debye):
    X=             -3.0945    Y=              2.6274    Z=              0.0000  Tot=              4.0595
 Quadrupole moment (field-independent basis, Debye-Ang):
   XX=            -10.9001   YY=             -9.1563   ZZ=            -14.7064
   XY=              2.1103   XZ=              0.0000   YZ=              0.0000

 CCSD(T)=-152.6636158\RMSD=7.456e-09\PG=CS [SG(H4O2)]\\@
 Normal termination of Gaussian 16 at Sat Aug 27 00:12:09 2022.
