 Gaussian 16, Revision A.03,
 Gaussian 16:  ES64L-G16RevA.03 25-Dec-2016

 ------------------
 #p CCSD(T)/cc-pVTZ
 ------------------

 ------------
 H2O_H2O_1776
 ------------
 Symbolic Z-matrix:
 Charge =  0 Multiplicity = 1

                         Standard orientation:
 ---------------------------------------------------------------------
 Center     Atomic      Atomic             Coordinates (Angstroms)
 Number     Number       Type             X           Y           Z
 ---------------------------------------------------------------------
      1          8           0        0.090686   -1.798093    0.000000
      2          1           0        0.090575   -0.815491    0.000000
      3          1           0       -0.838770   -2.116864    0.000000
      4          8           0        0.090686    1.659389    0.000000
      5          1           0        0.154841    2.639894    0.000000
      6          1           0       -0.857629    1.402089    0.000000
 ---------------------------------------------------------------------

 SCF Done:  E(RHF) =  -152.109410131     A.U. after   10 cycles
 E2 =    -0.5270290875D+00 EUMP2 =    -0.15263643921860D+03
 CCSD(T)
 CCSD(T)= -0.15266354930D+03

 The electronic state is 1-A'.
 Alpha  occ. eigenvalues --  -20.57533 -20.54555  -1.34845  -1.31884  -0.72433
 Alpha  occ. eigenvalues --   -0.69177  -0.58363  -0.55289  -0.51930  -0.48993
 Alpha virt. eigenvalues --    0.11521   0.16257   0.20220   0.26491   0.51059
 Alpha virt. eigenvalues --    0.55128   0.57426   0.57469   0.68114   0.74330
 Alpha virt. eigenvalues --    0.75153   0.78073   0.80226   0.82562   0.83339

 Mulliken charges:
               1
     1  O   -0.518379
     2  H    0.268623
     3  H    0.242577
     4  O   -0.493936
     5  H    0.255885
     6  H    0.245230
 Sum of Mulliken charges =  -0.00000

 Dipole moment (field-independent basis, Debye):
    X=             -3.0461    Y=              2.6341    Z=              0.0000  Tot=              4.0271
 Quadrupole moment (field-independent basis, Debye-Ang):
   XX=            -10.7428   YY=             -8.9686   ZZ=            -14.7151
   XY=              2.3079   XZ=              0.0000   YZ=              0.0000

 528594\MP4DQ=-152.645233\MP4SDQ=-152.648365\CCSD=-152.6477407\CCSD(T)=
 Normal termination of Gaussian 16 at Sun Aug 28 01:28:38 2022.
