 Gaussian 16, Revision A.03,
 Gaussian 16:  ES64L-G16RevA.03 25-Dec-2016

 ------------------
 #p CCSD(T)/cc-pVTZ
 ------------------

 ------------
 H2O_H2O_3485
 ------------
 Symbolic Z-matrix:
 Charge =  0 Multiplicity = 1

                         Standard orientation:
 ---------------------------------------------------------------------
 Center     Atomic      Atomic             Coordinates (Angstroms)
 Number     Number       Type             X           Y           Z
 ---------------------------------------------------------------------
      1          8           0        0.063230    2.496181    0.000000
      2          1           0        0.062183    1.513580    0.000000
      3          1           0       -0.865923    2.815838    0.000000
      4          8           0        0.063230   -2.320665    0.000000
      5          1           0        0.660570   -3.100852    0.000000
      6          1           0       -0.868512   -2.632696    0.000000
 ---------------------------------------------------------------------

 SCF Done:  E(RHF) =  -152.108976424     A.U. after   10 cycles
 E2 =    -0.5258831624D+00 EUMP2 =    -0.15263485958680D+03
 CCSD(T)
 CCSD(T)= -0.15266203093D+03

 The electronic state is 1-A'.
 Alpha  occ. eigenvalues --  -20.56453 -20.54714  -1.33743  -1.32026  -0.71149
 Alpha  occ. eigenvalues --   -0.69419  -0.57253  -0.55502  -0.50865  -0.49153
 Alpha virt. eigenvalues --    0.12653   0.15496   0.19509   0.21822   0.53393
 Alpha virt. eigenvalues --    0.55086   0.56445   0.58079   0.67029   0.69304
 Alpha virt. eigenvalues --    0.78040   0.78853   0.79689   0.79881   0.82976

 Mulliken charges:
               1
     1  O   -0.515262
     2  H    0.262478
     3  H    0.251512
     4  O   -0.514426
     5  H    0.259913
     6  H    0.255784
 Sum of Mulliken charges =  -0.00000

 Dipole moment (field-independent basis, Debye):
    X=             -2.1606    Y=             -3.1243    Z=              0.0000  Tot=              3.7986
 Quadrupole moment (field-independent basis, Debye-Ang):
   XX=             -9.4560   YY=             -7.0850   ZZ=            -14.7168
   XY=             -4.2485   XZ=             -0.0000   YZ=              0.0000

 Normal termination of Gaussian 16 at Fri Aug 26 21:57:26 2022.
