 Gaussian 16, Revision A.03,
 Gaussian 16:  ES64L-G16RevA.03 25-Dec-2016

 ------------------
 #p CCSD(T)/cc-pVTZ
 ------------------

 ------------
 H2O_H2O_4813
 ------------
 Symbolic Z-matrix:
 Charge =  0 Multiplicity = 1

                         Standard orientation:
 ---------------------------------------------------------------------
 Center     Atomic      Atomic             Coordinates (Angstroms)
 Number     Number       Type             X           Y           Z
 ---------------------------------------------------------------------
      1          8           0        0.052266    3.027089    0.000000
      2          1           0        0.051092    2.044489    0.000000
      3          1           0       -0.876845    3.346867   -0.000000
      4          8           0        0.052266   -2.847162    0.000000
      5          1           0        0.790251   -3.495919    0.000000
      6          1           0       -0.800761   -3.334861   -0.000000
 ---------------------------------------------------------------------

 SCF Done:  E(RHF) =  -152.108253796     A.U. after   10 cycles
 E2 =    -0.5258107352D+00 EUMP2 =    -0.15263406453141D+03
 CCSD(T)
 CCSD(T)= -0.15266126649D+03

 The electronic state is 1-A'.
 Alpha  occ. eigenvalues --  -20.56135 -20.55012  -1.33437  -1.32318  -0.70842
 Alpha  occ. eigenvalues --   -0.69719  -0.56924  -0.55785  -0.50555  -0.49439
 Alpha virt. eigenvalues --    0.13488   0.14804   0.19726   0.20926   0.53705
 Alpha virt. eigenvalues --    0.54814   0.56700   0.57771   0.67004   0.68572
 Alpha virt. eigenvalues --    0.78329   0.79421   0.79730   0.80418   0.82364

 Mulliken charges:
               1
     1  O   -0.513130
     2  H    0.259779
     3  H    0.253298
     4  O   -0.513842
     5  H    0.257917
     6  H    0.255979
 Sum of Mulliken charges =   0.00000

 Dipole moment (field-independent basis, Debye):
    X=             -1.7938    Y=             -3.1509    Z=             -0.0000  Tot=              3.6257
 Quadrupole moment (field-independent basis, Debye-Ang):
   XX=             -9.2249   YY=             -6.0427   ZZ=            -14.7143
   XY=             -5.5222   XZ=              0.0000   YZ=             -0.0000

 Normal termination of Gaussian 16 at Sun Aug 28 06:05:43 2022.
