 Gaussian 16, Revision A.03,
 Gaussian 16:  ES64L-G16RevA.03 25-Dec-2016

 ------------------
 #p CCSD(T)/cc-pVTZ
 ------------------

 ----------
 H2O_H2O_82
 ----------
 Symbolic Z-matrix:
 Charge =  0 Multiplicity = 1

                         Standard orientation:
 ---------------------------------------------------------------------
 Center     Atomic      Atomic             Coordinates (Angstroms)
 Number     Number       Type             X           Y           Z
 ---------------------------------------------------------------------
      1          8           0        0.073607   -1.135278    0.000000
      2          1           0        0.072041   -0.152678    0.000000
      3          1           0       -0.855377   -1.455426    0.000000
      4          8           0        0.073607    0.968462    0.000000
      5          1           0        0.506796    1.850422    0.000000
      6          1           0       -0.901172    1.092209    0.000000
 ---------------------------------------------------------------------

 SCF Done:  E(RHF) =  -152.042027033     A.U. after   11 cycles
 E2 =    -0.5370121883D+00 EUMP2 =    -0.15257903922146D+03
 CCSD(T)
 CCSD(T)= -0.15260462314D+03

 The electronic state is 1-A'.
 Alpha  occ. eigenvalues --  -20.61879 -20.45471  -1.43626  -1.25334  -0.81536
 Alpha  occ. eigenvalues --   -0.74362  -0.58337  -0.55226  -0.45860  -0.41944
 Alpha virt. eigenvalues --    0.10419   0.15990   0.21457   0.32118   0.49140
 Alpha virt. eigenvalues --    0.51641   0.60290   0.64466   0.70826   0.71876
 Alpha virt. eigenvalues --    0.77152   0.79156   0.81480   0.84673   0.87843

 Mulliken charges:
               1
     1  O   -0.641520
     2  H    0.277686
     3  H    0.193664
     4  O   -0.303334
     5  H    0.232515
     6  H    0.240989
 Sum of Mulliken charges =  -0.00000

 Dipole moment (field-independent basis, Debye):
    X=             -2.2414    Y=              4.6975    Z=              0.0000  Tot=              5.2048
 Quadrupole moment (field-independent basis, Debye-Ang):
   XX=             -9.7752   YY=            -10.0450   ZZ=            -14.5425
   XY=              2.5488   XZ=              0.0000   YZ=              0.0000

 Normal termination of Gaussian 16 at Fri Aug 26 15:44:19 2022.
