 Gaussian 16, Revision A.03,
 Gaussian 16:  ES64L-G16RevA.03 25-Dec-2016

 ------------------
 #p CCSD(T)/cc-pVTZ
 ------------------

 ------------
 H2O_H2O_1955
 ------------
 Symbolic Z-matrix:
 Charge =  0 Multiplicity = 1

                         Standard orientation:
 ---------------------------------------------------------------------
 Center     Atomic      Atomic             Coordinates (Angstroms)
 Number     Number       Type             X           Y           Z
 ---------------------------------------------------------------------
      1          8           0        0.079862    1.878944    0.000000
      2          1           0        0.079244    0.896343    0.000000
      3          1           0       -0.849430    2.198195   -0.000000
      4          8           0        0.079862   -1.719903   -0.000000
      5          1           0        0.395124   -2.650556   -0.000000
      6          1           0       -0.902733   -1.716306   -0.000000
 ---------------------------------------------------------------------

 SCF Done:  E(RHF) =  -152.110685602     A.U. after   10 cycles
 E2 =    -0.5266343617D+00 EUMP2 =    -0.15263731996390D+03
 CCSD(T)
 CCSD(T)= -0.15266440951D+03

 The electronic state is 1-A'.
 Alpha  occ. eigenvalues --  -20.57379 -20.54178  -1.34657  -1.31517  -0.72112
 Alpha  occ. eigenvalues --   -0.68892  -0.58247  -0.54949  -0.51771  -0.48646
 Alpha virt. eigenvalues --    0.11811   0.16482   0.19647   0.25947   0.51514
 Alpha virt. eigenvalues --    0.55651   0.56480   0.58027   0.68898   0.73249
 Alpha virt. eigenvalues --    0.76027   0.78493   0.80388   0.83224   0.83358

 Mulliken charges:
               1
     1  O   -0.521554
     2  H    0.267879
     3  H    0.244767
     4  O   -0.502200
     5  H    0.259337
     6  H    0.251771
 Sum of Mulliken charges =  -0.00000

 Dipole moment (field-independent basis, Debye):
    X=             -2.6941    Y=             -2.9913    Z=             -0.0000  Tot=              4.0256
 Quadrupole moment (field-independent basis, Debye-Ang):
   XX=            -10.1226   YY=             -8.3747   ZZ=            -14.7221
   XY=             -2.9818   XZ=              0.0000   YZ=             -0.0000

 7702\MP4DQ=-152.6461791\MP4SDQ=-152.6492813\CCSD=-152.6486669\CCSD(T)=
 Normal termination of Gaussian 16 at Sun Aug 28 03:08:56 2022.
