 Gaussian 16, Revision A.03,
 Gaussian 16:  ES64L-G16RevA.03 25-Dec-2016

 ------------------
 #p CCSD(T)/cc-pVTZ
 ------------------

 -----------
 H2O_H2O_514
 -----------
 Symbolic Z-matrix:
 Charge =  0 Multiplicity = 1

                         Standard orientation:
 ---------------------------------------------------------------------
 Center     Atomic      Atomic             Coordinates (Angstroms)
 Number     Number       Type             X           Y           Z
 ---------------------------------------------------------------------
      1          8           0        0.048713    1.312103   -0.000000
      2          1           0        0.045631    0.329506   -0.000000
      3          1           0       -0.879776    1.633683   -0.000000
      4          8           0        0.048713   -1.131855    0.000000
      5          1           0        0.826383   -1.732467    0.000000
      6          1           0       -0.771643   -1.672709    0.000000
 ---------------------------------------------------------------------

 SCF Done:  E(RHF) =  -152.100755399     A.U. after   11 cycles
 E2 =    -0.5316247751D+00 EUMP2 =    -0.15263238017447D+03
 CCSD(T)
 CCSD(T)= -0.15265875683D+03

 The electronic state is 1-A'.
 Alpha  occ. eigenvalues --  -20.60208 -20.48785  -1.38650  -1.27264  -0.75232
 Alpha  occ. eigenvalues --   -0.71250  -0.58475  -0.55297  -0.49355  -0.44204
 Alpha virt. eigenvalues --    0.11256   0.17541   0.19854   0.33517   0.47437
 Alpha virt. eigenvalues --    0.53610   0.61180   0.63355   0.70356   0.72266
 Alpha virt. eigenvalues --    0.73932   0.78729   0.81305   0.82449   0.84063

 Mulliken charges:
               1
     1  O   -0.613787
     2  H    0.314156
     3  H    0.226096
     4  O   -0.436511
     5  H    0.259713
     6  H    0.250333
 Sum of Mulliken charges =  -0.00000

 Dipole moment (field-independent basis, Debye):
    X=             -1.5559    Y=             -4.2971    Z=              0.0000  Tot=              4.5701
 Quadrupole moment (field-independent basis, Debye-Ang):
   XX=             -9.1627   YY=             -9.4218   ZZ=            -14.6754
   XY=             -3.0415   XZ=              0.0000   YZ=             -0.0000

 Normal termination of Gaussian 16 at Fri Aug 26 18:45:58 2022.
