 Gaussian 16, Revision A.03,
 Gaussian 16:  ES64L-G16RevA.03 25-Dec-2016

 ------------------
 #p CCSD(T)/cc-pVTZ
 ------------------

 -----------
 H2O_H2O_331
 -----------
 Symbolic Z-matrix:
 Charge =  0 Multiplicity = 1

                         Standard orientation:
 ---------------------------------------------------------------------
 Center     Atomic      Atomic             Coordinates (Angstroms)
 Number     Number       Type             X           Y           Z
 ---------------------------------------------------------------------
      1          8           0        0.076807   -1.232986    0.000000
      2          1           0        0.075613   -0.250385    0.000000
      3          1           0       -0.852298   -1.552781    0.000000
      4          8           0        0.076807    1.069869    0.000000
      5          1           0        0.451730    1.978130    0.000000
      6          1           0       -0.903955    1.129970    0.000000
 ---------------------------------------------------------------------

 SCF Done:  E(RHF) =  -152.082172166     A.U. after   11 cycles
 E2 =    -0.5343049350D+00 EUMP2 =    -0.15261647710094D+03
 CCSD(T)
 CCSD(T)= -0.15264260271D+03

 The electronic state is 1-A'.
 Alpha  occ. eigenvalues --  -20.60780 -20.48446  -1.40276  -1.27201  -0.78340
 Alpha  occ. eigenvalues --   -0.71114  -0.57727  -0.56277  -0.49056  -0.44056
 Alpha virt. eigenvalues --    0.10911   0.16479   0.20801   0.32788   0.48837
 Alpha virt. eigenvalues --    0.52478   0.59747   0.64522   0.71875   0.72611
 Alpha virt. eigenvalues --    0.75888   0.77902   0.79672   0.84069   0.84815

 Mulliken charges:
               1
     1  O   -0.605410
     2  H    0.292216
     3  H    0.209288
     4  O   -0.367185
     5  H    0.233373
     6  H    0.237718
 Sum of Mulliken charges =  -0.00000

 Dipole moment (field-independent basis, Debye):
    X=             -2.4137    Y=              4.1546    Z=              0.0000  Tot=              4.8049
 Quadrupole moment (field-independent basis, Debye-Ang):
   XX=             -9.9530   YY=             -9.5869   ZZ=            -14.6162
   XY=              2.6266   XZ=              0.0000   YZ=              0.0000

 Normal termination of Gaussian 16 at Fri Aug 26 17:29:19 2022.
