 Gaussian 16, Revision A.03,
 Gaussian 16:  ES64L-G16RevA.03 25-Dec-2016

 ------------------
 #p CCSD(T)/cc-pVTZ
 ------------------

 ------------
 H2O_H2O_3905
 ------------
 Symbolic Z-matrix:
 Charge =  0 Multiplicity = 1

                         Standard orientation:
 ---------------------------------------------------------------------
 Center     Atomic      Atomic             Coordinates (Angstroms)
 Number     Number       Type             X           Y           Z
 ---------------------------------------------------------------------
      1          8           0        0.079847    2.656770   -0.000000
      2          1           0        0.079416    1.674169   -0.000000
      3          1           0       -0.849506    2.975844   -0.000000
      4          8           0        0.079847   -2.497699    0.000000
      5          1           0        0.395286   -3.428292    0.000000
      6          1           0       -0.902748   -2.494288    0.000000
 ---------------------------------------------------------------------

 SCF Done:  E(RHF) =  -152.108229519     A.U. after   10 cycles
 E2 =    -0.5258747196D+00 EUMP2 =    -0.15263410423876D+03
 CCSD(T)
 CCSD(T)= -0.15266129968D+03

 The electronic state is 1-A'.
 Alpha  occ. eigenvalues --  -20.56329 -20.55021  -1.33628  -1.32327  -0.71041
 Alpha  occ. eigenvalues --   -0.69721  -0.57110  -0.55790  -0.50743  -0.49446
 Alpha virt. eigenvalues --    0.12647   0.15130   0.19290   0.21640   0.53225
 Alpha virt. eigenvalues --    0.55023   0.56503   0.57903   0.66717   0.68979
 Alpha virt. eigenvalues --    0.78154   0.78952   0.79414   0.80791   0.82651

 Mulliken charges:
               1
     1  O   -0.512042
     2  H    0.260058
     3  H    0.251554
     4  O   -0.512850
     5  H    0.259385
     6  H    0.253895
 Sum of Mulliken charges =  -0.00000

 Dipole moment (field-independent basis, Debye):
    X=             -2.7327    Y=             -2.8100    Z=              0.0000  Tot=              3.9197
 Quadrupole moment (field-independent basis, Debye-Ang):
   XX=            -10.0962   YY=             -7.7102   ZZ=            -14.7140
   XY=             -3.3453   XZ=              0.0000   YZ=             -0.0000

 Normal termination of Gaussian 16 at Sat Aug 27 00:23:23 2022.
