 Gaussian 16, Revision A.03,
 Gaussian 16:  ES64L-G16RevA.03 25-Dec-2016

 ------------------
 #p CCSD(T)/cc-pVTZ
 ------------------

 ------------
 H2O_H2O_2774
 ------------
 Symbolic Z-matrix:
 Charge =  0 Multiplicity = 1

                         Standard orientation:
 ---------------------------------------------------------------------
 Center     Atomic      Atomic             Coordinates (Angstroms)
 Number     Number       Type             X           Y           Z
 ---------------------------------------------------------------------
      1          8           0       -0.013536    2.198173    0.000000
      2          1           0       -0.010355    1.215577    0.000000
      3          1           0        0.914921    2.519847    0.000000
      4          8           0       -0.013536   -2.038917    0.000000
      5          1           0       -0.996132   -2.042098    0.000000
      6          1           0        0.308138   -2.967373    0.000000
 ---------------------------------------------------------------------

 SCF Done:  E(RHF) =  -152.110078310     A.U. after   10 cycles
 E2 =    -0.5259809061D+00 EUMP2 =    -0.15263605921631D+03
 CCSD(T)
 CCSD(T)= -0.15266319514D+03

 The electronic state is 1-A'.
 Alpha  occ. eigenvalues --  -20.56734 -20.54580  -1.34019  -1.31901  -0.71432
 Alpha  occ. eigenvalues --   -0.69310  -0.57570  -0.55392  -0.51147  -0.49042
 Alpha virt. eigenvalues --    0.12183   0.16086   0.19237   0.23711   0.54012
 Alpha virt. eigenvalues --    0.55562   0.56270   0.58383   0.68577   0.69664
 Alpha virt. eigenvalues --    0.77683   0.78942   0.79807   0.80688   0.83311

 Mulliken charges:
               1
     1  O   -0.521682
     2  H    0.263386
     3  H    0.254913
     4  O   -0.513918
     5  H    0.258538
     6  H    0.258762
 Sum of Mulliken charges =  -0.00000

 Dipole moment (field-independent basis, Debye):
    X=              0.4669    Y=             -2.8823    Z=              0.0000  Tot=              2.9199
 Quadrupole moment (field-independent basis, Debye-Ang):
   XX=             -9.6485   YY=             -8.0635   ZZ=            -14.7201
   XY=              5.9384   XZ=              0.0000   YZ=              0.0000

 Normal termination of Gaussian 16 at Fri Aug 26 17:13:29 2022.
