 Gaussian 16, Revision A.03,
 Gaussian 16:  ES64L-G16RevA.03 25-Dec-2016

 ------------------
 #p CCSD(T)/cc-pVTZ
 ------------------

 ------------
 H2O_H2O_2310
 ------------
 Symbolic Z-matrix:
 Charge =  0 Multiplicity = 1

                         Standard orientation:
 ---------------------------------------------------------------------
 Center     Atomic      Atomic             Coordinates (Angstroms)
 Number     Number       Type             X           Y           Z
 ---------------------------------------------------------------------
      1          8           0        0.063253    2.027484    0.000000
      2          1           0        0.061952    1.044884    0.000000
      3          1           0       -0.865818    2.347381    0.000000
      4          8           0        0.063253   -1.852001    0.000000
      5          1           0        0.660391   -2.632342    0.000000
      6          1           0       -0.868570   -2.163792    0.000000
 ---------------------------------------------------------------------

 SCF Done:  E(RHF) =  -152.110960157     A.U. after   10 cycles
 E2 =    -0.5262409271D+00 EUMP2 =    -0.15263720108453D+03
 CCSD(T)
 CCSD(T)= -0.15266429996D+03

 The electronic state is 1-A'.
 Alpha  occ. eigenvalues --  -20.57088 -20.54092  -1.34349  -1.31427  -0.71751
 Alpha  occ. eigenvalues --   -0.68817  -0.57949  -0.54898  -0.51481  -0.48567
 Alpha virt. eigenvalues --    0.12165   0.16510   0.19340   0.24735   0.52474
 Alpha virt. eigenvalues --    0.55703   0.56045   0.58831   0.68903   0.71456
 Alpha virt. eigenvalues --    0.77042   0.78510   0.80311   0.82319   0.83576

 Mulliken charges:
               1
     1  O   -0.522713
     2  H    0.267108
     3  H    0.248195
     4  O   -0.508244
     5  H    0.260444
     6  H    0.255210
 Sum of Mulliken charges =  -0.00000

 Dipole moment (field-independent basis, Debye):
    X=             -2.1448    Y=             -3.2437    Z=              0.0000  Tot=              3.8886
 Quadrupole moment (field-independent basis, Debye-Ang):
   XX=             -9.4635   YY=             -7.7707   ZZ=            -14.7232
   XY=             -3.7633   XZ=             -0.0000   YZ=              0.0000

 Normal termination of Gaussian 16 at Sun Aug 28 06:13:08 2022.
