 Gaussian 16, Revision A.03,
 Gaussian 16:  ES64L-G16RevA.03 25-Dec-2016

 ------------------
 #p CCSD(T)/cc-pVTZ
 ------------------

 ------------
 H2O_H2O_1999
 ------------
 Symbolic Z-matrix:
 Charge =  0 Multiplicity = 1

                         Standard orientation:
 ---------------------------------------------------------------------
 Center     Atomic      Atomic             Coordinates (Angstroms)
 Number     Number       Type             X           Y           Z
 ---------------------------------------------------------------------
      1          8           0       -0.013580    1.889037    0.000000
      2          1           0       -0.009855    0.906443    0.000000
      3          1           0        0.914699    2.211225    0.000000
      4          8           0       -0.013580   -1.729796    0.000000
      5          1           0       -0.996175   -1.733520    0.000000
      6          1           0        0.308608   -2.658075    0.000000
 ---------------------------------------------------------------------

 SCF Done:  E(RHF) =  -152.111794641     A.U. after   10 cycles
 E2 =    -0.5264023925D+00 EUMP2 =    -0.15263819703355D+03
 CCSD(T)
 CCSD(T)= -0.15266527582D+03

 The electronic state is 1-A'.
 Alpha  occ. eigenvalues --  -20.57291 -20.54049  -1.34572  -1.31402  -0.72013
 Alpha  occ. eigenvalues --   -0.68825  -0.58233  -0.54861  -0.51699  -0.48555
 Alpha virt. eigenvalues --    0.12171   0.16874   0.19269   0.26342   0.52858
 Alpha virt. eigenvalues --    0.54570   0.55934   0.59149   0.68695   0.73193
 Alpha virt. eigenvalues --    0.76150   0.78667   0.80451   0.83370   0.83782

 Mulliken charges:
               1
     1  O   -0.530652
     2  H    0.266737
     3  H    0.254602
     4  O   -0.509254
     5  H    0.260539
     6  H    0.258027
 Sum of Mulliken charges =  -0.00000

 Dipole moment (field-independent basis, Debye):
    X=              0.4692    Y=             -2.9892    Z=              0.0000  Tot=              3.0258
 Quadrupole moment (field-independent basis, Debye-Ang):
   XX=             -9.6503   YY=             -8.3468   ZZ=            -14.7261
   XY=              5.0924   XZ=              0.0000   YZ=              0.0000

 Normal termination of Gaussian 16 at Sun Aug 28 03:26:29 2022.
