 Gaussian 16, Revision A.03,
 Gaussian 16:  ES64L-G16RevA.03 25-Dec-2016

 ------------------
 #p CCSD(T)/cc-pVTZ
 ------------------

 ------------
 H2O_H2O_3650
 ------------
 Symbolic Z-matrix:
 Charge =  0 Multiplicity = 1

                         Standard orientation:
 ---------------------------------------------------------------------
 Center     Atomic      Atomic             Coordinates (Angstroms)
 Number     Number       Type             X           Y           Z
 ---------------------------------------------------------------------
      1          8           0        0.092949   -2.542774    0.000000
      2          1           0        0.092949   -1.560172    0.000000
      3          1           0       -0.836544   -2.861440    0.000000
      4          8           0        0.092949    2.409987    0.000000
      5          1           0        0.092950    3.392589    0.000000
      6          1           0       -0.836544    2.091320    0.000000
 ---------------------------------------------------------------------

 SCF Done:  E(RHF) =  -152.107777171     A.U. after   10 cycles
 E2 =    -0.5259448318D+00 EUMP2 =    -0.15263372200289D+03
 CCSD(T)
 CCSD(T)= -0.15266092600D+03

 The electronic state is 1-A'.
 Alpha  occ. eigenvalues --  -20.56411 -20.55261  -1.33710  -1.32562  -0.71133
 Alpha  occ. eigenvalues --   -0.69952  -0.57172  -0.56013  -0.50819  -0.49674
 Alpha virt. eigenvalues --    0.11874   0.15189   0.18933   0.22638   0.53302
 Alpha virt. eigenvalues --    0.54903   0.56472   0.57914   0.66880   0.68796
 Alpha virt. eigenvalues --    0.78085   0.78850   0.79199   0.81399   0.82390

 Mulliken charges:
               1
     1  O   -0.509574
     2  H    0.258251
     3  H    0.250905
     4  O   -0.510149
     5  H    0.259381
     6  H    0.251185
 Sum of Mulliken charges =  -0.00000

 Dipole moment (field-independent basis, Debye):
    X=             -3.1773    Y=              2.3518    Z=              0.0000  Tot=              3.9530
 Quadrupole moment (field-independent basis, Debye-Ang):
   XX=            -10.8505   YY=             -9.2533   ZZ=            -14.7120
   XY=              2.1528   XZ=              0.0000   YZ=              0.0000

 Normal termination of Gaussian 16 at Fri Aug 26 22:53:21 2022.
