 Gaussian 16, Revision A.03,
 Gaussian 16:  ES64L-G16RevA.03 25-Dec-2016

 ------------------
 #p CCSD(T)/cc-pVTZ
 ------------------

 ------------
 H2O_H2O_3593
 ------------
 Symbolic Z-matrix:
 Charge =  0 Multiplicity = 1

                         Standard orientation:
 ---------------------------------------------------------------------
 Center     Atomic      Atomic             Coordinates (Angstroms)
 Number     Number       Type             X           Y           Z
 ---------------------------------------------------------------------
      1          8           0        0.033775    2.537169    0.000000
      2          1           0        0.031724    1.554570    0.000000
      3          1           0       -0.895051    2.857775   -0.000000
      4          8           0        0.033775   -2.359635    0.000000
      5          1           0        0.940794   -2.737554    0.000000
      6          1           0       -0.617872   -3.095067   -0.000000
 ---------------------------------------------------------------------

 SCF Done:  E(RHF) =  -152.109172880     A.U. after   10 cycles
 E2 =    -0.5258389936D+00 EUMP2 =    -0.15263501187319D+03
 CCSD(T)
 CCSD(T)= -0.15266218201D+03

 The electronic state is 1-A'.
 Alpha  occ. eigenvalues --  -20.56405 -20.54702  -1.33697  -1.32016  -0.71099
 Alpha  occ. eigenvalues --   -0.69417  -0.57217  -0.55500  -0.50822  -0.49147
 Alpha virt. eigenvalues --    0.12802   0.15477   0.19528   0.21764   0.53395
 Alpha virt. eigenvalues --    0.55129   0.56532   0.57956   0.66906   0.69291
 Alpha virt. eigenvalues --    0.78079   0.78948   0.79692   0.79832   0.83003

 Mulliken charges:
               1
     1  O   -0.516948
     2  H    0.262441
     3  H    0.253430
     4  O   -0.516084
     5  H    0.259131
     6  H    0.258030
 Sum of Mulliken charges =  -0.00000

 Dipole moment (field-independent basis, Debye):
    X=             -1.1555    Y=             -3.1535    Z=             -0.0000  Tot=              3.3586
 Quadrupole moment (field-independent basis, Debye-Ang):
   XX=             -9.1861   YY=             -6.9259   ZZ=            -14.7175
   XY=             -5.7082   XZ=              0.0000   YZ=             -0.0000

 CCSD(T)=-152.662182\RMSD=7.002e-09\PG=CS [SG(H4O2)]\\@
 Normal termination of Gaussian 16 at Fri Aug 26 22:34:33 2022.
