 Gaussian 16, Revision A.03,
 Gaussian 16:  ES64L-G16RevA.03 25-Dec-2016

 ------------------
 #p CCSD(T)/cc-pVTZ
 ------------------

 ------------
 H2O_H2O_3901
 ------------
 Symbolic Z-matrix:
 Charge =  0 Multiplicity = 1

                         Standard orientation:
 ---------------------------------------------------------------------
 Center     Atomic      Atomic             Coordinates (Angstroms)
 Number     Number       Type             X           Y           Z
 ---------------------------------------------------------------------
      1          8           0        0.090684   -2.645710    0.000000
      2          1           0        0.090609   -1.663109    0.000000
      3          1           0       -0.838785   -2.964447    0.000000
      4          8           0        0.090684    2.507000    0.000000
      5          1           0        0.154874    3.487503    0.000000
      6          1           0       -0.857641    2.249736    0.000000
 ---------------------------------------------------------------------

 SCF Done:  E(RHF) =  -152.107824863     A.U. after   10 cycles
 E2 =    -0.5259068323D+00 EUMP2 =    -0.15263373169526D+03
 CCSD(T)
 CCSD(T)= -0.15266093733D+03

 The electronic state is 1-A'.
 Alpha  occ. eigenvalues --  -20.56339 -20.55231  -1.33639  -1.32533  -0.71057
 Alpha  occ. eigenvalues --   -0.69926  -0.57104  -0.55987  -0.50749  -0.49647
 Alpha virt. eigenvalues --    0.12231   0.15063   0.18945   0.22180   0.53145
 Alpha virt. eigenvalues --    0.54962   0.56489   0.57869   0.66768   0.68781
 Alpha virt. eigenvalues --    0.78150   0.79084   0.79223   0.81404   0.82367

 Mulliken charges:
               1
     1  O   -0.510013
     2  H    0.258360
     3  H    0.251362
     4  O   -0.510952
     5  H    0.259150
     6  H    0.252093
 Sum of Mulliken charges =  -0.00000

 Dipole moment (field-independent basis, Debye):
    X=             -3.1034    Y=              2.4487    Z=              0.0000  Tot=              3.9532
 Quadrupole moment (field-independent basis, Debye-Ang):
   XX=            -10.7030   YY=             -8.8961   ZZ=            -14.7123
   XY=              2.3974   XZ=              0.0000   YZ=              0.0000

 Normal termination of Gaussian 16 at Sat Aug 27 00:22:02 2022.
