 Gaussian 16, Revision A.03,
 Gaussian 16:  ES64L-G16RevA.03 25-Dec-2016

 ------------------
 #p CCSD(T)/cc-pVTZ
 ------------------

 ------------
 H2O_H2O_1860
 ------------
 Symbolic Z-matrix:
 Charge =  0 Multiplicity = 1

                         Standard orientation:
 ---------------------------------------------------------------------
 Center     Atomic      Atomic             Coordinates (Angstroms)
 Number     Number       Type             X           Y           Z
 ---------------------------------------------------------------------
      1          8           0        0.063265    1.847982   -0.000000
      2          1           0        0.061832    0.865381   -0.000000
      3          1           0       -0.865763    2.168003   -0.000000
      4          8           0        0.063265   -1.672515    0.000000
      5          1           0        0.660297   -2.452936    0.000000
      6          1           0       -0.868599   -1.984180    0.000000
 ---------------------------------------------------------------------

 SCF Done:  E(RHF) =  -152.112204552     A.U. after   10 cycles
 E2 =    -0.5266331314D+00 EUMP2 =    -0.15263883768390D+03
 CCSD(T)
 CCSD(T)= -0.15266589445D+03

 The electronic state is 1-A'.
 Alpha  occ. eigenvalues --  -20.57504 -20.53652  -1.34763  -1.31019  -0.72159
 Alpha  occ. eigenvalues --   -0.68455  -0.58455  -0.54450  -0.51895  -0.48163
 Alpha virt. eigenvalues --    0.12051   0.16937   0.19267   0.26774   0.50947
 Alpha virt. eigenvalues --    0.55285   0.56260   0.58778   0.69109   0.72620
 Alpha virt. eigenvalues --    0.75748   0.77545   0.80819   0.83287   0.84133

 Mulliken charges:
               1
     1  O   -0.528567
     2  H    0.270452
     3  H    0.245879
     4  O   -0.505428
     5  H    0.262102
     6  H    0.255561
 Sum of Mulliken charges =  -0.00000

 Dipole moment (field-independent basis, Debye):
    X=             -2.1333    Y=             -3.3311    Z=              0.0000  Tot=              3.9556
 Quadrupole moment (field-independent basis, Debye-Ang):
   XX=             -9.4690   YY=             -8.0606   ZZ=            -14.7286
   XY=             -3.5755   XZ=              0.0000   YZ=             -0.0000

 Normal termination of Gaussian 16 at Sun Aug 28 02:16:13 2022.
