 Gaussian 16, Revision A.03,
 Gaussian 16:  ES64L-G16RevA.03 25-Dec-2016

 ------------------
 #p CCSD(T)/cc-pVTZ
 ------------------

 ------------
 H2O_H2O_1396
 ------------
 Symbolic Z-matrix:
 Charge =  0 Multiplicity = 1

                         Standard orientation:
 ---------------------------------------------------------------------
 Center     Atomic      Atomic             Coordinates (Angstroms)
 Number     Number       Type             X           Y           Z
 ---------------------------------------------------------------------
      1          8           0       -0.023309    1.655736    0.000000
      2          1           0       -0.019541    0.673142    0.000000
      3          1           0        0.904955    1.977965    0.000000
      4          8           0       -0.023309   -1.485404    0.000000
      5          1           0       -0.986288   -1.680794    0.000000
      6          1           0        0.473824   -2.332968    0.000000
 ---------------------------------------------------------------------

 SCF Done:  E(RHF) =  -152.113754609     A.U. after   10 cycles
 E2 =    -0.5273160876D+00 EUMP2 =    -0.15264107069680D+03
 CCSD(T)
 CCSD(T)= -0.15266805356D+03

 The electronic state is 1-A'.
 Alpha  occ. eigenvalues --  -20.58055 -20.52903  -1.35389  -1.30375  -0.72807
 Alpha  occ. eigenvalues --   -0.68056  -0.59222  -0.53670  -0.52501  -0.47527
 Alpha virt. eigenvalues --    0.12121   0.17791   0.18958   0.29608   0.50247
 Alpha virt. eigenvalues --    0.54380   0.55825   0.60918   0.68789   0.73348
 Alpha virt. eigenvalues --    0.73831   0.77057   0.81618   0.82761   0.84451

 Mulliken charges:
               1
     1  O   -0.548613
     2  H    0.278844
     3  H    0.250671
     4  O   -0.499494
     5  H    0.264361
     6  H    0.254231
 Sum of Mulliken charges =   0.00000

 Dipole moment (field-independent basis, Debye):
    X=              0.7866    Y=             -3.3822    Z=              0.0000  Tot=              3.4724
 Quadrupole moment (field-independent basis, Debye-Ang):
   XX=             -9.3600   YY=             -8.4708   ZZ=            -14.7322
   XY=              4.1308   XZ=              0.0000   YZ=              0.0000

 CCSD(T)=-152.6680536\RMSD=6.355e-09\PG=CS [SG(H4O2)]\\@
 Normal termination of Gaussian 16 at Sat Aug 27 00:19:51 2022.
