 Gaussian 16, Revision A.03,
 Gaussian 16:  ES64L-G16RevA.03 25-Dec-2016

 ------------------
 #p CCSD(T)/cc-pVTZ
 ------------------

 ------------
 H2O_H2O_1970
 ------------
 Symbolic Z-matrix:
 Charge =  0 Multiplicity = 1

                         Standard orientation:
 ---------------------------------------------------------------------
 Center     Atomic      Atomic             Coordinates (Angstroms)
 Number     Number       Type             X           Y           Z
 ---------------------------------------------------------------------
      1          8           0        0.026713    1.886640   -0.000000
      2          1           0        0.023588    0.904043   -0.000000
      3          1           0       -0.901762    2.208261   -0.000000
      4          8           0        0.026713   -1.713449    0.000000
      5          1           0        0.975020   -1.970783    0.000000
      6          1           0       -0.524256   -2.527045    0.000000
 ---------------------------------------------------------------------

 SCF Done:  E(RHF) =  -152.112422888     A.U. after   10 cycles
 E2 =    -0.5264195303D+00 EUMP2 =    -0.15263884241823D+03
 CCSD(T)
 CCSD(T)= -0.15266590419D+03

 The electronic state is 1-A'.
 Alpha  occ. eigenvalues --  -20.57361 -20.53737  -1.34623  -1.31101  -0.72019
 Alpha  occ. eigenvalues --   -0.68542  -0.58325  -0.54558  -0.51760  -0.48257
 Alpha virt. eigenvalues --    0.12236   0.17050   0.19154   0.26430   0.52195
 Alpha virt. eigenvalues --    0.54663   0.56204   0.59014   0.69017   0.72657
 Alpha virt. eigenvalues --    0.76110   0.77991   0.80698   0.83419   0.84256

 Mulliken charges:
               1
     1  O   -0.531774
     2  H    0.268737
     3  H    0.251917
     4  O   -0.509186
     5  H    0.261917
     6  H    0.258390
 Sum of Mulliken charges =  -0.00000

 Dipole moment (field-independent basis, Debye):
    X=             -0.9066    Y=             -3.2641    Z=              0.0000  Tot=              3.3877
 Quadrupole moment (field-independent basis, Debye-Ang):
   XX=             -9.2896   YY=             -8.0341   ZZ=            -14.7292
   XY=             -4.5813   XZ=              0.0000   YZ=              0.0000

 Normal termination of Gaussian 16 at Sun Aug 28 03:14:44 2022.
