 Gaussian 16, Revision A.03,
 Gaussian 16:  ES64L-G16RevA.03 25-Dec-2016

 ------------------
 #p CCSD(T)/cc-pVTZ
 ------------------

 ----------
 H2O_H2O_84
 ----------
 Symbolic Z-matrix:
 Charge =  0 Multiplicity = 1

                         Standard orientation:
 ---------------------------------------------------------------------
 Center     Atomic      Atomic             Coordinates (Angstroms)
 Number     Number       Type             X           Y           Z
 ---------------------------------------------------------------------
      1          8           0        0.066860    1.138613    0.000000
      2          1           0        0.064747    0.156014    0.000000
      3          1           0       -0.861946    1.459277    0.000000
      4          8           0        0.066860   -0.965663    0.000000
      5          1           0        0.611007   -1.783837    0.000000
      6          1           0       -0.883566   -1.215056    0.000000
 ---------------------------------------------------------------------

 SCF Done:  E(RHF) =  -152.044550321     A.U. after   11 cycles
 E2 =    -0.5364395161D+00 EUMP2 =    -0.15258098983666D+03
 CCSD(T)
 CCSD(T)= -0.15260657809D+03

 The electronic state is 1-A'.
 Alpha  occ. eigenvalues --  -20.61935 -20.45009  -1.43515  -1.25015  -0.80709
 Alpha  occ. eigenvalues --   -0.75484  -0.58384  -0.54977  -0.45341  -0.41575
 Alpha virt. eigenvalues --    0.10387   0.16109   0.21354   0.32356   0.48599
 Alpha virt. eigenvalues --    0.51793   0.60961   0.64177   0.70806   0.71600
 Alpha virt. eigenvalues --    0.78031   0.79312   0.81583   0.83778   0.88007

 Mulliken charges:
               1
     1  O   -0.651527
     2  H    0.283937
     3  H    0.196077
     4  O   -0.307940
     5  H    0.236770
     6  H    0.242683
 Sum of Mulliken charges =   0.00000

 Dipole moment (field-independent basis, Debye):
    X=             -2.0292    Y=             -4.8490    Z=             -0.0000  Tot=              5.2565
 Quadrupole moment (field-independent basis, Debye-Ang):
   XX=             -9.5257   YY=            -10.1030   ZZ=            -14.5518
   XY=             -2.6263   XZ=             -0.0000   YZ=             -0.0000

 Normal termination of Gaussian 16 at Fri Aug 26 15:45:06 2022.
