 Gaussian 16, Revision A.03,
 Gaussian 16:  ES64L-G16RevA.03 25-Dec-2016

 ------------------
 #p CCSD(T)/cc-pVTZ
 ------------------

 ------------
 H2O_H2O_2852
 ------------
 Symbolic Z-matrix:
 Charge =  0 Multiplicity = 1

                         Standard orientation:
 ---------------------------------------------------------------------
 Center     Atomic      Atomic             Coordinates (Angstroms)
 Number     Number       Type             X           Y           Z
 ---------------------------------------------------------------------
      1          8           0        0.088232   -2.229935    0.000000
      2          1           0        0.088047   -1.247334    0.000000
      3          1           0       -0.841201   -2.548777    0.000000
      4          8           0        0.088232    2.085617    0.000000
      5          1           0        0.216304    3.059837    0.000000
      6          1           0       -0.874867    1.890818    0.000000
 ---------------------------------------------------------------------

 SCF Done:  E(RHF) =  -152.108566148     A.U. after   10 cycles
 E2 =    -0.5261042842D+00 EUMP2 =    -0.15263467043204D+03
 CCSD(T)
 CCSD(T)= -0.15266183795D+03

 The electronic state is 1-A'.
 Alpha  occ. eigenvalues --  -20.56724 -20.54944  -1.34014  -1.32250  -0.71447
 Alpha  occ. eigenvalues --   -0.69627  -0.57498  -0.55706  -0.51126  -0.49368
 Alpha virt. eigenvalues --    0.11690   0.15719   0.19493   0.23258   0.54320
 Alpha virt. eigenvalues --    0.54809   0.56454   0.58188   0.68396   0.69221
 Alpha virt. eigenvalues --    0.77733   0.78620   0.79511   0.80860   0.82790

 Mulliken charges:
               1
     1  O   -0.512611
     2  H    0.261675
     3  H    0.248801
     4  O   -0.508231
     5  H    0.259631
     6  H    0.250735
 Sum of Mulliken charges =  -0.00000

 Dipole moment (field-independent basis, Debye):
    X=             -3.0016    Y=              2.6022    Z=              0.0000  Tot=              3.9725
 Quadrupole moment (field-independent basis, Debye-Ang):
   XX=            -10.5646   YY=             -8.6784   ZZ=            -14.7146
   XY=              2.5657   XZ=              0.0000   YZ=              0.0000

 Normal termination of Gaussian 16 at Fri Aug 26 17:46:18 2022.
