 Gaussian 16, Revision A.03,
 Gaussian 16:  ES64L-G16RevA.03 25-Dec-2016

 ------------------
 #p CCSD(T)/cc-pVTZ
 ------------------

 ------------
 H2O_H2O_2569
 ------------
 Symbolic Z-matrix:
 Charge =  0 Multiplicity = 1

                         Standard orientation:
 ---------------------------------------------------------------------
 Center     Atomic      Atomic             Coordinates (Angstroms)
 Number     Number       Type             X           Y           Z
 ---------------------------------------------------------------------
      1          8           0        0.030212    2.127268    0.000000
      2          1           0        0.027600    1.144670    0.000000
      3          1           0       -0.898431    2.448404    0.000000
      4          8           0        0.030212   -1.951676   -0.000000
      5          1           0        0.959824   -2.269995   -0.000000
      6          1           0       -0.572384   -2.727810   -0.000000
 ---------------------------------------------------------------------

 SCF Done:  E(RHF) =  -152.110826401     A.U. after   10 cycles
 E2 =    -0.5260482878D+00 EUMP2 =    -0.15263687468827D+03
 CCSD(T)
 CCSD(T)= -0.15266398640D+03

 The electronic state is 1-A'.
 Alpha  occ. eigenvalues --  -20.56885 -20.54221  -1.34152  -1.31552  -0.71551
 Alpha  occ. eigenvalues --   -0.68955  -0.57742  -0.55043  -0.51287  -0.48697
 Alpha virt. eigenvalues --    0.12347   0.16380   0.19307   0.23996   0.53122
 Alpha virt. eigenvalues --    0.55552   0.56409   0.58727   0.69015   0.70366
 Alpha virt. eigenvalues --    0.77463   0.78944   0.80144   0.80721   0.83592

 Mulliken charges:
               1
     1  O   -0.523836
     2  H    0.265888
     3  H    0.252540
     4  O   -0.512565
     5  H    0.260255
     6  H    0.257717
 Sum of Mulliken charges =  -0.00000

 Dipole moment (field-independent basis, Debye):
    X=             -1.0288    Y=             -3.2089    Z=             -0.0000  Tot=              3.3698
 Quadrupole moment (field-independent basis, Debye-Ang):
   XX=             -9.2295   YY=             -7.6065   ZZ=            -14.7228
   XY=             -4.9996   XZ=             -0.0000   YZ=              0.0000

 Normal termination of Gaussian 16 at Fri Aug 26 15:40:53 2022.
