 Gaussian 16, Revision A.03,
 Gaussian 16:  ES64L-G16RevA.03 25-Dec-2016

 ------------------
 #p CCSD(T)/cc-pVTZ
 ------------------

 ------------
 H2O_H2O_4142
 ------------
 Symbolic Z-matrix:
 Charge =  0 Multiplicity = 1

                         Standard orientation:
 ---------------------------------------------------------------------
 Center     Atomic      Atomic             Coordinates (Angstroms)
 Number     Number       Type             X           Y           Z
 ---------------------------------------------------------------------
      1          8           0        0.037417    2.757340    0.000000
      2          1           0        0.035652    1.774740    0.000000
      3          1           0       -0.891501    3.077676    0.000000
      4          8           0        0.037417   -2.578352    0.000000
      5          1           0        0.917904   -3.014528    0.000000
      6          1           0       -0.660734   -3.269792    0.000000
 ---------------------------------------------------------------------

 SCF Done:  E(RHF) =  -152.108689289     A.U. after   10 cycles
 E2 =    -0.5258087837D+00 EUMP2 =    -0.15263449807276D+03
 CCSD(T)
 CCSD(T)= -0.15266168656D+03

 The electronic state is 1-A'.
 Alpha  occ. eigenvalues --  -20.56255 -20.54859  -1.33554  -1.32169  -0.70957
 Alpha  occ. eigenvalues --   -0.69571  -0.57058  -0.55645  -0.50675  -0.49295
 Alpha virt. eigenvalues --    0.13167   0.15124   0.19640   0.21253   0.53559
 Alpha virt. eigenvalues --    0.54918   0.56620   0.57822   0.66689   0.68998
 Alpha virt. eigenvalues --    0.78216   0.79424   0.79555   0.79936   0.82834

 Mulliken charges:
               1
     1  O   -0.515118
     2  H    0.261231
     3  H    0.253557
     4  O   -0.515618
     5  H    0.258536
     6  H    0.257413
 Sum of Mulliken charges =   0.00000

 Dipole moment (field-independent basis, Debye):
    X=             -1.2823    Y=             -3.1535    Z=             -0.0000  Tot=              3.4042
 Quadrupole moment (field-independent basis, Debye-Ang):
   XX=             -9.1593   YY=             -6.5205   ZZ=            -14.7158
   XY=             -5.9531   XZ=             -0.0000   YZ=             -0.0000

 Normal termination of Gaussian 16 at Sun Aug 28 00:05:54 2022.
