 Gaussian 16, Revision A.03,
 Gaussian 16:  ES64L-G16RevA.03 25-Dec-2016

 ------------------
 #p CCSD(T)/cc-pVTZ
 ------------------

 ------------
 H2O_H2O_4013
 ------------
 Symbolic Z-matrix:
 Charge =  0 Multiplicity = 1

                         Standard orientation:
 ---------------------------------------------------------------------
 Center     Atomic      Atomic             Coordinates (Angstroms)
 Number     Number       Type             X           Y           Z
 ---------------------------------------------------------------------
      1          8           0        0.052280    2.707981    0.000000
      2          1           0        0.050961    1.725380    0.000000
      3          1           0       -0.876785    3.027894    0.000000
      4          8           0        0.052280   -2.528068   -0.000000
      5          1           0        0.790170   -3.176932   -0.000000
      6          1           0       -0.800819   -3.015643   -0.000000
 ---------------------------------------------------------------------

 SCF Done:  E(RHF) =  -152.108684040     A.U. after   10 cycles
 E2 =    -0.5258249969D+00 EUMP2 =    -0.15263450903644D+03
 CCSD(T)
 CCSD(T)= -0.15266169570D+03

 The electronic state is 1-A'.
 Alpha  occ. eigenvalues --  -20.56291 -20.54826  -1.33588  -1.32136  -0.70992
 Alpha  occ. eigenvalues --   -0.69534  -0.57091  -0.55610  -0.50709  -0.49261
 Alpha virt. eigenvalues --    0.13082   0.15181   0.19635   0.21302   0.53550
 Alpha virt. eigenvalues --    0.54909   0.56581   0.57835   0.66679   0.69087
 Alpha virt. eigenvalues --    0.78185   0.79420   0.79588   0.79730   0.82872

 Mulliken charges:
               1
     1  O   -0.514753
     2  H    0.261583
     3  H    0.252721
     4  O   -0.515257
     5  H    0.259126
     6  H    0.256579
 Sum of Mulliken charges =  -0.00000

 Dipole moment (field-independent basis, Debye):
    X=             -1.7902    Y=             -3.1753    Z=             -0.0000  Tot=              3.6452
 Quadrupole moment (field-independent basis, Debye-Ang):
   XX=             -9.2252   YY=             -6.5587   ZZ=            -14.7158
   XY=             -5.0726   XZ=             -0.0000   YZ=              0.0000

 Normal termination of Gaussian 16 at Sat Aug 27 00:59:41 2022.
