 Gaussian 16, Revision A.03,
 Gaussian 16:  ES64L-G16RevA.03 25-Dec-2016

 ------------------
 #p CCSD(T)/cc-pVTZ
 ------------------

 -----------
 H2O_H2O_340
 -----------
 Symbolic Z-matrix:
 Charge =  0 Multiplicity = 1

                         Standard orientation:
 ---------------------------------------------------------------------
 Center     Atomic      Atomic             Coordinates (Angstroms)
 Number     Number       Type             X           Y           Z
 ---------------------------------------------------------------------
      1          8           0        0.045018    1.242298   -0.000000
      2          1           0        0.041475    0.259703   -0.000000
      3          1           0       -0.883320    1.564314   -0.000000
      4          8           0        0.045018   -1.062057    0.000000
      5          1           0        0.860047   -1.610904    0.000000
      6          1           0       -0.738486   -1.655038   -0.000000
 ---------------------------------------------------------------------

 SCF Done:  E(RHF) =  -152.087321357     A.U. after   11 cycles
 E2 =    -0.5330929604D+00 EUMP2 =    -0.15262041431693D+03
 CCSD(T)
 CCSD(T)= -0.15264650455D+03

 The electronic state is 1-A'.
 Alpha  occ. eigenvalues --  -20.60864 -20.47193  -1.40115  -1.26228  -0.76180
 Alpha  occ. eigenvalues --   -0.73635  -0.57260  -0.56362  -0.47670  -0.43041
 Alpha virt. eigenvalues --    0.10963   0.17253   0.20290   0.33573   0.47088
 Alpha virt. eigenvalues --    0.53062   0.62007   0.65113   0.70346   0.72005
 Alpha virt. eigenvalues --    0.76868   0.79427   0.80692   0.82172   0.83881

 Mulliken charges:
               1
     1  O   -0.635481
     2  H    0.309513
     3  H    0.219704
     4  O   -0.398661
     5  H    0.258249
     6  H    0.246676
 Sum of Mulliken charges =  -0.00000

 Dipole moment (field-independent basis, Debye):
    X=             -1.4127    Y=             -4.5676    Z=              0.0000  Tot=              4.7811
 Quadrupole moment (field-independent basis, Debye-Ang):
   XX=             -9.1210   YY=             -9.7172   ZZ=            -14.6407
   XY=             -2.9137   XZ=              0.0000   YZ=             -0.0000

 Normal termination of Gaussian 16 at Fri Aug 26 17:33:12 2022.
