 Gaussian 16, Revision A.03,
 Gaussian 16:  ES64L-G16RevA.03 25-Dec-2016

 ------------------
 #p CCSD(T)/cc-pVTZ
 ------------------

 ------------
 H2O_H2O_3191
 ------------
 Symbolic Z-matrix:
 Charge =  0 Multiplicity = 1

                         Standard orientation:
 ---------------------------------------------------------------------
 Center     Atomic      Atomic             Coordinates (Angstroms)
 Number     Number       Type             X           Y           Z
 ---------------------------------------------------------------------
      1          8           0        0.041139    2.378917    0.000000
      2          1           0        0.039217    1.396317    0.000000
      3          1           0       -0.887729    2.699400    0.000000
      4          8           0        0.041139   -2.198991    0.000000
      5          1           0        0.891134   -2.691954    0.000000
      6          1           0       -0.700842   -2.843172    0.000000
 ---------------------------------------------------------------------

 SCF Done:  E(RHF) =  -152.109654963     A.U. after   10 cycles
 E2 =    -0.5258950257D+00 EUMP2 =    -0.15263554998891D+03
 CCSD(T)
 CCSD(T)= -0.15266270110D+03

 The electronic state is 1-A'.
 Alpha  occ. eigenvalues --  -20.56561 -20.54519  -1.33844  -1.31838  -0.71244
 Alpha  occ. eigenvalues --   -0.69235  -0.57381  -0.55325  -0.50972  -0.48972
 Alpha virt. eigenvalues --    0.12603   0.15794   0.19490   0.22318   0.53282
 Alpha virt. eigenvalues --    0.55333   0.56428   0.58311   0.67700   0.69354
 Alpha virt. eigenvalues --    0.77932   0.79009   0.79440   0.79858   0.83174

 Mulliken charges:
               1
     1  O   -0.518516
     2  H    0.263818
     3  H    0.252455
     4  O   -0.515188
     5  H    0.259853
     6  H    0.257578
 Sum of Mulliken charges =  -0.00000

 Dipole moment (field-independent basis, Debye):
    X=             -1.4043    Y=             -3.2246    Z=             -0.0000  Tot=              3.5171
 Quadrupole moment (field-independent basis, Debye-Ang):
   XX=             -9.1491   YY=             -7.0769   ZZ=            -14.7192
   XY=             -5.0711   XZ=             -0.0000   YZ=             -0.0000

 Normal termination of Gaussian 16 at Fri Aug 26 20:18:40 2022.
