 Gaussian 16, Revision A.03,
 Gaussian 16:  ES64L-G16RevA.03 25-Dec-2016

 ------------------
 #p CCSD(T)/cc-pVTZ
 ------------------

 ------------
 H2O_H2O_3444
 ------------
 Symbolic Z-matrix:
 Charge =  0 Multiplicity = 1

                         Standard orientation:
 ---------------------------------------------------------------------
 Center     Atomic      Atomic             Coordinates (Angstroms)
 Number     Number       Type             X           Y           Z
 ---------------------------------------------------------------------
      1          8           0        0.030178    2.476296    0.000000
      2          1           0        0.027948    1.493697    0.000000
      3          1           0       -0.898590    2.797071    0.000000
      4          8           0        0.030178   -2.300681   -0.000000
      5          1           0        0.959914   -2.618639   -0.000000
      6          1           0       -0.572116   -3.077048   -0.000000
 ---------------------------------------------------------------------

 SCF Done:  E(RHF) =  -152.109337378     A.U. after   10 cycles
 E2 =    -0.5258525633D+00 EUMP2 =    -0.15263518994124D+03
 CCSD(T)
 CCSD(T)= -0.15266235392D+03

 The electronic state is 1-A'.
 Alpha  occ. eigenvalues --  -20.56454 -20.54666  -1.33745  -1.31981  -0.71147
 Alpha  occ. eigenvalues --   -0.69383  -0.57270  -0.55467  -0.50870  -0.49114
 Alpha virt. eigenvalues --    0.12686   0.15586   0.19471   0.21997   0.53361
 Alpha virt. eigenvalues --    0.55244   0.56512   0.58038   0.67113   0.69325
 Alpha virt. eigenvalues --    0.78033   0.78834   0.79723   0.79930   0.83041

 Mulliken charges:
               1
     1  O   -0.517639
     2  H    0.262658
     3  H    0.253584
     4  O   -0.516024
     5  H    0.259137
     6  H    0.258284
 Sum of Mulliken charges =  -0.00000

 Dipole moment (field-independent basis, Debye):
    X=             -1.0322    Y=             -3.1281    Z=             -0.0000  Tot=              3.2940
 Quadrupole moment (field-independent basis, Debye-Ang):
   XX=             -9.2295   YY=             -7.0964   ZZ=            -14.7181
   XY=             -5.7572   XZ=             -0.0000   YZ=              0.0000

 Normal termination of Gaussian 16 at Fri Aug 26 21:44:00 2022.
