 Gaussian 16, Revision A.03,
 Gaussian 16:  ES64L-G16RevA.03 25-Dec-2016

 ------------------
 #p CCSD(T)/cc-pVTZ
 ------------------

 ------------
 H2O_H2O_2055
 ------------
 Symbolic Z-matrix:
 Charge =  0 Multiplicity = 1

                         Standard orientation:
 ---------------------------------------------------------------------
 Center     Atomic      Atomic             Coordinates (Angstroms)
 Number     Number       Type             X           Y           Z
 ---------------------------------------------------------------------
      1          8           0        0.079861    1.918833   -0.000000
      2          1           0        0.079257    0.936231   -0.000000
      3          1           0       -0.849436    2.238071   -0.000000
      4          8           0        0.079861   -1.759790    0.000000
      5          1           0        0.395136   -2.690439    0.000000
      6          1           0       -0.902734   -1.756206    0.000000
 ---------------------------------------------------------------------

 SCF Done:  E(RHF) =  -152.110481466     A.U. after   10 cycles
 E2 =    -0.5265306611D+00 EUMP2 =    -0.15263701212724D+03
 CCSD(T)
 CCSD(T)= -0.15266411014D+03

 The electronic state is 1-A'.
 Alpha  occ. eigenvalues --  -20.57285 -20.54262  -1.34560  -1.31594  -0.72008
 Alpha  occ. eigenvalues --   -0.68966  -0.58137  -0.55035  -0.51676  -0.48723
 Alpha virt. eigenvalues --    0.11825   0.16416   0.19627   0.25515   0.51941
 Alpha virt. eigenvalues --    0.55738   0.56364   0.58014   0.68823   0.72864
 Alpha virt. eigenvalues --    0.76358   0.78744   0.80276   0.83073   0.83316

 Mulliken charges:
               1
     1  O   -0.520428
     2  H    0.267009
     3  H    0.245425
     4  O   -0.503332
     5  H    0.259480
     6  H    0.251847
 Sum of Mulliken charges =  -0.00000

 Dipole moment (field-independent basis, Debye):
    X=             -2.6978    Y=             -2.9726    Z=              0.0000  Tot=              4.0142
 Quadrupole moment (field-independent basis, Debye-Ang):
   XX=            -10.1203   YY=             -8.3371   ZZ=            -14.7213
   XY=             -3.0012   XZ=              0.0000   YZ=             -0.0000

 6534831\MP4DQ=-152.6459\MP4SDQ=-152.6489961\CCSD=-152.6483845\CCSD(T)=
 Normal termination of Gaussian 16 at Sun Aug 28 03:55:55 2022.
