 Gaussian 16, Revision A.03,
 Gaussian 16:  ES64L-G16RevA.03 25-Dec-2016

 ------------------
 #p CCSD(T)/cc-pVTZ
 ------------------

 ------------
 H2O_H2O_3291
 ------------
 Symbolic Z-matrix:
 Charge =  0 Multiplicity = 1

                         Standard orientation:
 ---------------------------------------------------------------------
 Center     Atomic      Atomic             Coordinates (Angstroms)
 Number     Number       Type             X           Y           Z
 ---------------------------------------------------------------------
      1          8           0        0.041136    2.418806    0.000000
      2          1           0        0.039247    1.436207    0.000000
      3          1           0       -0.887743    2.739258   -0.000000
      4          8           0        0.041136   -2.238877    0.000000
      5          1           0        0.891148   -2.731812    0.000000
      6          1           0       -0.700824   -2.883084   -0.000000
 ---------------------------------------------------------------------

 SCF Done:  E(RHF) =  -152.109514140     A.U. after   10 cycles
 E2 =    -0.5258794983D+00 EUMP2 =    -0.15263539363846D+03
 CCSD(T)
 CCSD(T)= -0.15266254997D+03

 The electronic state is 1-A'.
 Alpha  occ. eigenvalues --  -20.56519 -20.54564  -1.33804  -1.31881  -0.71205
 Alpha  occ. eigenvalues --   -0.69278  -0.57336  -0.55367  -0.50932  -0.49014
 Alpha virt. eigenvalues --    0.12654   0.15710   0.19510   0.22141   0.53326
 Alpha virt. eigenvalues --    0.55260   0.56451   0.58203   0.67442   0.69358
 Alpha virt. eigenvalues --    0.77974   0.78996   0.79474   0.79818   0.83132

 Mulliken charges:
               1
     1  O   -0.517991
     2  H    0.263500
     3  H    0.252591
     4  O   -0.515447
     5  H    0.259750
     6  H    0.257598
 Sum of Mulliken charges =  -0.00000

 Dipole moment (field-independent basis, Debye):
    X=             -1.4049    Y=             -3.2169    Z=             -0.0000  Tot=              3.5102
 Quadrupole moment (field-independent basis, Debye-Ang):
   XX=             -9.1491   YY=             -7.0132   ZZ=            -14.7187
   XY=             -5.1427   XZ=              0.0000   YZ=             -0.0000

 Normal termination of Gaussian 16 at Fri Aug 26 20:51:49 2022.
