 Gaussian 16, Revision A.03,
 Gaussian 16:  ES64L-G16RevA.03 25-Dec-2016

 ------------------
 #p CCSD(T)/cc-pVTZ
 ------------------

 ------------
 H2O_H2O_3792
 ------------
 Symbolic Z-matrix:
 Charge =  0 Multiplicity = 1

                         Standard orientation:
 ---------------------------------------------------------------------
 Center     Atomic      Atomic             Coordinates (Angstroms)
 Number     Number       Type             X           Y           Z
 ---------------------------------------------------------------------
      1          8           0        0.037426    2.617729    0.000000
      2          1           0        0.035563    1.635130    0.000000
      3          1           0       -0.891461    2.938158    0.000000
      4          8           0        0.037426   -2.438749   -0.000000
      5          1           0        0.917870   -2.875012   -0.000000
      6          1           0       -0.660794   -3.130120   -0.000000
 ---------------------------------------------------------------------

 SCF Done:  E(RHF) =  -152.108969255     A.U. after   10 cycles
 E2 =    -0.5258254249D+00 EUMP2 =    -0.15263479468029D+03
 CCSD(T)
 CCSD(T)= -0.15266197243D+03

 The electronic state is 1-A'.
 Alpha  occ. eigenvalues --  -20.56345 -20.54757  -1.33640  -1.32069  -0.71043
 Alpha  occ. eigenvalues --   -0.69470  -0.57154  -0.55550  -0.50763  -0.49198
 Alpha virt. eigenvalues --    0.12946   0.15339   0.19586   0.21524   0.53468
 Alpha virt. eigenvalues --    0.55011   0.56562   0.57879   0.66738   0.69211
 Alpha virt. eigenvalues --    0.78134   0.79149   0.79646   0.79771   0.82948

 Mulliken charges:
               1
     1  O   -0.516136
     2  H    0.262068
     3  H    0.253337
     4  O   -0.516002
     5  H    0.259027
     6  H    0.257706
 Sum of Mulliken charges =  -0.00000

 Dipole moment (field-independent basis, Debye):
    X=             -1.2811    Y=             -3.1687    Z=             -0.0000  Tot=              3.4179
 Quadrupole moment (field-independent basis, Debye-Ang):
   XX=             -9.1591   YY=             -6.7392   ZZ=            -14.7168
   XY=             -5.6851   XZ=             -0.0000   YZ=              0.0000

 CCSD(T)=-152.6619724\RMSD=7.046e-09\PG=CS [SG(H4O2)]\\@
 Normal termination of Gaussian 16 at Fri Aug 26 23:41:56 2022.
