 Gaussian 16, Revision A.03,
 Gaussian 16:  ES64L-G16RevA.03 25-Dec-2016

 ------------------
 #p CCSD(T)/cc-pVTZ
 ------------------

 -----------
 H2O_H2O_366
 -----------
 Symbolic Z-matrix:
 Charge =  0 Multiplicity = 1

                         Standard orientation:
 ---------------------------------------------------------------------
 Center     Atomic      Atomic             Coordinates (Angstroms)
 Number     Number       Type             X           Y           Z
 ---------------------------------------------------------------------
      1          8           0        0.041309    1.252014   -0.000000
      2          1           0        0.037525    0.269420   -0.000000
      3          1           0       -0.886950    1.574258   -0.000000
      4          8           0        0.041309   -1.072245    0.000000
      5          1           0        0.890369   -1.566819    0.000000
      6          1           0       -0.701892   -1.715018    0.000000
 ---------------------------------------------------------------------

 SCF Done:  E(RHF) =  -152.089779405     A.U. after   11 cycles
 E2 =    -0.5328388046D+00 EUMP2 =    -0.15262261821005D+03
 CCSD(T)
 CCSD(T)= -0.15264875391D+03

 The electronic state is 1-A'.
 Alpha  occ. eigenvalues --  -20.60750 -20.47435  -1.39866  -1.26379  -0.76136
 Alpha  occ. eigenvalues --   -0.73088  -0.57519  -0.56183  -0.47913  -0.43218
 Alpha virt. eigenvalues --    0.11035   0.17384   0.20176   0.33664   0.47050
 Alpha virt. eigenvalues --    0.53167   0.61522   0.65789   0.70018   0.72065
 Alpha virt. eigenvalues --    0.76395   0.79131   0.80568   0.82458   0.83833

 Mulliken charges:
               1
     1  O   -0.633704
     2  H    0.309436
     3  H    0.222506
     4  O   -0.404390
     5  H    0.259795
     6  H    0.246357
 Sum of Mulliken charges =  -0.00000

 Dipole moment (field-independent basis, Debye):
    X=             -1.3016    Y=             -4.5168    Z=              0.0000  Tot=              4.7006
 Quadrupole moment (field-independent basis, Debye-Ang):
   XX=             -9.1103   YY=             -9.6701   ZZ=            -14.6464
   XY=             -2.9483   XZ=              0.0000   YZ=             -0.0000

 Normal termination of Gaussian 16 at Fri Aug 26 17:43:56 2022.
