 Gaussian 16, Revision A.03,
 Gaussian 16:  ES64L-G16RevA.03 25-Dec-2016

 ------------------
 #p CCSD(T)/cc-pVTZ
 ------------------

 -----------
 H2O_H2O_269
 -----------
 Symbolic Z-matrix:
 Charge =  0 Multiplicity = 1

                         Standard orientation:
 ---------------------------------------------------------------------
 Center     Atomic      Atomic             Coordinates (Angstroms)
 Number     Number       Type             X           Y           Z
 ---------------------------------------------------------------------
      1          8           0        0.030403    1.209790    0.000000
      2          1           0        0.025655    0.227200    0.000000
      3          1           0       -0.897540    1.532943    0.000000
      4          8           0        0.030403   -1.034330    0.000000
      5          1           0        0.959321   -1.354668    0.000000
      6          1           0       -0.573879   -1.809152    0.000000
 ---------------------------------------------------------------------

 SCF Done:  E(RHF) =  -152.077881492     A.U. after   11 cycles
 E2 =    -0.5338392354D+00 EUMP2 =    -0.15261172072705D+03
 CCSD(T)
 CCSD(T)= -0.15263767187D+03

 The electronic state is 1-A'.
 Alpha  occ. eigenvalues --  -20.61090 -20.46558  -1.40911  -1.25852  -0.77819
 Alpha  occ. eigenvalues --   -0.73396  -0.56999  -0.56841  -0.46917  -0.42622
 Alpha virt. eigenvalues --    0.10923   0.17311   0.20371   0.33780   0.46972
 Alpha virt. eigenvalues --    0.52771   0.60864   0.68091   0.70117   0.71797
 Alpha virt. eigenvalues --    0.77555   0.78881   0.79138   0.83562   0.84326

 Mulliken charges:
               1
     1  O   -0.648493
     2  H    0.298830
     3  H    0.223390
     4  O   -0.373929
     5  H    0.261362
     6  H    0.238840
 Sum of Mulliken charges =  -0.00000

 Dipole moment (field-independent basis, Debye):
    X=             -0.9498    Y=             -4.5936    Z=              0.0000  Tot=              4.6907
 Quadrupole moment (field-independent basis, Debye-Ang):
   XX=             -9.1645   YY=             -9.8111   ZZ=            -14.6183
   XY=             -2.9070   XZ=              0.0000   YZ=              0.0000

 Normal termination of Gaussian 16 at Fri Aug 26 17:03:38 2022.
