 Gaussian 16, Revision A.03,
 Gaussian 16:  ES64L-G16RevA.03 25-Dec-2016

 ------------------
 #p CCSD(T)/cc-pVTZ
 ------------------

 -----------
 H2O_H2O_812
 -----------
 Symbolic Z-matrix:
 Charge =  0 Multiplicity = 1

                         Standard orientation:
 ---------------------------------------------------------------------
 Center     Atomic      Atomic             Coordinates (Angstroms)
 Number     Number       Type             X           Y           Z
 ---------------------------------------------------------------------
      1          8           0        0.056077    1.430975    0.000000
      2          1           0        0.053738    0.448377    0.000000
      3          1           0       -0.872655    1.751853    0.000000
      4          8           0        0.056077   -1.252176   -0.000000
      5          1           0        0.749225   -1.948631   -0.000000
      6          1           0       -0.827532   -1.681994   -0.000000
 ---------------------------------------------------------------------

 SCF Done:  E(RHF) =  -152.110652097     A.U. after   10 cycles
 E2 =    -0.5296628845D+00 EUMP2 =    -0.15264031498127D+03
 CCSD(T)
 CCSD(T)= -0.15266703024D+03

 The electronic state is 1-A'.
 Alpha  occ. eigenvalues --  -20.59300 -20.50806  -1.37030  -1.28700  -0.74131
 Alpha  occ. eigenvalues --   -0.68782  -0.59578  -0.53988  -0.51471  -0.45761
 Alpha virt. eigenvalues --    0.11594   0.17671   0.19408   0.32738   0.47980
 Alpha virt. eigenvalues --    0.54312   0.59127   0.60732   0.70115   0.72151
 Alpha virt. eigenvalues --    0.72461   0.77667   0.81855   0.82955   0.84545

 Mulliken charges:
               1
     1  O   -0.580572
     2  H    0.306890
     3  H    0.233399
     4  O   -0.474567
     5  H    0.260961
     6  H    0.253889
 Sum of Mulliken charges =  -0.00000

 Dipole moment (field-independent basis, Debye):
    X=             -1.8297    Y=             -3.9205    Z=             -0.0000  Tot=              4.3264
 Quadrupole moment (field-independent basis, Debye-Ang):
   XX=             -9.2889   YY=             -8.9886   ZZ=            -14.7109
   XY=             -3.1905   XZ=             -0.0000   YZ=              0.0000

 Normal termination of Gaussian 16 at Fri Aug 26 20:39:57 2022.
