 Gaussian 16, Revision A.03,
 Gaussian 16:  ES64L-G16RevA.03 25-Dec-2016

 ------------------
 #p CCSD(T)/cc-pVTZ
 ------------------

 ------------
 H2O_H2O_2133
 ------------
 Symbolic Z-matrix:
 Charge =  0 Multiplicity = 1

                         Standard orientation:
 ---------------------------------------------------------------------
 Center     Atomic      Atomic             Coordinates (Angstroms)
 Number     Number       Type             X           Y           Z
 ---------------------------------------------------------------------
      1          8           0        0.070214    1.954821   -0.000000
      2          1           0        0.069181    0.972220   -0.000000
      3          1           0       -0.858944    2.274464   -0.000000
      4          8           0        0.070214   -1.784601    0.000000
      5          1           0        0.560620   -2.636075    0.000000
      6          1           0       -0.894282   -1.972361    0.000000
 ---------------------------------------------------------------------

 SCF Done:  E(RHF) =  -152.111048677     A.U. after   10 cycles
 E2 =    -0.5263984219D+00 EUMP2 =    -0.15263744709882D+03
 CCSD(T)
 CCSD(T)= -0.15266453741D+03

 The electronic state is 1-A'.
 Alpha  occ. eigenvalues --  -20.57230 -20.54065  -1.34493  -1.31404  -0.71907
 Alpha  occ. eigenvalues --   -0.68794  -0.58102  -0.54860  -0.51621  -0.48541
 Alpha virt. eigenvalues --    0.12025   0.16564   0.19402   0.25362   0.52075
 Alpha virt. eigenvalues --    0.55752   0.56015   0.58505   0.68886   0.72174
 Alpha virt. eigenvalues --    0.76616   0.78462   0.80390   0.83448   0.83627

 Mulliken charges:
               1
     1  O   -0.522794
     2  H    0.267500
     3  H    0.246703
     4  O   -0.506010
     5  H    0.260437
     6  H    0.254164
 Sum of Mulliken charges =  -0.00000

 Dipole moment (field-independent basis, Debye):
    X=             -2.3757    Y=             -3.1729    Z=              0.0000  Tot=              3.9638
 Quadrupole moment (field-independent basis, Debye-Ang):
   XX=             -9.6959   YY=             -8.0091   ZZ=            -14.7236
   XY=             -3.4443   XZ=              0.0000   YZ=             -0.0000

 Normal termination of Gaussian 16 at Sun Aug 28 04:36:36 2022.
