 Gaussian 16, Revision A.03,
 Gaussian 16:  ES64L-G16RevA.03 25-Dec-2016

 ------------------
 #p CCSD(T)/cc-pVTZ
 ------------------

 ------------
 H2O_H2O_3340
 ------------
 Symbolic Z-matrix:
 Charge =  0 Multiplicity = 1

                         Standard orientation:
 ---------------------------------------------------------------------
 Center     Atomic      Atomic             Coordinates (Angstroms)
 Number     Number       Type             X           Y           Z
 ---------------------------------------------------------------------
      1          8           0        0.044852    2.439008    0.000000
      2          1           0        0.043114    1.456408    0.000000
      3          1           0       -0.884076    2.759318    0.000000
      4          8           0        0.044852   -2.258602    0.000000
      5          1           0        0.860889   -2.805951    0.000000
      6          1           0       -0.737561   -2.853023    0.000000
 ---------------------------------------------------------------------

 SCF Done:  E(RHF) =  -152.109422056     A.U. after   10 cycles
 E2 =    -0.5258762715D+00 EUMP2 =    -0.15263529832764D+03
 CCSD(T)
 CCSD(T)= -0.15266245752D+03

 The electronic state is 1-A'.
 Alpha  occ. eigenvalues --  -20.56501 -20.54583  -1.33788  -1.31899  -0.71189
 Alpha  occ. eigenvalues --   -0.69295  -0.57316  -0.55384  -0.50914  -0.49031
 Alpha virt. eigenvalues --    0.12681   0.15666   0.19529   0.22043   0.53347
 Alpha virt. eigenvalues --    0.55205   0.56452   0.58165   0.67331   0.69357
 Alpha virt. eigenvalues --    0.77992   0.79052   0.79406   0.79802   0.83112

 Mulliken charges:
               1
     1  O   -0.517533
     2  H    0.263391
     3  H    0.252389
     4  O   -0.515388
     5  H    0.259799
     6  H    0.257342
 Sum of Mulliken charges =  -0.00000

 Dipole moment (field-independent basis, Debye):
    X=             -1.5320    Y=             -3.2219    Z=             -0.0000  Tot=              3.5676
 Quadrupole moment (field-independent basis, Debye-Ang):
   XX=             -9.1569   YY=             -6.9637   ZZ=            -14.7184
   XY=             -5.0173   XZ=             -0.0000   YZ=             -0.0000

 Normal termination of Gaussian 16 at Fri Aug 26 21:09:35 2022.
