 Gaussian 16, Revision A.03,
 Gaussian 16:  ES64L-G16RevA.03 25-Dec-2016

 ------------------
 #p CCSD(T)/cc-pVTZ
 ------------------

 -----------
 H2O_H2O_233
 -----------
 Symbolic Z-matrix:
 Charge =  0 Multiplicity = 1

                         Standard orientation:
 ---------------------------------------------------------------------
 Center     Atomic      Atomic             Coordinates (Angstroms)
 Number     Number       Type             X           Y           Z
 ---------------------------------------------------------------------
      1          8           0        0.070275    1.196904   -0.000000
      2          1           0        0.068538    0.214304   -0.000000
      3          1           0       -0.858653    1.517213   -0.000000
      4          8           0        0.070275   -1.026786    0.000000
      5          1           0        0.560071   -1.878611    0.000000
      6          1           0       -0.894355   -1.213853    0.000000
 ---------------------------------------------------------------------

 SCF Done:  E(RHF) =  -152.071809479     A.U. after   11 cycles
 E2 =    -0.5349984364D+00 EUMP2 =    -0.15260680791541D+03
 CCSD(T)
 CCSD(T)= -0.15263271819D+03

 The electronic state is 1-A'.
 Alpha  occ. eigenvalues --  -20.61243 -20.46992  -1.41345  -1.26214  -0.78842
 Alpha  occ. eigenvalues --   -0.73094  -0.57051  -0.56617  -0.47505  -0.42967
 Alpha virt. eigenvalues --    0.10720   0.16434   0.20927   0.32762   0.48678
 Alpha virt. eigenvalues --    0.52345   0.60474   0.64304   0.71659   0.72135
 Alpha virt. eigenvalues --    0.77847   0.78198   0.80622   0.84159   0.84853

 Mulliken charges:
               1
     1  O   -0.625781
     2  H    0.293459
     3  H    0.205408
     4  O   -0.351366
     5  H    0.237248
     6  H    0.241032
 Sum of Mulliken charges =  -0.00000

 Dipole moment (field-independent basis, Debye):
    X=             -2.1787    Y=             -4.4881    Z=              0.0000  Tot=              4.9889
 Quadrupole moment (field-independent basis, Debye-Ang):
   XX=             -9.6663   YY=             -9.7912   ZZ=            -14.5976
   XY=             -2.6894   XZ=              0.0000   YZ=              0.0000

 Normal termination of Gaussian 16 at Fri Aug 26 16:47:45 2022.
