 Gaussian 16, Revision A.03,
 Gaussian 16:  ES64L-G16RevA.03 25-Dec-2016

 ------------------
 #p CCSD(T)/cc-pVTZ
 ------------------

 -----------
 H2O_H2O_225
 -----------
 Symbolic Z-matrix:
 Charge =  0 Multiplicity = 1

                         Standard orientation:
 ---------------------------------------------------------------------
 Center     Atomic      Atomic             Coordinates (Angstroms)
 Number     Number       Type             X           Y           Z
 ---------------------------------------------------------------------
      1          8           0        0.092949   -1.176619    0.000000
      2          1           0        0.092949   -0.194017    0.000000
      3          1           0       -0.836544   -1.495286    0.000000
      4          8           0        0.092949    1.043832    0.000000
      5          1           0        0.092949    2.026433    0.000000
      6          1           0       -0.836544    0.725165    0.000000
 ---------------------------------------------------------------------

 SCF Done:  E(RHF) =  -152.054746723     A.U. after   11 cycles
 E2 =    -0.5373297090D+00 EUMP2 =    -0.15259207643230D+03
 CCSD(T)
 CCSD(T)= -0.15261802868D+03

 The electronic state is 1-A'.
 Alpha  occ. eigenvalues --  -20.60932 -20.49218  -1.42023  -1.27995  -0.81948
 Alpha  occ. eigenvalues --   -0.68941  -0.58166  -0.56853  -0.49984  -0.44876
 Alpha virt. eigenvalues --    0.10970   0.16063   0.21666   0.31921   0.49035
 Alpha virt. eigenvalues --    0.50855   0.59491   0.67350   0.71217   0.72686
 Alpha virt. eigenvalues --    0.75480   0.76816   0.79369   0.82985   0.85000

 Mulliken charges:
               1
     1  O   -0.578627
     2  H    0.265057
     3  H    0.195810
     4  O   -0.342394
     5  H    0.226517
     6  H    0.233637
 Sum of Mulliken charges =  -0.00000

 Dipole moment (field-independent basis, Debye):
    X=             -2.9315    Y=              3.6420    Z=              0.0000  Tot=              4.6753
 Quadrupole moment (field-independent basis, Debye-Ang):
   XX=            -10.8255   YY=             -9.8069   ZZ=            -14.5544
   XY=              1.9371   XZ=              0.0000   YZ=              0.0000

 Normal termination of Gaussian 16 at Fri Aug 26 16:44:16 2022.
