 Gaussian 16, Revision A.03,
 Gaussian 16:  ES64L-G16RevA.03 25-Dec-2016

 ------------------
 #p CCSD(T)/cc-pVTZ
 ------------------

 -----------
 H2O_H2O_798
 -----------
 Symbolic Z-matrix:
 Charge =  0 Multiplicity = 1

                         Standard orientation:
 ---------------------------------------------------------------------
 Center     Atomic      Atomic             Coordinates (Angstroms)
 Number     Number       Type             X           Y           Z
 ---------------------------------------------------------------------
      1          8           0        0.016793   -1.412607    0.000000
      2          1           0        0.011927   -0.430017    0.000000
      3          1           0       -0.911110   -1.735872    0.000000
      4          8           0        0.016793    1.249285    0.000000
      5          1           0        0.996961    1.318404    0.000000
      6          1           0       -0.366468    2.154059    0.000000
 ---------------------------------------------------------------------

 SCF Done:  E(RHF) =  -152.109048335     A.U. after   10 cycles
 E2 =    -0.5297590712D+00 EUMP2 =    -0.15263880740581D+03
 CCSD(T)
 CCSD(T)= -0.15266552765D+03

 The electronic state is 1-A'.
 Alpha  occ. eigenvalues --  -20.59206 -20.51122  -1.37069  -1.29007  -0.74802
 Alpha  occ. eigenvalues --   -0.68090  -0.60020  -0.53953  -0.51718  -0.46090
 Alpha virt. eigenvalues --    0.11838   0.18262   0.19065   0.33115   0.48329
 Alpha virt. eigenvalues --    0.54111   0.56899   0.65606   0.68265   0.72251
 Alpha virt. eigenvalues --    0.74208   0.76474   0.80512   0.83300   0.84099

 Mulliken charges:
               1
     1  O   -0.587670
     2  H    0.294962
     3  H    0.247267
     4  O   -0.451554
     5  H    0.259510
     6  H    0.237484
 Sum of Mulliken charges =  -0.00000

 Dipole moment (field-independent basis, Debye):
    X=             -0.5627    Y=              3.6184    Z=              0.0000  Tot=              3.6619
 Quadrupole moment (field-independent basis, Debye-Ang):
   XX=             -9.5187   YY=             -9.0446   ZZ=            -14.7004
   XY=              3.6754   XZ=              0.0000   YZ=              0.0000

 Normal termination of Gaussian 16 at Fri Aug 26 20:34:38 2022.
