 Gaussian 16, Revision A.03,
 Gaussian 16:  ES64L-G16RevA.03 25-Dec-2016

 ------------------
 #p CCSD(T)/cc-pVTZ
 ------------------

 -----------
 H2O_H2O_327
 -----------
 Symbolic Z-matrix:
 Charge =  0 Multiplicity = 1

                         Standard orientation:
 ---------------------------------------------------------------------
 Center     Atomic      Atomic             Coordinates (Angstroms)
 Number     Number       Type             X           Y           Z
 ---------------------------------------------------------------------
      1          8           0        0.088244   -1.222755    0.000000
      2          1           0        0.087896   -0.240154    0.000000
      3          1           0       -0.841136   -1.541751    0.000000
      4          8           0        0.088244    1.078467    0.000000
      5          1           0        0.216155    2.052708    0.000000
      6          1           0       -0.874822    0.883508    0.000000
 ---------------------------------------------------------------------

 SCF Done:  E(RHF) =  -152.075200444     A.U. after   11 cycles
 E2 =    -0.5352697316D+00 EUMP2 =    -0.15261047017546D+03
 CCSD(T)
 CCSD(T)= -0.15263663925D+03

 The electronic state is 1-A'.
 Alpha  occ. eigenvalues --  -20.60656 -20.49523  -1.40520  -1.28084  -0.79761
 Alpha  occ. eigenvalues --   -0.69296  -0.58417  -0.56190  -0.50251  -0.44979
 Alpha virt. eigenvalues --    0.10993   0.16240   0.21203   0.32357   0.49062
 Alpha virt. eigenvalues --    0.51579   0.59424   0.65828   0.71528   0.72763
 Alpha virt. eigenvalues --    0.75362   0.76558   0.79256   0.83088   0.84976

 Mulliken charges:
               1
     1  O   -0.583739
     2  H    0.278657
     3  H    0.204991
     4  O   -0.359447
     5  H    0.227542
     6  H    0.231996
 Sum of Mulliken charges =  -0.00000

 Dipole moment (field-independent basis, Debye):
    X=             -2.7922    Y=              3.7350    Z=              0.0000  Tot=              4.6633
 Quadrupole moment (field-independent basis, Debye-Ang):
   XX=            -10.5577   YY=             -9.6018   ZZ=            -14.5962
   XY=              2.2353   XZ=              0.0000   YZ=              0.0000

 Normal termination of Gaussian 16 at Fri Aug 26 17:27:38 2022.
