 Gaussian 16, Revision A.03,
 Gaussian 16:  ES64L-G16RevA.03 25-Dec-2016

 ------------------
 #p CCSD(T)/cc-pVTZ
 ------------------

 ------------
 H2O_H2O_3615
 ------------
 Symbolic Z-matrix:
 Charge =  0 Multiplicity = 1

                         Standard orientation:
 ---------------------------------------------------------------------
 Center     Atomic      Atomic             Coordinates (Angstroms)
 Number     Number       Type             X           Y           Z
 ---------------------------------------------------------------------
      1          8           0        0.044845    2.548703   -0.000000
      2          1           0        0.043185    1.566103   -0.000000
      3          1           0       -0.884108    2.868939   -0.000000
      4          8           0        0.044845   -2.368290    0.000000
      5          1           0        0.860925   -2.915574    0.000000
      6          1           0       -0.737521   -2.962772    0.000000
 ---------------------------------------------------------------------

 SCF Done:  E(RHF) =  -152.109102781     A.U. after   10 cycles
 E2 =    -0.5258450237D+00 EUMP2 =    -0.15263494780428D+03
 CCSD(T)
 CCSD(T)= -0.15266211934D+03

 The electronic state is 1-A'.
 Alpha  occ. eigenvalues --  -20.56402 -20.54688  -1.33694  -1.32002  -0.71097
 Alpha  occ. eigenvalues --   -0.69400  -0.57212  -0.55483  -0.50818  -0.49131
 Alpha virt. eigenvalues --    0.12844   0.15456   0.19580   0.21672   0.53450
 Alpha virt. eigenvalues --    0.55040   0.56515   0.57956   0.66884   0.69298
 Alpha virt. eigenvalues --    0.78083   0.79169   0.79498   0.79708   0.83012

 Mulliken charges:
               1
     1  O   -0.516410
     2  H    0.262629
     3  H    0.252723
     4  O   -0.515742
     5  H    0.259494
     6  H    0.257307
 Sum of Mulliken charges =  -0.00000

 Dipole moment (field-independent basis, Debye):
    X=             -1.5336    Y=             -3.2041    Z=              0.0000  Tot=              3.5522
 Quadrupole moment (field-independent basis, Debye-Ang):
   XX=             -9.1568   YY=             -6.7874   ZZ=            -14.7173
   XY=             -5.2000   XZ=              0.0000   YZ=             -0.0000

 CCSD(T)=-152.6621193\RMSD=7.020e-09\PG=CS [SG(H4O2)]\\@
 Normal termination of Gaussian 16 at Fri Aug 26 22:41:44 2022.
