 Gaussian 16, Revision A.03,
 Gaussian 16:  ES64L-G16RevA.03 25-Dec-2016

 ------------------
 #p CCSD(T)/cc-pVTZ
 ------------------

 ------------
 H2O_H2O_2732
 ------------
 Symbolic Z-matrix:
 Charge =  0 Multiplicity = 1

                         Standard orientation:
 ---------------------------------------------------------------------
 Center     Atomic      Atomic             Coordinates (Angstroms)
 Number     Number       Type             X           Y           Z
 ---------------------------------------------------------------------
      1          8           0        0.073540    2.192361    0.000000
      2          1           0        0.072759    1.209760    0.000000
      3          1           0       -0.855699    2.511766    0.000000
      4          8           0        0.073540   -2.025428   -0.000000
      5          1           0        0.507434   -2.907041   -0.000000
      6          1           0       -0.901139   -2.149953   -0.000000
 ---------------------------------------------------------------------

 SCF Done:  E(RHF) =  -152.109627861     A.U. after   10 cycles
 E2 =    -0.5260795239D+00 EUMP2 =    -0.15263570738493D+03
 CCSD(T)
 CCSD(T)= -0.15266284597D+03

 The electronic state is 1-A'.
 Alpha  occ. eigenvalues --  -20.56797 -20.54525  -1.34075  -1.31843  -0.71489
 Alpha  occ. eigenvalues --   -0.69225  -0.57604  -0.55315  -0.51198  -0.48972
 Alpha virt. eigenvalues --    0.12110   0.16011   0.19442   0.23293   0.53600
 Alpha virt. eigenvalues --    0.55381   0.56235   0.58618   0.68759   0.69623
 Alpha virt. eigenvalues --    0.77636   0.79052   0.79880   0.80325   0.83126

 Mulliken charges:
               1
     1  O   -0.517195
     2  H    0.264371
     3  H    0.249031
     4  O   -0.510084
     5  H    0.259835
     6  H    0.254042
 Sum of Mulliken charges =  -0.00000

 Dipole moment (field-independent basis, Debye):
    X=             -2.5016    Y=             -3.0290    Z=             -0.0000  Tot=              3.9284
 Quadrupole moment (field-independent basis, Debye-Ang):
   XX=             -9.8195   YY=             -7.8116   ZZ=            -14.7186
   XY=             -3.4738   XZ=             -0.0000   YZ=              0.0000

 Normal termination of Gaussian 16 at Fri Aug 26 16:53:46 2022.
