 Gaussian 16, Revision A.03,
 Gaussian 16:  ES64L-G16RevA.03 25-Dec-2016

 ------------------
 #p CCSD(T)/cc-pVTZ
 ------------------

 ----------
 H2O_H2O_68
 ----------
 Symbolic Z-matrix:
 Charge =  0 Multiplicity = 1

                         Standard orientation:
 ---------------------------------------------------------------------
 Center     Atomic      Atomic             Coordinates (Angstroms)
 Number     Number       Type             X           Y           Z
 ---------------------------------------------------------------------
      1          8           0        0.034025    1.131038    0.000000
      2          1           0        0.029208    0.148449    0.000000
      3          1           0       -0.893895    1.454258   -0.000000
      4          8           0        0.034025   -0.953694    0.000000
      5          1           0        0.939977   -1.334166    0.000000
      6          1           0       -0.619691   -1.687291   -0.000000
 ---------------------------------------------------------------------

 SCF Done:  E(RHF) =  -152.040707052     A.U. after   11 cycles
 E2 =    -0.5357021069D+00 EUMP2 =    -0.15257640915887D+03
 CCSD(T)
 CCSD(T)= -0.15260195283D+03

 The electronic state is 1-A'.
 Alpha  occ. eigenvalues --  -20.62010 -20.44002  -1.43807  -1.24367  -0.80359
 Alpha  occ. eigenvalues --   -0.76590  -0.58623  -0.54833  -0.44126  -0.40851
 Alpha virt. eigenvalues --    0.10405   0.16637   0.21073   0.33253   0.46676
 Alpha virt. eigenvalues --    0.51920   0.61857   0.67453   0.70335   0.70609
 Alpha virt. eigenvalues --    0.77494   0.78758   0.81353   0.83294   0.88197

 Mulliken charges:
               1
     1  O   -0.681054
     2  H    0.283933
     3  H    0.209504
     4  O   -0.310052
     5  H    0.261572
     6  H    0.236096
 Sum of Mulliken charges =  -0.00000

 Dipole moment (field-independent basis, Debye):
    X=             -1.0257    Y=             -5.0394    Z=             -0.0000  Tot=              5.1427
 Quadrupole moment (field-independent basis, Debye-Ang):
   XX=             -9.1021   YY=            -10.2195   ZZ=            -14.5552
   XY=             -2.6822   XZ=              0.0000   YZ=             -0.0000

 Normal termination of Gaussian 16 at Fri Aug 26 15:38:46 2022.
