 Gaussian 16, Revision A.03,
 Gaussian 16:  ES64L-G16RevA.03 25-Dec-2016

 ------------------
 #p CCSD(T)/cc-pVTZ
 ------------------

 ------------
 H2O_H2O_2341
 ------------
 Symbolic Z-matrix:
 Charge =  0 Multiplicity = 1

                         Standard orientation:
 ---------------------------------------------------------------------
 Center     Atomic      Atomic             Coordinates (Angstroms)
 Number     Number       Type             X           Y           Z
 ---------------------------------------------------------------------
      1          8           0        0.041169    2.039858    0.000000
      2          1           0        0.038914    1.057259    0.000000
      3          1           0       -0.887590    2.360657   -0.000000
      4          8           0        0.041169   -1.859960    0.000000
      5          1           0        0.890998   -2.353213    0.000000
      6          1           0       -0.701031   -2.503889   -0.000000
 ---------------------------------------------------------------------

 SCF Done:  E(RHF) =  -152.111407090     A.U. after   10 cycles
 E2 =    -0.5261632765D+00 EUMP2 =    -0.15263757036616D+03
 CCSD(T)
 CCSD(T)= -0.15266466336D+03

 The electronic state is 1-A'.
 Alpha  occ. eigenvalues --  -20.57060 -20.53991  -1.34317  -1.31331  -0.71708
 Alpha  occ. eigenvalues --   -0.68735  -0.57943  -0.54814  -0.51455  -0.48479
 Alpha virt. eigenvalues --    0.12318   0.16635   0.19265   0.24770   0.52459
 Alpha virt. eigenvalues --    0.55410   0.56422   0.58937   0.69049   0.71438
 Alpha virt. eigenvalues --    0.77105   0.78377   0.80379   0.82089   0.83633

 Mulliken charges:
               1
     1  O   -0.525628
     2  H    0.267354
     3  H    0.250701
     4  O   -0.510456
     5  H    0.260882
     6  H    0.257147
 Sum of Mulliken charges =   0.00000

 Dipole moment (field-independent basis, Debye):
    X=             -1.3974    Y=             -3.3229    Z=             -0.0000  Tot=              3.6048
 Quadrupole moment (field-independent basis, Debye-Ang):
   XX=             -9.1502   YY=             -7.6346   ZZ=            -14.7250
   XY=             -4.4618   XZ=             -0.0000   YZ=             -0.0000

 Normal termination of Gaussian 16 at Sun Aug 28 06:26:09 2022.
