 Gaussian 16, Revision A.03,
 Gaussian 16:  ES64L-G16RevA.03 25-Dec-2016

 ------------------
 #p CCSD(T)/cc-pVTZ
 ------------------

 ------------
 H2O_H2O_4329
 ------------
 Symbolic Z-matrix:
 Charge =  0 Multiplicity = 1

                         Standard orientation:
 ---------------------------------------------------------------------
 Center     Atomic      Atomic             Coordinates (Angstroms)
 Number     Number       Type             X           Y           Z
 ---------------------------------------------------------------------
      1          8           0        0.082798    2.823825    0.000000
      2          1           0        0.082485    1.841224    0.000000
      3          1           0       -0.846593    3.142788   -0.000000
      4          8           0        0.082798   -2.669297    0.000000
      5          1           0        0.336812   -3.618497    0.000000
      6          1           0       -0.897478   -2.601746   -0.000000
 ---------------------------------------------------------------------

 SCF Done:  E(RHF) =  -152.107971453     A.U. after   10 cycles
 E2 =    -0.5258578270D+00 EUMP2 =    -0.15263382927989D+03
 CCSD(T)
 CCSD(T)= -0.15266103490D+03

 The electronic state is 1-A'.
 Alpha  occ. eigenvalues --  -20.56234 -20.55144  -1.33535  -1.32448  -0.70947
 Alpha  occ. eigenvalues --   -0.69844  -0.57008  -0.55907  -0.50649  -0.49565
 Alpha virt. eigenvalues --    0.12922   0.14877   0.19245   0.21404   0.53290
 Alpha virt. eigenvalues --    0.54912   0.56563   0.57775   0.66811   0.68685
 Alpha virt. eigenvalues --    0.78243   0.79301   0.79382   0.80943   0.82354

 Mulliken charges:
               1
     1  O   -0.511160
     2  H    0.258968
     3  H    0.252049
     4  O   -0.512210
     5  H    0.258704
     6  H    0.253648
 Sum of Mulliken charges =  -0.00000

 Dipole moment (field-independent basis, Debye):
    X=             -2.8379    Y=             -2.7161    Z=             -0.0000  Tot=              3.9282
 Quadrupole moment (field-independent basis, Debye-Ang):
   XX=            -10.2449   YY=             -7.8468   ZZ=            -14.7131
   XY=             -3.1754   XZ=             -0.0000   YZ=             -0.0000

 Normal termination of Gaussian 16 at Sun Aug 28 01:54:07 2022.
