 Gaussian 16, Revision A.03,
 Gaussian 16:  ES64L-G16RevA.03 25-Dec-2016

 ------------------
 #p CCSD(T)/cc-pVTZ
 ------------------

 ------------
 H2O_H2O_1248
 ------------
 Symbolic Z-matrix:
 Charge =  0 Multiplicity = 1

                         Standard orientation:
 ---------------------------------------------------------------------
 Center     Atomic      Atomic             Coordinates (Angstroms)
 Number     Number       Type             X           Y           Z
 ---------------------------------------------------------------------
      1          8           0       -0.016745    1.592109    0.000000
      2          1           0       -0.012457    0.609517    0.000000
      3          1           0        0.911349    1.914829    0.000000
      4          8           0       -0.016745   -1.428768    0.000000
      5          1           0       -0.996954   -1.497311    0.000000
      6          1           0        0.365983   -2.333768    0.000000
 ---------------------------------------------------------------------

 SCF Done:  E(RHF) =  -152.113230361     A.U. after   10 cycles
 E2 =    -0.5277393772D+00 EUMP2 =    -0.15264096973821D+03
 CCSD(T)
 CCSD(T)= -0.15266792581D+03

 The electronic state is 1-A'.
 Alpha  occ. eigenvalues --  -20.58260 -20.52749  -1.35671  -1.30271  -0.73202
 Alpha  occ. eigenvalues --   -0.68010  -0.59479  -0.53479  -0.52750  -0.47414
 Alpha virt. eigenvalues --    0.12093   0.17869   0.19034   0.30502   0.49844
 Alpha virt. eigenvalues --    0.54609   0.55630   0.61873   0.68645   0.73218
 Alpha virt. eigenvalues --    0.74105   0.76767   0.81787   0.82299   0.84312

 Mulliken charges:
               1
     1  O   -0.555482
     2  H    0.281542
     3  H    0.251918
     4  O   -0.487090
     5  H    0.262933
     6  H    0.246179
 Sum of Mulliken charges =   0.00000

 Dipole moment (field-independent basis, Debye):
    X=              0.5700    Y=             -3.3093    Z=              0.0000  Tot=              3.3580
 Quadrupole moment (field-independent basis, Debye-Ang):
   XX=             -9.5391   YY=             -8.6627   ZZ=            -14.7264
   XY=              4.1631   XZ=              0.0000   YZ=              0.0000

 Normal termination of Gaussian 16 at Fri Aug 26 23:22:38 2022.
