 Gaussian 16, Revision A.03,
 Gaussian 16:  ES64L-G16RevA.03 25-Dec-2016

 ------------------
 #p CCSD(T)/cc-pVTZ
 ------------------

 -----------
 H2O_H2O_444
 -----------
 Symbolic Z-matrix:
 Charge =  0 Multiplicity = 1

                         Standard orientation:
 ---------------------------------------------------------------------
 Center     Atomic      Atomic             Coordinates (Angstroms)
 Number     Number       Type             X           Y           Z
 ---------------------------------------------------------------------
      1          8           0        0.030378    1.279601    0.000000
      2          1           0        0.025908    0.297010    0.000000
      3          1           0       -0.897656    1.602492    0.000000
      4          8           0        0.030378   -1.104124   -0.000000
      5          1           0        0.959386   -1.424199   -0.000000
      6          1           0       -0.573685   -1.879118   -0.000000
 ---------------------------------------------------------------------

 SCF Done:  E(RHF) =  -152.095524952     A.U. after   11 cycles
 E2 =    -0.5322140394D+00 EUMP2 =    -0.15262773899118D+03
 CCSD(T)
 CCSD(T)= -0.15265400741D+03

 The electronic state is 1-A'.
 Alpha  occ. eigenvalues --  -20.60397 -20.48276  -1.39192  -1.26944  -0.76206
 Alpha  occ. eigenvalues --   -0.71290  -0.58356  -0.55660  -0.48756  -0.43859
 Alpha virt. eigenvalues --    0.11261   0.17730   0.19848   0.33863   0.47236
 Alpha virt. eigenvalues --    0.53416   0.59917   0.67666   0.69328   0.72179
 Alpha virt. eigenvalues --    0.74985   0.78111   0.79924   0.83581   0.83811

 Mulliken charges:
               1
     1  O   -0.626269
     2  H    0.305461
     3  H    0.231003
     4  O   -0.414150
     5  H    0.261462
     6  H    0.242493
 Sum of Mulliken charges =  -0.00000

 Dipole moment (field-independent basis, Debye):
    X=             -0.9703    Y=             -4.3033    Z=             -0.0000  Tot=              4.4114
 Quadrupole moment (field-independent basis, Debye-Ang):
   XX=             -9.1842   YY=             -9.5137   ZZ=            -14.6590
   XY=             -3.0845   XZ=             -0.0000   YZ=              0.0000

 Normal termination of Gaussian 16 at Fri Aug 26 18:18:18 2022.
