 Gaussian 16, Revision A.03,
 Gaussian 16:  ES64L-G16RevA.03 25-Dec-2016

 ------------------
 #p CCSD(T)/cc-pVTZ
 ------------------

 -----------
 H2O_H2O_477
 -----------
 Symbolic Z-matrix:
 Charge =  0 Multiplicity = 1

                         Standard orientation:
 ---------------------------------------------------------------------
 Center     Atomic      Atomic             Coordinates (Angstroms)
 Number     Number       Type             X           Y           Z
 ---------------------------------------------------------------------
      1          8           0        0.088243   -1.282589    0.000000
      2          1           0        0.087912   -0.299987    0.000000
      3          1           0       -0.841143   -1.601568    0.000000
      4          8           0        0.088243    1.138296    0.000000
      5          1           0        0.216171    2.112535    0.000000
      6          1           0       -0.874827    0.943355    0.000000
 ---------------------------------------------------------------------

 SCF Done:  E(RHF) =  -152.089376918     A.U. after   11 cycles
 E2 =    -0.5335003552D+00 EUMP2 =    -0.15262287727312D+03
 CCSD(T)
 CCSD(T)= -0.15264931889D+03

 The electronic state is 1-A'.
 Alpha  occ. eigenvalues --  -20.60122 -20.50698  -1.39084  -1.28890  -0.78047
 Alpha  occ. eigenvalues --   -0.68548  -0.59223  -0.55283  -0.51426  -0.45841
 Alpha virt. eigenvalues --    0.11162   0.16391   0.20942   0.32454   0.48698
 Alpha virt. eigenvalues --    0.52037   0.59117   0.65008   0.71505   0.71508
 Alpha virt. eigenvalues --    0.74080   0.77587   0.78766   0.82979   0.84107

 Mulliken charges:
               1
     1  O   -0.572073
     2  H    0.286510
     3  H    0.213241
     4  O   -0.387820
     5  H    0.229730
     6  H    0.230413
 Sum of Mulliken charges =  -0.00000

 Dipole moment (field-independent basis, Debye):
    X=             -2.8248    Y=              3.5230    Z=              0.0000  Tot=              4.5157
 Quadrupole moment (field-independent basis, Debye-Ang):
   XX=            -10.5791   YY=             -9.4280   ZZ=            -14.6310
   XY=              2.2803   XZ=              0.0000   YZ=              0.0000

 Normal termination of Gaussian 16 at Fri Aug 26 18:31:50 2022.
