 Gaussian 16, Revision A.03,
 Gaussian 16:  ES64L-G16RevA.03 25-Dec-2016

 ------------------
 #p CCSD(T)/cc-pVTZ
 ------------------

 ------------
 H2O_H2O_4066
 ------------
 Symbolic Z-matrix:
 Charge =  0 Multiplicity = 1

                         Standard orientation:
 ---------------------------------------------------------------------
 Center     Atomic      Atomic             Coordinates (Angstroms)
 Number     Number       Type             X           Y           Z
 ---------------------------------------------------------------------
      1          8           0        0.041115    2.727945    0.000000
      2          1           0        0.039448    1.745345    0.000000
      3          1           0       -0.887835    3.048188    0.000000
      4          8           0        0.041115   -2.547997    0.000000
      5          1           0        0.891238   -3.040741    0.000000
      6          1           0       -0.700699   -3.192371    0.000000
 ---------------------------------------------------------------------

 SCF Done:  E(RHF) =  -152.108729503     A.U. after   10 cycles
 E2 =    -0.5258135322D+00 EUMP2 =    -0.15263454303543D+03
 CCSD(T)
 CCSD(T)= -0.15266172966D+03

 The electronic state is 1-A'.
 Alpha  occ. eigenvalues --  -20.56274 -20.54832  -1.33572  -1.32142  -0.70975
 Alpha  occ. eigenvalues --   -0.69543  -0.57078  -0.55619  -0.50694  -0.49269
 Alpha virt. eigenvalues --    0.13128   0.15166   0.19643   0.21287   0.53562
 Alpha virt. eigenvalues --    0.54916   0.56605   0.57827   0.66678   0.69055
 Alpha virt. eigenvalues --    0.78199   0.79453   0.79580   0.79776   0.82865

 Mulliken charges:
               1
     1  O   -0.515194
     2  H    0.261479
     3  H    0.253316
     4  O   -0.515641
     5  H    0.258770
     6  H    0.257271
 Sum of Mulliken charges =  -0.00000

 Dipole moment (field-independent basis, Debye):
    X=             -1.4085    Y=             -3.1735    Z=              0.0000  Tot=              3.4721
 Quadrupole moment (field-independent basis, Debye-Ang):
   XX=             -9.1492   YY=             -6.5204   ZZ=            -14.7159
   XY=             -5.6970   XZ=              0.0000   YZ=              0.0000

 Normal termination of Gaussian 16 at Sat Aug 27 23:06:39 2022.
