 Gaussian 16, Revision A.03,
 Gaussian 16:  ES64L-G16RevA.03 25-Dec-2016

 ------------------
 #p CCSD(T)/cc-pVTZ
 ------------------

 -----------
 H2O_H2O_720
 -----------
 Symbolic Z-matrix:
 Charge =  0 Multiplicity = 1

                         Standard orientation:
 ---------------------------------------------------------------------
 Center     Atomic      Atomic             Coordinates (Angstroms)
 Number     Number       Type             X           Y           Z
 ---------------------------------------------------------------------
      1          8           0        0.026819    1.388014    0.000000
      2          1           0        0.022496    0.405422    0.000000
      3          1           0       -0.901263    1.710766   -0.000000
      4          8           0        0.026819   -1.214888    0.000000
      5          1           0        0.974812   -1.473378    0.000000
      6          1           0       -0.525143   -2.027813   -0.000000
 ---------------------------------------------------------------------

 SCF Done:  E(RHF) =  -152.108370670     A.U. after   10 cycles
 E2 =    -0.5301298365D+00 EUMP2 =    -0.15263850050612D+03
 CCSD(T)
 CCSD(T)= -0.15266513170D+03

 The electronic state is 1-A'.
 Alpha  occ. eigenvalues --  -20.59485 -20.50344  -1.37432  -1.28381  -0.74751
 Alpha  occ. eigenvalues --   -0.68849  -0.59668  -0.54297  -0.50934  -0.45433
 Alpha virt. eigenvalues --    0.11678   0.18247   0.19118   0.33358   0.47905
 Alpha virt. eigenvalues --    0.54175   0.57802   0.65718   0.68273   0.72343
 Alpha virt. eigenvalues --    0.73173   0.77462   0.80890   0.83498   0.84127

 Mulliken charges:
               1
     1  O   -0.596463
     2  H    0.303262
     3  H    0.241007
     4  O   -0.455582
     5  H    0.262473
     6  H    0.245303
 Sum of Mulliken charges =  -0.00000

 Dipole moment (field-independent basis, Debye):
    X=             -0.8792    Y=             -3.9036    Z=             -0.0000  Tot=              4.0014
 Quadrupole moment (field-independent basis, Debye-Ang):
   XX=             -9.2634   YY=             -9.1145   ZZ=            -14.6991
   XY=             -3.3989   XZ=              0.0000   YZ=             -0.0000

 Normal termination of Gaussian 16 at Fri Aug 26 20:05:33 2022.
