 Gaussian 16, Revision A.03,
 Gaussian 16:  ES64L-G16RevA.03 25-Dec-2016

 ------------------
 #p CCSD(T)/cc-pVTZ
 ------------------

 ------------
 H2O_H2O_4667
 ------------
 Symbolic Z-matrix:
 Charge =  0 Multiplicity = 1

                         Standard orientation:
 ---------------------------------------------------------------------
 Center     Atomic      Atomic             Coordinates (Angstroms)
 Number     Number       Type             X           Y           Z
 ---------------------------------------------------------------------
      1          8           0        0.037406    2.966755    0.000000
      2          1           0        0.035768    1.984155    0.000000
      3          1           0       -0.891555    3.286970    0.000000
      4          8           0        0.037406   -2.787757   -0.000000
      5          1           0        0.917949   -3.223819   -0.000000
      6          1           0       -0.660656   -3.479289   -0.000000
 ---------------------------------------------------------------------

 SCF Done:  E(RHF) =  -152.108391538     A.U. after   10 cycles
 E2 =    -0.5258019398D+00 EUMP2 =    -0.15263419347752D+03
 CCSD(T)
 CCSD(T)= -0.15266139221D+03

 The electronic state is 1-A'.
 Alpha  occ. eigenvalues --  -20.56154 -20.54982  -1.33456  -1.32289  -0.70860
 Alpha  occ. eigenvalues --   -0.69692  -0.56949  -0.55760  -0.50575  -0.49412
 Alpha virt. eigenvalues --    0.13438   0.14872   0.19710   0.20993   0.53675
 Alpha virt. eigenvalues --    0.54838   0.56692   0.57791   0.66921   0.68651
 Alpha virt. eigenvalues --    0.78309   0.79445   0.79686   0.80330   0.82525

 Mulliken charges:
               1
     1  O   -0.513925
     2  H    0.260049
     3  H    0.253795
     4  O   -0.514566
     5  H    0.257791
     6  H    0.256856
 Sum of Mulliken charges =  -0.00000

 Dipole moment (field-independent basis, Debye):
    X=             -1.2836    Y=             -3.1376    Z=             -0.0000  Tot=              3.3900
 Quadrupole moment (field-independent basis, Debye-Ang):
   XX=             -9.1597   YY=             -6.1885   ZZ=            -14.7147
   XY=             -6.3547   XZ=             -0.0000   YZ=              0.0000

 Normal termination of Gaussian 16 at Sun Aug 28 04:46:54 2022.
