 Gaussian 16, Revision A.03,
 Gaussian 16:  ES64L-G16RevA.03 25-Dec-2016

 ------------------
 #p CCSD(T)/cc-pVTZ
 ------------------

 ------------
 H2O_H2O_1548
 ------------
 Symbolic Z-matrix:
 Charge =  0 Multiplicity = 1

                         Standard orientation:
 ---------------------------------------------------------------------
 Center     Atomic      Atomic             Coordinates (Angstroms)
 Number     Number       Type             X           Y           Z
 ---------------------------------------------------------------------
      1          8           0       -0.016719    1.711777    0.000000
      2          1           0       -0.012746    0.729183    0.000000
      3          1           0        0.911478    2.034199    0.000000
      4          8           0       -0.016719   -1.548425    0.000000
      5          1           0       -0.996949   -1.616653    0.000000
      6          1           0        0.365720   -2.453547    0.000000
 ---------------------------------------------------------------------

 SCF Done:  E(RHF) =  -152.113095432     A.U. after   10 cycles
 E2 =    -0.5270000499D+00 EUMP2 =    -0.15264009548168D+03
 CCSD(T)
 CCSD(T)= -0.15266711677D+03

 The electronic state is 1-A'.
 Alpha  occ. eigenvalues --  -20.57808 -20.53374  -1.35124  -1.30796  -0.72592
 Alpha  occ. eigenvalues --   -0.68314  -0.58916  -0.54156  -0.52238  -0.47951
 Alpha virt. eigenvalues --    0.12163   0.17470   0.19147   0.28653   0.50997
 Alpha virt. eigenvalues --    0.54374   0.55765   0.60447   0.68860   0.73947
 Alpha virt. eigenvalues --    0.74384   0.77322   0.81203   0.82863   0.84277

 Mulliken charges:
               1
     1  O   -0.542375
     2  H    0.273656
     3  H    0.253159
     4  O   -0.501623
     5  H    0.263078
     6  H    0.254104
 Sum of Mulliken charges =  -0.00000

 Dipole moment (field-independent basis, Debye):
    X=              0.5716    Y=             -3.1861    Z=              0.0000  Tot=              3.2370
 Quadrupole moment (field-independent basis, Debye-Ang):
   XX=             -9.5436   YY=             -8.4729   ZZ=            -14.7301
   XY=              4.4830   XZ=              0.0000   YZ=              0.0000

 Normal termination of Gaussian 16 at Sat Aug 27 23:03:57 2022.
