 Gaussian 16, Revision A.03,
 Gaussian 16:  ES64L-G16RevA.03 25-Dec-2016

 ------------------
 #p CCSD(T)/cc-pVTZ
 ------------------

 ------------
 H2O_H2O_2031
 ------------
 Symbolic Z-matrix:
 Charge =  0 Multiplicity = 1

                         Standard orientation:
 ---------------------------------------------------------------------
 Center     Atomic      Atomic             Coordinates (Angstroms)
 Number     Number       Type             X           Y           Z
 ---------------------------------------------------------------------
      1          8           0        0.076770    1.911112   -0.000000
      2          1           0        0.076019    0.928511   -0.000000
      3          1           0       -0.852479    2.230489   -0.000000
      4          8           0        0.076770   -1.747926    0.000000
      5          1           0        0.452102   -2.656018    0.000000
      6          1           0       -0.903965   -1.808468    0.000000
 ---------------------------------------------------------------------

 SCF Done:  E(RHF) =  -152.110811828     A.U. after   10 cycles
 E2 =    -0.5265302239D+00 EUMP2 =    -0.15263734205241D+03
 CCSD(T)
 CCSD(T)= -0.15266443239D+03

 The electronic state is 1-A'.
 Alpha  occ. eigenvalues --  -20.57313 -20.54143  -1.34584  -1.31481  -0.72021
 Alpha  occ. eigenvalues --   -0.68863  -0.58180  -0.54923  -0.51704  -0.48613
 Alpha virt. eigenvalues --    0.11887   0.16506   0.19543   0.25679   0.51782
 Alpha virt. eigenvalues --    0.55719   0.56251   0.58178   0.68903   0.72776
 Alpha virt. eigenvalues --    0.76297   0.78560   0.80375   0.83330   0.83396

 Mulliken charges:
               1
     1  O   -0.521802
     2  H    0.267531
     3  H    0.245527
     4  O   -0.503879
     5  H    0.259890
     6  H    0.252733
 Sum of Mulliken charges =  -0.00000

 Dipole moment (field-independent basis, Debye):
    X=             -2.5932    Y=             -3.0565    Z=              0.0000  Tot=              4.0084
 Quadrupole moment (field-independent basis, Debye-Ang):
   XX=             -9.9722   YY=             -8.2375   ZZ=            -14.7227
   XY=             -3.1437   XZ=              0.0000   YZ=             -0.0000

 Normal termination of Gaussian 16 at Sun Aug 28 03:44:25 2022.
