 Gaussian 16, Revision A.03,
 Gaussian 16:  ES64L-G16RevA.03 25-Dec-2016

 ------------------
 #p CCSD(T)/cc-pVTZ
 ------------------

 -----------
 H2O_H2O_504
 -----------
 Symbolic Z-matrix:
 Charge =  0 Multiplicity = 1

                         Standard orientation:
 ---------------------------------------------------------------------
 Center     Atomic      Atomic             Coordinates (Angstroms)
 Number     Number       Type             X           Y           Z
 ---------------------------------------------------------------------
      1          8           0        0.082829   -1.298087    0.000000
      2          1           0        0.082124   -0.315485    0.000000
      3          1           0       -0.846435   -1.617420    0.000000
      4          8           0        0.082829    1.143624    0.000000
      5          1           0        0.336464    2.092926    0.000000
      6          1           0       -0.897421    1.075682    0.000000
 ---------------------------------------------------------------------

 SCF Done:  E(RHF) =  -152.094256642     A.U. after   11 cycles
 E2 =    -0.5328335872D+00 EUMP2 =    -0.15262709022891D+03
 CCSD(T)
 CCSD(T)= -0.15265354063D+03

 The electronic state is 1-A'.
 Alpha  occ. eigenvalues --  -20.60090 -20.50343  -1.38798  -1.28556  -0.77190
 Alpha  occ. eigenvalues --   -0.69102  -0.59058  -0.55188  -0.51027  -0.45511
 Alpha virt. eigenvalues --    0.11159   0.16545   0.20645   0.32687   0.48594
 Alpha virt. eigenvalues --    0.52644   0.59157   0.64211   0.71597   0.71819
 Alpha virt. eigenvalues --    0.74075   0.78312   0.78670   0.83503   0.84178

 Mulliken charges:
               1
     1  O   -0.580170
     2  H    0.292895
     3  H    0.216217
     4  O   -0.395015
     5  H    0.231926
     6  H    0.234147
 Sum of Mulliken charges =  -0.00000

 Dipole moment (field-independent basis, Debye):
    X=             -2.6498    Y=              3.7115    Z=              0.0000  Tot=              4.5603
 Quadrupole moment (field-independent basis, Debye-Ang):
   XX=            -10.2736   YY=             -9.3509   ZZ=            -14.6454
   XY=              2.5204   XZ=              0.0000   YZ=              0.0000

 Normal termination of Gaussian 16 at Fri Aug 26 18:42:15 2022.
