 Gaussian 16, Revision A.03,
 Gaussian 16:  ES64L-G16RevA.03 25-Dec-2016

 ------------------
 #p CCSD(T)/cc-pVTZ
 ------------------

 ------------
 H2O_H2O_3732
 ------------
 Symbolic Z-matrix:
 Charge =  0 Multiplicity = 1

                         Standard orientation:
 ---------------------------------------------------------------------
 Center     Atomic      Atomic             Coordinates (Angstroms)
 Number     Number       Type             X           Y           Z
 ---------------------------------------------------------------------
      1          8           0        0.073530    2.591247   -0.000000
      2          1           0        0.072873    1.608646   -0.000000
      3          1           0       -0.855750    2.910535   -0.000000
      4          8           0        0.073530   -2.424295    0.000000
      5          1           0        0.507534   -3.305855    0.000000
      6          1           0       -0.901134   -2.548944    0.000000
 ---------------------------------------------------------------------

 SCF Done:  E(RHF) =  -152.108515407     A.U. after   10 cycles
 E2 =    -0.5258757751D+00 EUMP2 =    -0.15263439118234D+03
 CCSD(T)
 CCSD(T)= -0.15266157737D+03

 The electronic state is 1-A'.
 Alpha  occ. eigenvalues --  -20.56375 -20.54893  -1.33671  -1.32202  -0.71081
 Alpha  occ. eigenvalues --   -0.69595  -0.57163  -0.55670  -0.50789  -0.49324
 Alpha virt. eigenvalues --    0.12659   0.15274   0.19414   0.21647   0.53306
 Alpha virt. eigenvalues --    0.55045   0.56483   0.57958   0.66767   0.69140
 Alpha virt. eigenvalues --    0.78112   0.78830   0.79529   0.80438   0.82794

 Mulliken charges:
               1
     1  O   -0.513269
     2  H    0.261089
     3  H    0.251479
     4  O   -0.513623
     5  H    0.259656
     6  H    0.254668
 Sum of Mulliken charges =  -0.00000

 Dipole moment (field-independent basis, Debye):
    X=             -2.5149    Y=             -2.9576    Z=              0.0000  Tot=              3.8823
 Quadrupole moment (field-independent basis, Debye-Ang):
   XX=             -9.8117   YY=             -7.3632   ZZ=            -14.7151
   XY=             -3.7450   XZ=              0.0000   YZ=              0.0000

 Normal termination of Gaussian 16 at Fri Aug 26 23:21:59 2022.
