 Gaussian 16, Revision A.03,
 Gaussian 16:  ES64L-G16RevA.03 25-Dec-2016

 ------------------
 #p CCSD(T)/cc-pVTZ
 ------------------

 ------------
 H2O_H2O_2129
 ------------
 Symbolic Z-matrix:
 Charge =  0 Multiplicity = 1

                         Standard orientation:
 ---------------------------------------------------------------------
 Center     Atomic      Atomic             Coordinates (Angstroms)
 Number     Number       Type             X           Y           Z
 ---------------------------------------------------------------------
      1          8           0        0.082810   -1.946283    0.000000
      2          1           0        0.082349   -0.963681    0.000000
      3          1           0       -0.846534   -2.265385    0.000000
      4          8           0        0.082810    1.791778    0.000000
      5          1           0        0.336681    2.741018    0.000000
      6          1           0       -0.897457    1.724082    0.000000
 ---------------------------------------------------------------------

 SCF Done:  E(RHF) =  -152.110048751     A.U. after   10 cycles
 E2 =    -0.5264868130D+00 EUMP2 =    -0.15263653556436D+03
 CCSD(T)
 CCSD(T)= -0.15266364568D+03

 The electronic state is 1-A'.
 Alpha  occ. eigenvalues --  -20.57214 -20.54421  -1.34493  -1.31745  -0.71948
 Alpha  occ. eigenvalues --   -0.69109  -0.58044  -0.55189  -0.51606  -0.48871
 Alpha virt. eigenvalues --    0.11762   0.16295   0.19701   0.25170   0.52307
 Alpha virt. eigenvalues --    0.55769   0.56451   0.57864   0.68701   0.72716
 Alpha virt. eigenvalues --    0.76564   0.79020   0.80122   0.82299   0.83340

 Mulliken charges:
               1
     1  O   -0.518614
     2  H    0.266138
     3  H    0.245669
     4  O   -0.503306
     5  H    0.259200
     6  H    0.250913
 Sum of Mulliken charges =   0.00000

 Dipole moment (field-independent basis, Debye):
    X=             -2.7992    Y=              2.8733    Z=              0.0000  Tot=              4.0114
 Quadrupole moment (field-independent basis, Debye-Ang):
   XX=            -10.2715   YY=             -8.4421   ZZ=            -14.7195
   XY=              2.8556   XZ=              0.0000   YZ=              0.0000

 Normal termination of Gaussian 16 at Sun Aug 28 04:35:08 2022.
