 Gaussian 16, Revision A.03,
 Gaussian 16:  ES64L-G16RevA.03 25-Dec-2016

 ------------------
 #p CCSD(T)/cc-pVTZ
 ------------------

 -----------
 H2O_H2O_307
 -----------
 Symbolic Z-matrix:
 Charge =  0 Multiplicity = 1

                         Standard orientation:
 ---------------------------------------------------------------------
 Center     Atomic      Atomic             Coordinates (Angstroms)
 Number     Number       Type             X           Y           Z
 ---------------------------------------------------------------------
      1          8           0        0.073597   -1.225035    0.000000
      2          1           0        0.072153   -0.242434    0.000000
      3          1           0       -0.855427   -1.545066    0.000000
      4          8           0        0.073597    1.058200    0.000000
      5          1           0        0.506896    1.940106    0.000000
      6          1           0       -0.901166    1.182069    0.000000
 ---------------------------------------------------------------------

 SCF Done:  E(RHF) =  -152.080541778     A.U. after   11 cycles
 E2 =    -0.5343763018D+00 EUMP2 =    -0.15261491807937D+03
 CCSD(T)
 CCSD(T)= -0.15264098635D+03

 The electronic state is 1-A'.
 Alpha  occ. eigenvalues --  -20.60905 -20.47977  -1.40504  -1.26865  -0.78284
 Alpha  occ. eigenvalues --   -0.71799  -0.57396  -0.56470  -0.48554  -0.43692
 Alpha virt. eigenvalues --    0.10863   0.16512   0.20787   0.32841   0.48746
 Alpha virt. eigenvalues --    0.52522   0.60029   0.64364   0.71863   0.72442
 Alpha virt. eigenvalues --    0.76470   0.78159   0.79923   0.84253   0.84527

 Mulliken charges:
               1
     1  O   -0.612663
     2  H    0.294188
     3  H    0.208890
     4  O   -0.365483
     5  H    0.235609
     6  H    0.239459
 Sum of Mulliken charges =  -0.00000

 Dipole moment (field-independent basis, Debye):
    X=             -2.3040    Y=              4.2808    Z=              0.0000  Tot=              4.8615
 Quadrupole moment (field-independent basis, Debye-Ang):
   XX=             -9.8082   YY=             -9.6424   ZZ=            -14.6141
   XY=              2.6799   XZ=              0.0000   YZ=              0.0000

 Normal termination of Gaussian 16 at Fri Aug 26 17:19:18 2022.
