 Gaussian 16, Revision A.03,
 Gaussian 16:  ES64L-G16RevA.03 25-Dec-2016

 ------------------
 #p CCSD(T)/cc-pVTZ
 ------------------

 ------------
 H2O_H2O_4926
 ------------
 Symbolic Z-matrix:
 Charge =  0 Multiplicity = 1

                         Standard orientation:
 ---------------------------------------------------------------------
 Center     Atomic      Atomic             Coordinates (Angstroms)
 Number     Number       Type             X           Y           Z
 ---------------------------------------------------------------------
      1          8           0        0.090683   -3.054560    0.000000
      2          1           0        0.090619   -2.071959    0.000000
      3          1           0       -0.838789   -3.373288    0.000000
      4          8           0        0.090683    2.915848    0.000000
      5          1           0        0.154884    3.896350    0.000000
      6          1           0       -0.857645    2.658593    0.000000
 ---------------------------------------------------------------------

 SCF Done:  E(RHF) =  -152.107644814     A.U. after   10 cycles
 E2 =    -0.5258617288D+00 EUMP2 =    -0.15263350654300D+03
 CCSD(T)
 CCSD(T)= -0.15266072196D+03

 The electronic state is 1-A'.
 Alpha  occ. eigenvalues --  -20.56141 -20.55345  -1.33442  -1.32646  -0.70855
 Alpha  occ. eigenvalues --   -0.70045  -0.56902  -0.56098  -0.50554  -0.49759
 Alpha virt. eigenvalues --    0.13168   0.14561   0.19135   0.21200   0.53471
 Alpha virt. eigenvalues --    0.54682   0.56616   0.57564   0.67103   0.68272
 Alpha virt. eigenvalues --    0.78334   0.79115   0.79702   0.80900   0.81675

 Mulliken charges:
               1
     1  O   -0.509748
     2  H    0.257163
     3  H    0.252567
     4  O   -0.510555
     5  H    0.257627
     6  H    0.252947
 Sum of Mulliken charges =  -0.00000

 Dipole moment (field-independent basis, Debye):
    X=             -3.1132    Y=              2.4266    Z=              0.0000  Tot=              3.9471
 Quadrupole moment (field-independent basis, Debye-Ang):
   XX=            -10.6986   YY=             -8.8408   ZZ=            -14.7120
   XY=              2.4348   XZ=              0.0000   YZ=              0.0000

 Normal termination of Gaussian 16 at Sun Aug 28 06:58:02 2022.
