 Gaussian 16, Revision A.03,
 Gaussian 16:  ES64L-G16RevA.03 25-Dec-2016

 ------------------
 #p CCSD(T)/cc-pVTZ
 ------------------

 ------------
 H2O_H2O_1116
 ------------
 Symbolic Z-matrix:
 Charge =  0 Multiplicity = 1

                         Standard orientation:
 ---------------------------------------------------------------------
 Center     Atomic      Atomic             Coordinates (Angstroms)
 Number     Number       Type             X           Y           Z
 ---------------------------------------------------------------------
      1          8           0        0.041238    1.551203    0.000000
      2          1           0        0.038229    0.568606    0.000000
      3          1           0       -0.887274    1.872715    0.000000
      4          8           0        0.041238   -1.371368    0.000000
      5          1           0        0.890688   -1.865273    0.000000
      6          1           0       -0.701456   -2.014728    0.000000
 ---------------------------------------------------------------------

 SCF Done:  E(RHF) =  -152.114026997     A.U. after   10 cycles
 E2 =    -0.5281745254D+00 EUMP2 =    -0.15264220152281D+03
 CCSD(T)
 CCSD(T)= -0.15266909079D+03

 The electronic state is 1-A'.
 Alpha  occ. eigenvalues --  -20.58601 -20.51917  -1.36025  -1.29538  -0.73271
 Alpha  occ. eigenvalues --   -0.67949  -0.59663  -0.53110  -0.52644  -0.46666
 Alpha virt. eigenvalues --    0.11919   0.18154   0.18798   0.31387   0.48840
 Alpha virt. eigenvalues --    0.54730   0.56192   0.61111   0.68815   0.71711
 Alpha virt. eigenvalues --    0.72998   0.77319   0.82353   0.82595   0.84890

 Mulliken charges:
               1
     1  O   -0.562215
     2  H    0.292573
     3  H    0.243145
     4  O   -0.497831
     5  H    0.266421
     6  H    0.257908
 Sum of Mulliken charges =  -0.00000

 Dipole moment (field-independent basis, Debye):
    X=             -1.3679    Y=             -3.7165    Z=             -0.0000  Tot=              3.9602
 Quadrupole moment (field-independent basis, Debye-Ang):
   XX=             -9.1466   YY=             -8.6435   ZZ=            -14.7308
   XY=             -3.5622   XZ=             -0.0000   YZ=             -0.0000

 Normal termination of Gaussian 16 at Fri Aug 26 22:33:43 2022.
