 Gaussian 16, Revision A.03,
 Gaussian 16:  ES64L-G16RevA.03 25-Dec-2016

 ------------------
 #p CCSD(T)/cc-pVTZ
 ------------------

 ------------
 H2O_H2O_3475
 ------------
 Symbolic Z-matrix:
 Charge =  0 Multiplicity = 1

                         Standard orientation:
 ---------------------------------------------------------------------
 Center     Atomic      Atomic             Coordinates (Angstroms)
 Number     Number       Type             X           Y           Z
 ---------------------------------------------------------------------
      1          8           0        0.092949   -2.472970    0.000000
      2          1           0        0.092949   -1.490369    0.000000
      3          1           0       -0.836544   -2.791637    0.000000
      4          8           0        0.092949    2.340183    0.000000
      5          1           0        0.092949    3.322785    0.000000
      6          1           0       -0.836544    2.021516    0.000000
 ---------------------------------------------------------------------

 SCF Done:  E(RHF) =  -152.107834114     A.U. after   10 cycles
 E2 =    -0.5259717507D+00 EUMP2 =    -0.15263380586475D+03
 CCSD(T)
 CCSD(T)= -0.15266100582D+03

 The electronic state is 1-A'.
 Alpha  occ. eigenvalues --  -20.56466 -20.55237  -1.33764  -1.32538  -0.71190
 Alpha  occ. eigenvalues --   -0.69925  -0.57227  -0.55988  -0.50873  -0.49650
 Alpha virt. eigenvalues --    0.11739   0.15288   0.19024   0.22818   0.53513
 Alpha virt. eigenvalues --    0.54843   0.56462   0.57965   0.67041   0.68829
 Alpha virt. eigenvalues --    0.78033   0.78670   0.79223   0.81335   0.82436

 Mulliken charges:
               1
     1  O   -0.509703
     2  H    0.258588
     3  H    0.250534
     4  O   -0.509791
     5  H    0.259553
     6  H    0.250818
 Sum of Mulliken charges =  -0.00000

 Dipole moment (field-independent basis, Debye):
    X=             -3.1744    Y=              2.3584    Z=              0.0000  Tot=              3.9546
 Quadrupole moment (field-independent basis, Debye-Ang):
   XX=            -10.8522   YY=             -9.2443   ZZ=            -14.7121
   XY=              2.1519   XZ=              0.0000   YZ=              0.0000

 Normal termination of Gaussian 16 at Fri Aug 26 21:54:12 2022.
