 Gaussian 16, Revision A.03,
 Gaussian 16:  ES64L-G16RevA.03 25-Dec-2016

 ------------------
 #p CCSD(T)/cc-pVTZ
 ------------------

 -----------
 H2O_H2O_364
 -----------
 Symbolic Z-matrix:
 Charge =  0 Multiplicity = 1

                         Standard orientation:
 ---------------------------------------------------------------------
 Center     Atomic      Atomic             Coordinates (Angstroms)
 Number     Number       Type             X           Y           Z
 ---------------------------------------------------------------------
      1          8           0        0.048727    1.252264    0.000000
      2          1           0        0.045487    0.269668    0.000000
      3          1           0       -0.879710    1.573994    0.000000
      4          8           0        0.048727   -1.072032   -0.000000
      5          1           0        0.826301   -1.672768   -0.000000
      6          1           0       -0.771715   -1.612753   -0.000000
 ---------------------------------------------------------------------

 SCF Done:  E(RHF) =  -152.089678431     A.U. after   11 cycles
 E2 =    -0.5329160806D+00 EUMP2 =    -0.15262259451126D+03
 CCSD(T)
 CCSD(T)= -0.15264872955D+03

 The electronic state is 1-A'.
 Alpha  occ. eigenvalues --  -20.60771 -20.47473  -1.39879  -1.26409  -0.76022
 Alpha  occ. eigenvalues --   -0.73280  -0.57430  -0.56197  -0.47977  -0.43242
 Alpha virt. eigenvalues --    0.10994   0.17234   0.20258   0.33518   0.47244
 Alpha virt. eigenvalues --    0.53129   0.62138   0.64278   0.70626   0.72058
 Alpha virt. eigenvalues --    0.76361   0.79421   0.80813   0.82149   0.83887

 Mulliken charges:
               1
     1  O   -0.630752
     2  H    0.310851
     3  H    0.219490
     4  O   -0.404111
     5  H    0.257024
     6  H    0.247499
 Sum of Mulliken charges =  -0.00000

 Dipole moment (field-independent basis, Debye):
    X=             -1.5324    Y=             -4.5233    Z=             -0.0000  Tot=              4.7758
 Quadrupole moment (field-independent basis, Debye-Ang):
   XX=             -9.1531   YY=             -9.6711   ZZ=            -14.6459
   XY=             -2.9228   XZ=             -0.0000   YZ=              0.0000

 Normal termination of Gaussian 16 at Fri Aug 26 17:43:08 2022.
