 Gaussian 16, Revision A.03,
 Gaussian 16:  ES64L-G16RevA.03 25-Dec-2016

 ------------------
 #p CCSD(T)/cc-pVTZ
 ------------------

 ------------
 H2O_H2O_4233
 ------------
 Symbolic Z-matrix:
 Charge =  0 Multiplicity = 1

                         Standard orientation:
 ---------------------------------------------------------------------
 Center     Atomic      Atomic             Coordinates (Angstroms)
 Number     Number       Type             X           Y           Z
 ---------------------------------------------------------------------
      1          8           0        0.070186    2.792485   -0.000000
      2          1           0        0.069473    1.809884   -0.000000
      3          1           0       -0.859075    3.111826   -0.000000
      4          8           0        0.070186   -2.622220    0.000000
      5          1           0        0.560870   -3.473535    0.000000
      6          1           0       -0.894249   -2.810294    0.000000
 ---------------------------------------------------------------------

 SCF Done:  E(RHF) =  -152.108290934     A.U. after   10 cycles
 E2 =    -0.5258383844D+00 EUMP2 =    -0.15263412931883D+03
 CCSD(T)
 CCSD(T)= -0.15266132687D+03

 The electronic state is 1-A'.
 Alpha  occ. eigenvalues --  -20.56246 -20.54981  -1.33547  -1.32288  -0.70955
 Alpha  occ. eigenvalues --   -0.69685  -0.57033  -0.55754  -0.50663  -0.49408
 Alpha virt. eigenvalues --    0.13083   0.14994   0.19514   0.21229   0.53431
 Alpha virt. eigenvalues --    0.54925   0.56585   0.57810   0.66741   0.68865
 Alpha virt. eigenvalues --    0.78228   0.79278   0.79450   0.80429   0.82683

 Mulliken charges:
               1
     1  O   -0.512800
     2  H    0.260317
     3  H    0.252251
     4  O   -0.513732
     5  H    0.258956
     6  H    0.255008
 Sum of Mulliken charges =  -0.00000

 Dipole moment (field-independent basis, Debye):
    X=             -2.4049    Y=             -2.9965    Z=             -0.0000  Tot=              3.8423
 Quadrupole moment (field-independent basis, Debye-Ang):
   XX=             -9.6797   YY=             -6.9488   ZZ=            -14.7143
   XY=             -4.1111   XZ=              0.0000   YZ=             -0.0000

 Normal termination of Gaussian 16 at Sun Aug 28 00:59:36 2022.
