 Gaussian 16, Revision A.03,
 Gaussian 16:  ES64L-G16RevA.03 25-Dec-2016

 ------------------
 #p CCSD(T)/cc-pVTZ
 ------------------

 ------------
 H2O_H2O_4207
 ------------
 Symbolic Z-matrix:
 Charge =  0 Multiplicity = 1

                         Standard orientation:
 ---------------------------------------------------------------------
 Center     Atomic      Atomic             Coordinates (Angstroms)
 Number     Number       Type             X           Y           Z
 ---------------------------------------------------------------------
      1          8           0        0.073526    2.780717   -0.000000
      2          1           0        0.072915    1.798116   -0.000000
      3          1           0       -0.855769    3.099962    0.000000
      4          8           0        0.073526   -2.613758   -0.000000
      5          1           0        0.507571   -3.495298   -0.000000
      6          1           0       -0.901132   -2.738453    0.000000
 ---------------------------------------------------------------------

 SCF Done:  E(RHF) =  -152.108238153     A.U. after   10 cycles
 E2 =    -0.5258447222D+00 EUMP2 =    -0.15263408287502D+03
 CCSD(T)
 CCSD(T)= -0.15266128137D+03

 The electronic state is 1-A'.
 Alpha  occ. eigenvalues --  -20.56254 -20.55007  -1.33554  -1.32313  -0.70963
 Alpha  occ. eigenvalues --   -0.69710  -0.57038  -0.55778  -0.50670  -0.49433
 Alpha virt. eigenvalues --    0.13018   0.14991   0.19454   0.21285   0.53376
 Alpha virt. eigenvalues --    0.54940   0.56572   0.57815   0.66739   0.68857
 Alpha virt. eigenvalues --    0.78222   0.79236   0.79426   0.80545   0.82652

 Mulliken charges:
               1
     1  O   -0.512477
     2  H    0.260118
     3  H    0.252123
     4  O   -0.513438
     5  H    0.258991
     6  H    0.254684
 Sum of Mulliken charges =  -0.00000

 Dipole moment (field-independent basis, Debye):
    X=             -2.5191    Y=             -2.9390    Z=              0.0000  Tot=              3.8709
 Quadrupole moment (field-independent basis, Debye-Ang):
   XX=             -9.8098   YY=             -7.1486   ZZ=            -14.7141
   XY=             -3.8738   XZ=              0.0000   YZ=              0.0000

 Normal termination of Gaussian 16 at Sun Aug 28 00:49:43 2022.
