 Gaussian 16, Revision A.03,
 Gaussian 16:  ES64L-G16RevA.03 25-Dec-2016

 ------------------
 #p CCSD(T)/cc-pVTZ
 ------------------

 ------------
 H2O_H2O_4579
 ------------
 Symbolic Z-matrix:
 Charge =  0 Multiplicity = 1

                         Standard orientation:
 ---------------------------------------------------------------------
 Center     Atomic      Atomic             Coordinates (Angstroms)
 Number     Number       Type             X           Y           Z
 ---------------------------------------------------------------------
      1          8           0        0.082798    2.923546    0.000000
      2          1           0        0.082495    1.940944    0.000000
      3          1           0       -0.846597    3.242498    0.000000
      4          8           0        0.082798   -2.769015   -0.000000
      5          1           0        0.336821   -3.718213   -0.000000
      6          1           0       -0.897481   -2.701475   -0.000000
 ---------------------------------------------------------------------

 SCF Done:  E(RHF) =  -152.107901250     A.U. after   10 cycles
 E2 =    -0.5258506432D+00 EUMP2 =    -0.15263375189350D+03
 CCSD(T)
 CCSD(T)= -0.15266096049D+03

 The electronic state is 1-A'.
 Alpha  occ. eigenvalues --  -20.56188 -20.55182  -1.33489  -1.32486  -0.70901
 Alpha  occ. eigenvalues --   -0.69883  -0.56960  -0.55943  -0.50603  -0.49602
 Alpha virt. eigenvalues --    0.13115   0.14757   0.19301   0.21225   0.53402
 Alpha virt. eigenvalues --    0.54834   0.56601   0.57710   0.66928   0.68537
 Alpha virt. eigenvalues --    0.78286   0.79266   0.79574   0.80894   0.82060

 Mulliken charges:
               1
     1  O   -0.510967
     2  H    0.258579
     3  H    0.252316
     4  O   -0.511952
     5  H    0.258308
     6  H    0.253715
 Sum of Mulliken charges =  -0.00000

 Dipole moment (field-independent basis, Debye):
    X=             -2.8399    Y=             -2.7102    Z=             -0.0000  Tot=              3.9256
 Quadrupole moment (field-independent basis, Debye-Ang):
   XX=            -10.2440   YY=             -7.7762   ZZ=            -14.7129
   XY=             -3.2115   XZ=             -0.0000   YZ=              0.0000

 Normal termination of Gaussian 16 at Sun Aug 28 04:06:54 2022.
