 Gaussian 16, Revision A.03,
 Gaussian 16:  ES64L-G16RevA.03 25-Dec-2016

 ------------------
 #p CCSD(T)/cc-pVTZ
 ------------------

 ------------
 H2O_H2O_3140
 ------------
 Symbolic Z-matrix:
 Charge =  0 Multiplicity = 1

                         Standard orientation:
 ---------------------------------------------------------------------
 Center     Atomic      Atomic             Coordinates (Angstroms)
 Number     Number       Type             X           Y           Z
 ---------------------------------------------------------------------
      1          8           0        0.044858    2.359230    0.000000
      2          1           0        0.043059    1.376630    0.000000
      3          1           0       -0.884050    2.679598    0.000000
      4          8           0        0.044858   -2.178830    0.000000
      5          1           0        0.860860   -2.726229    0.000000
      6          1           0       -0.737592   -2.773202    0.000000
 ---------------------------------------------------------------------

 SCF Done:  E(RHF) =  -152.109702221     A.U. after   10 cycles
 E2 =    -0.5259078147D+00 EUMP2 =    -0.15263561003603D+03
 CCSD(T)
 CCSD(T)= -0.15266275879D+03

 The electronic state is 1-A'.
 Alpha  occ. eigenvalues --  -20.56585 -20.54494  -1.33867  -1.31813  -0.71267
 Alpha  occ. eigenvalues --   -0.69208  -0.57405  -0.55300  -0.50995  -0.48947
 Alpha virt. eigenvalues --    0.12579   0.15832   0.19487   0.22399   0.53250
 Alpha virt. eigenvalues --    0.55353   0.56401   0.58387   0.67849   0.69349
 Alpha virt. eigenvalues --    0.77907   0.79084   0.79330   0.79882   0.83198

 Mulliken charges:
               1
     1  O   -0.518562
     2  H    0.264030
     3  H    0.252089
     4  O   -0.514851
     5  H    0.259992
     6  H    0.257301
 Sum of Mulliken charges =  -0.00000

 Dipole moment (field-independent basis, Debye):
    X=             -1.5306    Y=             -3.2375    Z=             -0.0000  Tot=              3.5811
 Quadrupole moment (field-independent basis, Debye-Ang):
   XX=             -9.1570   YY=             -7.0924   ZZ=            -14.7193
   XY=             -4.8843   XZ=             -0.0000   YZ=             -0.0000

 Normal termination of Gaussian 16 at Fri Aug 26 19:59:42 2022.
