 Gaussian 16, Revision A.03,
 Gaussian 16:  ES64L-G16RevA.03 25-Dec-2016

 ------------------
 #p CCSD(T)/cc-pVTZ
 ------------------

 ------------
 H2O_H2O_4827
 ------------
 Symbolic Z-matrix:
 Charge =  0 Multiplicity = 1

                         Standard orientation:
 ---------------------------------------------------------------------
 Center     Atomic      Atomic             Coordinates (Angstroms)
 Number     Number       Type             X           Y           Z
 ---------------------------------------------------------------------
      1          8           0        0.088229   -3.017722    0.000000
      2          1           0        0.088093   -2.035121    0.000000
      3          1           0       -0.841220   -3.336518    0.000000
      4          8           0        0.088229    2.873395    0.000000
      5          1           0        0.216349    3.847609    0.000000
      6          1           0       -0.874880    2.678645    0.000000
 ---------------------------------------------------------------------

 SCF Done:  E(RHF) =  -152.107720910     A.U. after   10 cycles
 E2 =    -0.5258575499D+00 EUMP2 =    -0.15263357845962D+03
 CCSD(T)
 CCSD(T)= -0.15266079195D+03

 The electronic state is 1-A'.
 Alpha  occ. eigenvalues --  -20.56153 -20.55293  -1.33454  -1.32595  -0.70867
 Alpha  occ. eigenvalues --   -0.69994  -0.56917  -0.56049  -0.50566  -0.49709
 Alpha virt. eigenvalues --    0.13164   0.14616   0.19195   0.21197   0.53453
 Alpha virt. eigenvalues --    0.54731   0.56614   0.57612   0.67057   0.68347
 Alpha virt. eigenvalues --    0.78321   0.79163   0.79711   0.80922   0.81707

 Mulliken charges:
               1
     1  O   -0.510120
     2  H    0.257601
     3  H    0.252490
     4  O   -0.510987
     5  H    0.257830
     6  H    0.253186
 Sum of Mulliken charges =  -0.00000

 Dipole moment (field-independent basis, Debye):
    X=             -3.0281    Y=              2.5265    Z=              0.0000  Tot=              3.9437
 Quadrupole moment (field-independent basis, Debye-Ang):
   XX=            -10.5487   YY=             -8.4327   ZZ=            -14.7123
   XY=              2.7040   XZ=              0.0000   YZ=              0.0000

 Normal termination of Gaussian 16 at Sun Aug 28 06:11:51 2022.
