 Gaussian 16, Revision A.03,
 Gaussian 16:  ES64L-G16RevA.03 25-Dec-2016

 ------------------
 #p CCSD(T)/cc-pVTZ
 ------------------

 ------------
 H2O_H2O_3346
 ------------
 Symbolic Z-matrix:
 Charge =  0 Multiplicity = 1

                         Standard orientation:
 ---------------------------------------------------------------------
 Center     Atomic      Atomic             Coordinates (Angstroms)
 Number     Number       Type             X           Y           Z
 ---------------------------------------------------------------------
      1          8           0       -0.023201    2.433572    0.000000
      2          1           0       -0.020681    1.450974    0.000000
      3          1           0        0.905471    2.754622    0.000000
      4          8           0       -0.023201   -2.263181    0.000000
      5          1           0       -0.986427   -2.457348    0.000000
      6          1           0        0.472856   -3.111376    0.000000
 ---------------------------------------------------------------------

 SCF Done:  E(RHF) =  -152.109415518     A.U. after   10 cycles
 E2 =    -0.5258626804D+00 EUMP2 =    -0.15263527819884D+03
 CCSD(T)
 CCSD(T)= -0.15266243921D+03

 The electronic state is 1-A'.
 Alpha  occ. eigenvalues --  -20.56486 -20.54684  -1.33776  -1.32000  -0.71180
 Alpha  occ. eigenvalues --   -0.69404  -0.57303  -0.55487  -0.50902  -0.49133
 Alpha virt. eigenvalues --    0.12554   0.15649   0.19372   0.22263   0.53381
 Alpha virt. eigenvalues --    0.55364   0.56508   0.58077   0.67269   0.69326
 Alpha virt. eigenvalues --    0.78001   0.78738   0.79703   0.80238   0.83035

 Mulliken charges:
               1
     1  O   -0.518120
     2  H    0.262439
     3  H    0.254107
     4  O   -0.515928
     5  H    0.258822
     6  H    0.258679
 Sum of Mulliken charges =  -0.00000

 Dipole moment (field-independent basis, Debye):
    X=              0.7944    Y=             -3.0401    Z=              0.0000  Tot=              3.1421
 Quadrupole moment (field-independent basis, Debye-Ang):
   XX=             -9.3612   YY=             -7.3721   ZZ=            -14.7183
   XY=              6.0147   XZ=              0.0000   YZ=              0.0000

 CCSD(T)=-152.6624392\RMSD=6.943e-09\PG=CS [SG(H4O2)]\\@
 Normal termination of Gaussian 16 at Fri Aug 26 21:11:35 2022.
