 Gaussian 16, Revision A.03,
 Gaussian 16:  ES64L-G16RevA.03 25-Dec-2016

 ------------------
 #p CCSD(T)/cc-pVTZ
 ------------------

 ------------
 H2O_H2O_1181
 ------------
 Symbolic Z-matrix:
 Charge =  0 Multiplicity = 1

                         Standard orientation:
 ---------------------------------------------------------------------
 Center     Atomic      Atomic             Coordinates (Angstroms)
 Number     Number       Type             X           Y           Z
 ---------------------------------------------------------------------
      1          8           0        0.076784    1.572053   -0.000000
      2          1           0        0.075862    0.589452   -0.000000
      3          1           0       -0.852409    1.891591   -0.000000
      4          8           0        0.076784   -1.408893    0.000000
      5          1           0        0.451959   -2.317052    0.000000
      6          1           0       -0.903961   -1.469265    0.000000
 ---------------------------------------------------------------------

 SCF Done:  E(RHF) =  -152.111634651     A.U. after   10 cycles
 E2 =    -0.5282664017D+00 EUMP2 =    -0.15263990105224D+03
 CCSD(T)
 CCSD(T)= -0.15266685494D+03

 The electronic state is 1-A'.
 Alpha  occ. eigenvalues --  -20.58427 -20.52873  -1.35859  -1.30385  -0.73405
 Alpha  occ. eigenvalues --   -0.68173  -0.59414  -0.53595  -0.52910  -0.47490
 Alpha virt. eigenvalues --    0.11674   0.16927   0.19725   0.30319   0.48677
 Alpha virt. eigenvalues --    0.54702   0.58400   0.58777   0.69560   0.73005
 Alpha virt. eigenvalues --    0.74494   0.76666   0.81740   0.82080   0.84059

 Mulliken charges:
               1
     1  O   -0.543448
     2  H    0.285453
     3  H    0.236729
     4  O   -0.474972
     5  H    0.247213
     6  H    0.249025
 Sum of Mulliken charges =  -0.00000

 Dipole moment (field-independent basis, Debye):
    X=             -2.5450    Y=             -3.3256    Z=              0.0000  Tot=              4.1877
 Quadrupole moment (field-independent basis, Debye-Ang):
   XX=             -9.9882   YY=             -8.6970   ZZ=            -14.7188
   XY=             -2.9304   XZ=              0.0000   YZ=             -0.0000

 Normal termination of Gaussian 16 at Fri Aug 26 22:56:50 2022.
