 Gaussian 16, Revision A.03,
 Gaussian 16:  ES64L-G16RevA.03 25-Dec-2016

 ------------------
 #p CCSD(T)/cc-pVTZ
 ------------------

 ------------
 H2O_H2O_3062
 ------------
 Symbolic Z-matrix:
 Charge =  0 Multiplicity = 1

                         Standard orientation:
 ---------------------------------------------------------------------
 Center     Atomic      Atomic             Coordinates (Angstroms)
 Number     Number       Type             X           Y           Z
 ---------------------------------------------------------------------
      1          8           0        0.055991    2.328501    0.000000
      2          1           0        0.054590    1.345901    0.000000
      3          1           0       -0.873046    2.648493    0.000000
      4          8           0        0.055991   -2.149595   -0.000000
      5          1           0        0.749804   -2.845389   -0.000000
      6          1           0       -0.827206   -2.580256   -0.000000
 ---------------------------------------------------------------------

 SCF Done:  E(RHF) =  -152.109660866     A.U. after   10 cycles
 E2 =    -0.5259395000D+00 EUMP2 =    -0.15263560036581D+03
 CCSD(T)
 CCSD(T)= -0.15266274765D+03

 The electronic state is 1-A'.
 Alpha  occ. eigenvalues --  -20.56625 -20.54489  -1.33905  -1.31808  -0.71307
 Alpha  occ. eigenvalues --   -0.69199  -0.57441  -0.55291  -0.51033  -0.48941
 Alpha virt. eigenvalues --    0.12493   0.15866   0.19470   0.22523   0.53259
 Alpha virt. eigenvalues --    0.55363   0.56333   0.58512   0.68053   0.69339
 Alpha virt. eigenvalues --    0.77866   0.79051   0.79431   0.79890   0.83195

 Mulliken charges:
               1
     1  O   -0.517974
     2  H    0.264144
     3  H    0.251126
     4  O   -0.513845
     5  H    0.260174
     6  H    0.256375
 Sum of Mulliken charges =  -0.00000

 Dipole moment (field-independent basis, Debye):
    X=             -1.9093    Y=             -3.2172    Z=             -0.0000  Tot=              3.7411
 Quadrupole moment (field-independent basis, Debye-Ang):
   XX=             -9.2873   YY=             -7.1991   ZZ=            -14.7191
   XY=             -4.3870   XZ=             -0.0000   YZ=              0.0000

 Normal termination of Gaussian 16 at Fri Aug 26 19:33:41 2022.
