 Gaussian 16, Revision A.03,
 Gaussian 16:  ES64L-G16RevA.03 25-Dec-2016

 ------------------
 #p CCSD(T)/cc-pVTZ
 ------------------

 -----------
 H2O_H2O_392
 -----------
 Symbolic Z-matrix:
 Charge =  0 Multiplicity = 1

                         Standard orientation:
 ---------------------------------------------------------------------
 Center     Atomic      Atomic             Coordinates (Angstroms)
 Number     Number       Type             X           Y           Z
 ---------------------------------------------------------------------
      1          8           0        0.037623    1.261469   -0.000000
      2          1           0        0.033603    0.278876   -0.000000
      3          1           0       -0.890559    1.583936    0.000000
      4          8           0        0.037623   -1.082654   -0.000000
      5          1           0        0.917107   -1.520848   -0.000000
      6          1           0       -0.662113   -1.772491    0.000000
 ---------------------------------------------------------------------

 SCF Done:  E(RHF) =  -152.091953072     A.U. after   11 cycles
 E2 =    -0.5326099607D+00 EUMP2 =    -0.15262456303306D+03
 CCSD(T)
 CCSD(T)= -0.15265074361D+03

 The electronic state is 1-A'.
 Alpha  occ. eigenvalues --  -20.60633 -20.47697  -1.39629  -1.26549  -0.76141
 Alpha  occ. eigenvalues --   -0.72497  -0.57790  -0.56006  -0.48176  -0.43414
 Alpha virt. eigenvalues --    0.11110   0.17508   0.20064   0.33742   0.47067
 Alpha virt. eigenvalues --    0.53264   0.60993   0.66459   0.69727   0.72115
 Alpha virt. eigenvalues --    0.75903   0.78821   0.80366   0.82828   0.83810

 Mulliken charges:
               1
     1  O   -0.631539
     2  H    0.308633
     3  H    0.225329
     4  O   -0.408791
     5  H    0.260810
     6  H    0.245558
 Sum of Mulliken charges =  -0.00000

 Dipole moment (field-independent basis, Debye):
    X=             -1.1905    Y=             -4.4556    Z=              0.0000  Tot=              4.6120
 Quadrupole moment (field-independent basis, Debye-Ang):
   XX=             -9.1177   YY=             -9.6197   ZZ=            -14.6514
   XY=             -2.9872   XZ=             -0.0000   YZ=              0.0000

 Normal termination of Gaussian 16 at Fri Aug 26 17:54:39 2022.
