 Gaussian 16, Revision A.03,
 Gaussian 16:  ES64L-G16RevA.03 25-Dec-2016

 ------------------
 #p CCSD(T)/cc-pVTZ
 ------------------

 ------------
 H2O_H2O_3715
 ------------
 Symbolic Z-matrix:
 Charge =  0 Multiplicity = 1

                         Standard orientation:
 ---------------------------------------------------------------------
 Center     Atomic      Atomic             Coordinates (Angstroms)
 Number     Number       Type             X           Y           Z
 ---------------------------------------------------------------------
      1          8           0        0.044843    2.588592    0.000000
      2          1           0        0.043209    1.605992    0.000000
      3          1           0       -0.884119    2.908803   -0.000000
      4          8           0        0.044843   -2.408176    0.000000
      5          1           0        0.860937   -2.955439    0.000000
      6          1           0       -0.737507   -3.002680   -0.000000
 ---------------------------------------------------------------------

 SCF Done:  E(RHF) =  -152.109002825     A.U. after   10 cycles
 E2 =    -0.5258364953D+00 EUMP2 =    -0.15263483932067D+03
 CCSD(T)
 CCSD(T)= -0.15266201479D+03

 The electronic state is 1-A'.
 Alpha  occ. eigenvalues --  -20.56371 -20.54723  -1.33664  -1.32036  -0.71067
 Alpha  occ. eigenvalues --   -0.69434  -0.57179  -0.55516  -0.50788  -0.49164
 Alpha virt. eigenvalues --    0.12907   0.15386   0.19597   0.21565   0.53481
 Alpha virt. eigenvalues --    0.54997   0.56536   0.57909   0.66790   0.69257
 Alpha virt. eigenvalues --    0.78112   0.79244   0.79529   0.79678   0.82979

 Mulliken charges:
               1
     1  O   -0.516065
     2  H    0.262372
     3  H    0.252826
     4  O   -0.515771
     5  H    0.259369
     6  H    0.257269
 Sum of Mulliken charges =  -0.00000

 Dipole moment (field-independent basis, Debye):
    X=             -1.5341    Y=             -3.1985    Z=             -0.0000  Tot=              3.5474
 Quadrupole moment (field-independent basis, Debye-Ang):
   XX=             -9.1568   YY=             -6.7232   ZZ=            -14.7169
   XY=             -5.2664   XZ=              0.0000   YZ=             -0.0000

 Normal termination of Gaussian 16 at Fri Aug 26 23:16:15 2022.
