 Gaussian 16, Revision A.03,
 Gaussian 16:  ES64L-G16RevA.03 25-Dec-2016

 ------------------
 #p CCSD(T)/cc-pVTZ
 ------------------

 -----------
 H2O_H2O_974
 -----------
 Symbolic Z-matrix:
 Charge =  0 Multiplicity = 1

                         Standard orientation:
 ---------------------------------------------------------------------
 Center     Atomic      Atomic             Coordinates (Angstroms)
 Number     Number       Type             X           Y           Z
 ---------------------------------------------------------------------
      1          8           0        0.013668   -1.480177    0.000000
      2          1           0        0.008856   -0.497587    0.000000
      3          1           0       -0.914254   -1.803391    0.000000
      4          8           0        0.013668    1.320966    0.000000
      5          1           0        0.996258    1.325777    0.000000
      6          1           0       -0.309546    2.248887    0.000000
 ---------------------------------------------------------------------

 SCF Done:  E(RHF) =  -152.111331894     A.U. after   10 cycles
 E2 =    -0.5288440188D+00 EUMP2 =    -0.15264017591294D+03
 CCSD(T)
 CCSD(T)= -0.15266702741D+03

 The electronic state is 1-A'.
 Alpha  occ. eigenvalues --  -20.58768 -20.52032  -1.36402  -1.29719  -0.74151
 Alpha  occ. eigenvalues --   -0.67843  -0.59964  -0.53382  -0.52683  -0.46835
 Alpha virt. eigenvalues --    0.11990   0.18102   0.19074   0.32193   0.48927
 Alpha virt. eigenvalues --    0.54374   0.56052   0.63841   0.68327   0.72415
 Alpha virt. eigenvalues --    0.74555   0.76306   0.81058   0.82647   0.84198

 Mulliken charges:
               1
     1  O   -0.572274
     2  H    0.288325
     3  H    0.251060
     4  O   -0.463976
     5  H    0.259544
     6  H    0.237320
 Sum of Mulliken charges =  -0.00000

 Dipole moment (field-independent basis, Debye):
    X=             -0.4672    Y=              3.3890    Z=              0.0000  Tot=              3.4210
 Quadrupole moment (field-independent basis, Debye-Ang):
   XX=             -9.6338   YY=             -8.9108   ZZ=            -14.7120
   XY=              3.9607   XZ=              0.0000   YZ=              0.0000

 Normal termination of Gaussian 16 at Fri Aug 26 21:40:32 2022.
