 Gaussian 16, Revision A.03,
 Gaussian 16:  ES64L-G16RevA.03 25-Dec-2016

 ------------------
 #p CCSD(T)/cc-pVTZ
 ------------------

 ------------
 H2O_H2O_1451
 ------------
 Symbolic Z-matrix:
 Charge =  0 Multiplicity = 1

                         Standard orientation:
 ---------------------------------------------------------------------
 Center     Atomic      Atomic             Coordinates (Angstroms)
 Number     Number       Type             X           Y           Z
 ---------------------------------------------------------------------
      1          8           0        0.090687   -1.668457    0.000000
      2          1           0        0.090567   -0.685855    0.000000
      3          1           0       -0.838767   -1.987237    0.000000
      4          8           0        0.090687    1.529755    0.000000
      5          1           0        0.154833    2.510261    0.000000
      6          1           0       -0.857626    1.272447    0.000000
 ---------------------------------------------------------------------

 SCF Done:  E(RHF) =  -152.109337795     A.U. after   10 cycles
 E2 =    -0.5277388734D+00 EUMP2 =    -0.15263707666858D+03
 CCSD(T)
 CCSD(T)= -0.15266415381D+03

 The electronic state is 1-A'.
 Alpha  occ. eigenvalues --  -20.57933 -20.54227  -1.35307  -1.31598  -0.73057
 Alpha  occ. eigenvalues --   -0.68844  -0.58811  -0.54948  -0.52357  -0.48696
 Alpha virt. eigenvalues --    0.11518   0.16370   0.20373   0.28121   0.49698
 Alpha virt. eigenvalues --    0.54379   0.57712   0.58298   0.68041   0.73606
 Alpha virt. eigenvalues --    0.74434   0.77829   0.80687   0.81833   0.83383

 Mulliken charges:
               1
     1  O   -0.523276
     2  H    0.273825
     3  H    0.238990
     4  O   -0.480057
     5  H    0.248503
     6  H    0.242015
 Sum of Mulliken charges =  -0.00000

 Dipole moment (field-independent basis, Debye):
    X=             -3.0256    Y=              2.7196    Z=              0.0000  Tot=              4.0682
 Quadrupole moment (field-independent basis, Debye-Ang):
   XX=            -10.7521   YY=             -9.0051   ZZ=            -14.7114
   XY=              2.2853   XZ=              0.0000   YZ=              0.0000

 CCSD(T)=-152.6641538\RMSD=7.388e-09\PG=CS [SG(H4O2)]\\@
 Normal termination of Gaussian 16 at Sat Aug 27 00:39:54 2022.
