 Gaussian 16, Revision A.03,
 Gaussian 16:  ES64L-G16RevA.03 25-Dec-2016

 ------------------
 #p CCSD(T)/cc-pVTZ
 ------------------

 -----------
 H2O_H2O_475
 -----------
 Symbolic Z-matrix:
 Charge =  0 Multiplicity = 1

                         Standard orientation:
 ---------------------------------------------------------------------
 Center     Atomic      Atomic             Coordinates (Angstroms)
 Number     Number       Type             X           Y           Z
 ---------------------------------------------------------------------
      1          8           0        0.092949   -1.276338    0.000000
      2          1           0        0.092949   -0.293737    0.000000
      3          1           0       -0.836544   -1.595005    0.000000
      4          8           0        0.092949    1.143551    0.000000
      5          1           0        0.092949    2.126153    0.000000
      6          1           0       -0.836544    0.824885    0.000000
 ---------------------------------------------------------------------

 SCF Done:  E(RHF) =  -152.085014626     A.U. after   11 cycles
 E2 =    -0.5340173597D+00 EUMP2 =    -0.15261903198553D+03
 CCSD(T)
 CCSD(T)= -0.15264549883D+03

 The electronic state is 1-A'.
 Alpha  occ. eigenvalues --  -20.60056 -20.51276  -1.39220  -1.29399  -0.78735
 Alpha  occ. eigenvalues --   -0.67862  -0.59538  -0.55242  -0.52042  -0.46355
 Alpha virt. eigenvalues --    0.11228   0.16300   0.21260   0.32187   0.48584
 Alpha virt. eigenvalues --    0.51505   0.59072   0.65795   0.71078   0.71086
 Alpha virt. eigenvalues --    0.73932   0.77193   0.78877   0.82385   0.83738

 Mulliken charges:
               1
     1  O   -0.560518
     2  H    0.280432
     3  H    0.211381
     4  O   -0.388886
     5  H    0.229849
     6  H    0.227741
 Sum of Mulliken charges =  -0.00000

 Dipole moment (field-independent basis, Debye):
    X=             -2.9851    Y=              3.2749    Z=              0.0000  Tot=              4.4312
 Quadrupole moment (field-independent basis, Debye-Ang):
   XX=            -10.8722   YY=             -9.5328   ZZ=            -14.6198
   XY=              2.0021   XZ=              0.0000   YZ=              0.0000

 Normal termination of Gaussian 16 at Fri Aug 26 18:31:01 2022.
