 Gaussian 16, Revision A.03,
 Gaussian 16:  ES64L-G16RevA.03 25-Dec-2016

 ------------------
 #p CCSD(T)/cc-pVTZ
 ------------------

 -----------
 H2O_H2O_272
 -----------
 Symbolic Z-matrix:
 Charge =  0 Multiplicity = 1

                         Standard orientation:
 ---------------------------------------------------------------------
 Center     Atomic      Atomic             Coordinates (Angstroms)
 Number     Number       Type             X           Y           Z
 ---------------------------------------------------------------------
      1          8           0        0.020098   -1.205192    0.000000
      2          1           0        0.014569   -0.222606    0.000000
      3          1           0       -0.907587   -1.529084    0.000000
      4          8           0        0.020098    1.038202    0.000000
      5          1           0        0.993556    1.171937    0.000000
      6          1           0       -0.422110    1.915675    0.000000
 ---------------------------------------------------------------------

 SCF Done:  E(RHF) =  -152.076046754     A.U. after   11 cycles
 E2 =    -0.5341274864D+00 EUMP2 =    -0.15261017424062D+03
 CCSD(T)
 CCSD(T)= -0.15263612532D+03

 The electronic state is 1-A'.
 Alpha  occ. eigenvalues --  -20.60977 -20.46969  -1.40943  -1.26157  -0.78866
 Alpha  occ. eigenvalues --   -0.71843  -0.57568  -0.56750  -0.47281  -0.42976
 Alpha virt. eigenvalues --    0.11057   0.17484   0.20257   0.33969   0.47418
 Alpha virt. eigenvalues --    0.52544   0.59778   0.68693   0.71668   0.71802
 Alpha virt. eigenvalues --    0.76523   0.77937   0.78278   0.84366   0.84763

 Mulliken charges:
               1
     1  O   -0.647928
     2  H    0.290733
     3  H    0.230456
     4  O   -0.367164
     5  H    0.261464
     6  H    0.232440
 Sum of Mulliken charges =  -0.00000

 Dipole moment (field-independent basis, Debye):
    X=             -0.6311    Y=              4.3950    Z=              0.0000  Tot=              4.4400
 Quadrupole moment (field-independent basis, Debye-Ang):
   XX=             -9.3602   YY=             -9.7513   ZZ=            -14.6110
   XY=              3.0215   XZ=              0.0000   YZ=              0.0000

 Normal termination of Gaussian 16 at Fri Aug 26 17:04:54 2022.
