 Gaussian 16, Revision A.03,
 Gaussian 16:  ES64L-G16RevA.03 25-Dec-2016

 ------------------
 #p CCSD(T)/cc-pVTZ
 ------------------

 -----------
 H2O_H2O_513
 -----------
 Symbolic Z-matrix:
 Charge =  0 Multiplicity = 1

                         Standard orientation:
 ---------------------------------------------------------------------
 Center     Atomic      Atomic             Coordinates (Angstroms)
 Number     Number       Type             X           Y           Z
 ---------------------------------------------------------------------
      1          8           0        0.052417    1.311833   -0.000000
      2          1           0        0.049594    0.329235   -0.000000
      3          1           0       -0.876156    1.633169   -0.000000
      4          8           0        0.052417   -1.132080    0.000000
      5          1           0        0.789313   -1.782074    0.000000
      6          1           0       -0.801427   -1.618347    0.000000
 ---------------------------------------------------------------------

 SCF Done:  E(RHF) =  -152.100570500     A.U. after   11 cycles
 E2 =    -0.5316832808D+00 EUMP2 =    -0.15263225378085D+03
 CCSD(T)
 CCSD(T)= -0.15265863160D+03

 The electronic state is 1-A'.
 Alpha  occ. eigenvalues --  -20.60211 -20.48839  -1.38657  -1.27308  -0.75284
 Alpha  occ. eigenvalues --   -0.71213  -0.58464  -0.55298  -0.49418  -0.44247
 Alpha virt. eigenvalues --    0.11238   0.17446   0.19909   0.33457   0.47546
 Alpha virt. eigenvalues --    0.53588   0.61461   0.62717   0.70713   0.72259
 Alpha virt. eigenvalues --    0.73900   0.78709   0.81156   0.82583   0.84092

 Mulliken charges:
               1
     1  O   -0.611943
     2  H    0.313853
     3  H    0.224867
     4  O   -0.434754
     5  H    0.258025
     6  H    0.249953
 Sum of Mulliken charges =  -0.00000

 Dipole moment (field-independent basis, Debye):
    X=             -1.6731    Y=             -4.2839    Z=              0.0000  Tot=              4.5990
 Quadrupole moment (field-independent basis, Debye-Ang):
   XX=             -9.2106   YY=             -9.4164   ZZ=            -14.6743
   XY=             -3.0213   XZ=              0.0000   YZ=             -0.0000

 Normal termination of Gaussian 16 at Fri Aug 26 18:45:34 2022.
