 Gaussian 16, Revision A.03,
 Gaussian 16:  ES64L-G16RevA.03 25-Dec-2016

 ------------------
 #p CCSD(T)/cc-pVTZ
 ------------------

 ------------
 H2O_H2O_4954
 ------------
 Symbolic Z-matrix:
 Charge =  0 Multiplicity = 1

                         Standard orientation:
 ---------------------------------------------------------------------
 Center     Atomic      Atomic             Coordinates (Angstroms)
 Number     Number       Type             X           Y           Z
 ---------------------------------------------------------------------
      1          8           0        0.082796    3.073126    0.000000
      2          1           0        0.082509    2.090524    0.000000
      3          1           0       -0.846603    3.392064    0.000000
      4          8           0        0.082796   -2.918592    0.000000
      5          1           0        0.336834   -3.867787    0.000000
      6          1           0       -0.897483   -2.851068    0.000000
 ---------------------------------------------------------------------

 SCF Done:  E(RHF) =  -152.107822151     A.U. after   10 cycles
 E2 =    -0.5258454028D+00 EUMP2 =    -0.15263366755344D+03
 CCSD(T)
 CCSD(T)= -0.15266087902D+03

 The electronic state is 1-A'.
 Alpha  occ. eigenvalues --  -20.56130 -20.55232  -1.33431  -1.32534  -0.70842
 Alpha  occ. eigenvalues --   -0.69933  -0.56898  -0.55991  -0.50545  -0.49650
 Alpha virt. eigenvalues --    0.13348   0.14608   0.19414   0.20985   0.53564
 Alpha virt. eigenvalues --    0.54724   0.56656   0.57624   0.67106   0.68350
 Alpha virt. eigenvalues --    0.78341   0.79220   0.79730   0.80790   0.81804

 Mulliken charges:
               1
     1  O   -0.510721
     2  H    0.258047
     3  H    0.252651
     4  O   -0.511535
     5  H    0.257763
     6  H    0.253795
 Sum of Mulliken charges =   0.00000

 Dipole moment (field-independent basis, Debye):
    X=             -2.8424    Y=             -2.7033    Z=             -0.0000  Tot=              3.9226
 Quadrupole moment (field-independent basis, Debye-Ang):
   XX=            -10.2431   YY=             -7.6683   ZZ=            -14.7127
   XY=             -3.2656   XZ=             -0.0000   YZ=             -0.0000

 Normal termination of Gaussian 16 at Sun Aug 28 07:12:57 2022.
