 Gaussian 16, Revision A.03,
 Gaussian 16:  ES64L-G16RevA.03 25-Dec-2016

 ------------------
 #p CCSD(T)/cc-pVTZ
 ------------------

 ------------
 H2O_H2O_4323
 ------------
 Symbolic Z-matrix:
 Charge =  0 Multiplicity = 1

                         Standard orientation:
 ---------------------------------------------------------------------
 Center     Atomic      Atomic             Coordinates (Angstroms)
 Number     Number       Type             X           Y           Z
 ---------------------------------------------------------------------
      1          8           0       -0.016585    2.818683    0.000000
      2          1           0       -0.014219    1.836085    0.000000
      3          1           0        0.912138    3.139587    0.000000
      4          8           0       -0.016585   -2.655277    0.000000
      5          1           0       -0.996926   -2.721902    0.000000
      6          1           0        0.364373   -3.561023    0.000000
 ---------------------------------------------------------------------

 SCF Done:  E(RHF) =  -152.108524539     A.U. after   10 cycles
 E2 =    -0.5258012680D+00 EUMP2 =    -0.15263432580673D+03
 CCSD(T)
 CCSD(T)= -0.15266152060D+03

 The electronic state is 1-A'.
 Alpha  occ. eigenvalues --  -20.56212 -20.55025  -1.33515  -1.32333  -0.70921
 Alpha  occ. eigenvalues --   -0.69740  -0.57010  -0.55809  -0.50634  -0.49458
 Alpha virt. eigenvalues --    0.13113   0.14990   0.19388   0.21397   0.53370
 Alpha virt. eigenvalues --    0.54981   0.56653   0.57799   0.66763   0.68770
 Alpha virt. eigenvalues --    0.78254   0.79365   0.79397   0.80711   0.82583

 Mulliken charges:
               1
     1  O   -0.514722
     2  H    0.259724
     3  H    0.254822
     4  O   -0.515200
     5  H    0.257202
     6  H    0.258173
 Sum of Mulliken charges =  -0.00000

 Dipole moment (field-independent basis, Debye):
    X=              0.5702    Y=             -2.8714    Z=              0.0000  Tot=              2.9275
 Quadrupole moment (field-independent basis, Debye-Ang):
   XX=             -9.5433   YY=             -7.2863   ZZ=            -14.7151
   XY=              7.4006   XZ=              0.0000   YZ=              0.0000

 Normal termination of Gaussian 16 at Sun Aug 28 01:52:07 2022.
