 Gaussian 16, Revision A.03,
 Gaussian 16:  ES64L-G16RevA.03 25-Dec-2016

 ------------------
 #p CCSD(T)/cc-pVTZ
 ------------------

 ------------
 H2O_H2O_4427
 ------------
 Symbolic Z-matrix:
 Charge =  0 Multiplicity = 1

                         Standard orientation:
 ---------------------------------------------------------------------
 Center     Atomic      Atomic             Coordinates (Angstroms)
 Number     Number       Type             X           Y           Z
 ---------------------------------------------------------------------
      1          8           0        0.088229   -2.858171    0.000000
      2          1           0        0.088085   -1.875569    0.000000
      3          1           0       -0.841217   -3.176973    0.000000
      4          8           0        0.088229    2.713845    0.000000
      5          1           0        0.216342    3.688060    0.000000
      6          1           0       -0.874878    2.519087    0.000000
 ---------------------------------------------------------------------

 SCF Done:  E(RHF) =  -152.107788995     A.U. after   10 cycles
 E2 =    -0.5258673843D+00 EUMP2 =    -0.15263365637909D+03
 CCSD(T)
 CCSD(T)= -0.15266086690D+03

 The electronic state is 1-A'.
 Alpha  occ. eigenvalues --  -20.56220 -20.55248  -1.33521  -1.32550  -0.70935
 Alpha  occ. eigenvalues --   -0.69947  -0.56987  -0.56005  -0.50633  -0.49664
 Alpha virt. eigenvalues --    0.12842   0.14795   0.19069   0.21533   0.53262
 Alpha virt. eigenvalues --    0.54861   0.56557   0.57724   0.66873   0.68553
 Alpha virt. eigenvalues --    0.78258   0.79206   0.79541   0.81200   0.81906

 Mulliken charges:
               1
     1  O   -0.510270
     2  H    0.258089
     3  H    0.252091
     4  O   -0.511311
     5  H    0.258428
     6  H    0.252973
 Sum of Mulliken charges =  -0.00000

 Dipole moment (field-independent basis, Debye):
    X=             -3.0250    Y=              2.5340    Z=              0.0000  Tot=              3.9461
 Quadrupole moment (field-independent basis, Debye-Ang):
   XX=            -10.5500   YY=             -8.4884   ZZ=            -14.7124
   XY=              2.6760   XZ=              0.0000   YZ=              0.0000

 Normal termination of Gaussian 16 at Sun Aug 28 02:46:17 2022.
