 Gaussian 16, Revision A.03,
 Gaussian 16:  ES64L-G16RevA.03 25-Dec-2016

 ------------------
 #p CCSD(T)/cc-pVTZ
 ------------------

 ------------
 H2O_H2O_1092
 ------------
 Symbolic Z-matrix:
 Charge =  0 Multiplicity = 1

                         Standard orientation:
 ---------------------------------------------------------------------
 Center     Atomic      Atomic             Coordinates (Angstroms)
 Number     Number       Type             X           Y           Z
 ---------------------------------------------------------------------
      1          8           0        0.037552    1.540711   -0.000000
      2          1           0        0.034306    0.558115   -0.000000
      3          1           0       -0.890883    1.862447   -0.000000
      4          8           0        0.037552   -1.361836    0.000000
      5          1           0        0.917380   -1.799339    0.000000
      6          1           0       -0.661640   -2.052224    0.000000
 ---------------------------------------------------------------------

 SCF Done:  E(RHF) =  -152.113922522     A.U. after   10 cycles
 E2 =    -0.5282503129D+00 EUMP2 =    -0.15264217283441D+03
 CCSD(T)
 CCSD(T)= -0.15266905197D+03

 The electronic state is 1-A'.
 Alpha  occ. eigenvalues --  -20.58641 -20.51852  -1.36085  -1.29489  -0.73341
 Alpha  occ. eigenvalues --   -0.67961  -0.59699  -0.53163  -0.52570  -0.46616
 Alpha virt. eigenvalues --    0.11925   0.18270   0.18723   0.31532   0.48838
 Alpha virt. eigenvalues --    0.54711   0.56161   0.61539   0.68634   0.71930
 Alpha virt. eigenvalues --    0.72931   0.77358   0.82332   0.82592   0.84811

 Mulliken charges:
               1
     1  O   -0.564469
     2  H    0.293124
     3  H    0.243835
     4  O   -0.495639
     5  H    0.266265
     6  H    0.256883
 Sum of Mulliken charges =  -0.00000

 Dipole moment (field-independent basis, Debye):
    X=             -1.2457    Y=             -3.7129    Z=              0.0000  Tot=              3.9163
 Quadrupole moment (field-independent basis, Debye-Ang):
   XX=             -9.1543   YY=             -8.6740   ZZ=            -14.7296
   XY=             -3.5914   XZ=              0.0000   YZ=             -0.0000

 Normal termination of Gaussian 16 at Fri Aug 26 22:24:47 2022.
