 Gaussian 16, Revision A.03,
 Gaussian 16:  ES64L-G16RevA.03 25-Dec-2016

 ------------------
 #p CCSD(T)/cc-pVTZ
 ------------------

 ---------
 H2O_H2O_3
 ---------
 Symbolic Z-matrix:
 Charge =  0 Multiplicity = 1

                         Standard orientation:
 ---------------------------------------------------------------------
 Center     Atomic      Atomic             Coordinates (Angstroms)
 Number     Number       Type             X           Y           Z
 ---------------------------------------------------------------------
      1          8           0        0.085626   -1.095973    0.000000
      2          1           0        0.085016   -0.113372    0.000000
      3          1           0       -0.843668   -1.415217    0.000000
      4          8           0        0.085626    0.946435    0.000000
      5          1           0        0.276724    1.910274    0.000000
      6          1           0       -0.888094    0.814622    0.000000
 ---------------------------------------------------------------------

 SCF Done:  E(RHF) =  -152.011469075     A.U. after   11 cycles
 E2 =    -0.5395198754D+00 EUMP2 =    -0.15255098895020D+03
 CCSD(T)
 CCSD(T)= -0.15257637382D+03

 The electronic state is 1-A'.
 Alpha  occ. eigenvalues --  -20.62009 -20.45656  -1.45534  -1.25589  -0.84519
 Alpha  occ. eigenvalues --   -0.72840  -0.58964  -0.55155  -0.46107  -0.42252
 Alpha virt. eigenvalues --    0.10404   0.15609   0.21958   0.31308   0.49492
 Alpha virt. eigenvalues --    0.50621   0.60332   0.65908   0.70257   0.72103
 Alpha virt. eigenvalues --    0.75365   0.78824   0.81021   0.85984   0.87460

 Mulliken charges:
               1
     1  O   -0.627683
     2  H    0.248269
     3  H    0.181837
     4  O   -0.269953
     5  H    0.226351
     6  H    0.241180
 Sum of Mulliken charges =   0.00000

 Dipole moment (field-independent basis, Debye):
    X=             -2.6108    Y=              4.4452    Z=              0.0000  Tot=              5.1552
 Quadrupole moment (field-independent basis, Debye-Ang):
   XX=            -10.3312   YY=            -10.1127   ZZ=            -14.4876
   XY=              2.2110   XZ=              0.0000   YZ=              0.0000

 Normal termination of Gaussian 16 at Fri Aug 26 15:12:37 2022.
