 Gaussian 16, Revision A.03,
 Gaussian 16:  ES64L-G16RevA.03 25-Dec-2016

 ------------------
 #p CCSD(T)/cc-pVTZ
 ------------------

 ------------
 H2O_H2O_2899
 ------------
 Symbolic Z-matrix:
 Charge =  0 Multiplicity = 1

                         Standard orientation:
 ---------------------------------------------------------------------
 Center     Atomic      Atomic             Coordinates (Angstroms)
 Number     Number       Type             X           Y           Z
 ---------------------------------------------------------------------
      1          8           0       -0.013530    2.248033    0.000000
      2          1           0       -0.010422    1.265437    0.000000
      3          1           0        0.914951    2.569638    0.000000
      4          8           0       -0.013530   -2.088775    0.000000
      5          1           0       -0.996126   -2.091883    0.000000
      6          1           0        0.308076   -3.017256    0.000000
 ---------------------------------------------------------------------

 SCF Done:  E(RHF) =  -152.109869780     A.U. after   10 cycles
 E2 =    -0.5259466944D+00 EUMP2 =    -0.15263581647472D+03
 CCSD(T)
 CCSD(T)= -0.15266295989D+03

 The electronic state is 1-A'.
 Alpha  occ. eigenvalues --  -20.56669 -20.54638  -1.33957  -1.31958  -0.71368
 Alpha  occ. eigenvalues --   -0.69366  -0.57498  -0.55448  -0.51083  -0.49096
 Alpha virt. eigenvalues --    0.12206   0.15975   0.19227   0.23414   0.53916
 Alpha virt. eigenvalues --    0.55579   0.56334   0.58301   0.68328   0.69431
 Alpha virt. eigenvalues --    0.77781   0.78804   0.79748   0.80708   0.83203

 Mulliken charges:
               1
     1  O   -0.520655
     2  H    0.262885
     3  H    0.254952
     4  O   -0.514493
     5  H    0.258382
     6  H    0.258928
 Sum of Mulliken charges =  -0.00000

 Dipole moment (field-independent basis, Debye):
    X=              0.4666    Y=             -2.8710    Z=              0.0000  Tot=              2.9086
 Quadrupole moment (field-independent basis, Debye-Ang):
   XX=             -9.6483   YY=             -8.0203   ZZ=            -14.7195
   XY=              6.0748   XZ=              0.0000   YZ=              0.0000

 Normal termination of Gaussian 16 at Fri Aug 26 18:11:48 2022.
