 Gaussian 16, Revision A.03,
 Gaussian 16:  ES64L-G16RevA.03 25-Dec-2016

 ------------------
 #p CCSD(T)/cc-pVTZ
 ------------------

 ----------
 H2O_H2O_54
 ----------
 Symbolic Z-matrix:
 Charge =  0 Multiplicity = 1

                         Standard orientation:
 ---------------------------------------------------------------------
 Center     Atomic      Atomic             Coordinates (Angstroms)
 Number     Number       Type             X           Y           Z
 ---------------------------------------------------------------------
      1          8           0        0.082839   -1.118582    0.000000
      2          1           0        0.082012   -0.135981    0.000000
      3          1           0       -0.846386   -1.438030    0.000000
      4          8           0        0.082839    0.964139    0.000000
      5          1           0        0.336356    1.913473    0.000000
      6          1           0       -0.897403    0.896077    0.000000
 ---------------------------------------------------------------------

 SCF Done:  E(RHF) =  -152.029474528     A.U. after   11 cycles
 E2 =    -0.5383749844D+00 EUMP2 =    -0.15256784951232D+03
 CCSD(T)
 CCSD(T)= -0.15259336836D+03

 The electronic state is 1-A'.
 Alpha  occ. eigenvalues --  -20.61862 -20.45989  -1.44366  -1.25744  -0.83188
 Alpha  occ. eigenvalues --   -0.72880  -0.58494  -0.55490  -0.46469  -0.42419
 Alpha virt. eigenvalues --    0.10457   0.15779   0.21726   0.31672   0.49504
 Alpha virt. eigenvalues --    0.51067   0.60160   0.65364   0.70675   0.72173
 Alpha virt. eigenvalues --    0.75829   0.78892   0.81045   0.85929   0.87269

 Mulliken charges:
               1
     1  O   -0.627192
     2  H    0.261888
     3  H    0.187678
     4  O   -0.290175
     5  H    0.228210
     6  H    0.239592
 Sum of Mulliken charges =  -0.00000

 Dipole moment (field-independent basis, Debye):
    X=             -2.5333    Y=              4.4562    Z=              0.0000  Tot=              5.1260
 Quadrupole moment (field-independent basis, Debye-Ang):
   XX=            -10.1980   YY=            -10.0264   ZZ=            -14.5157
   XY=              2.3302   XZ=              0.0000   YZ=              0.0000

 Normal termination of Gaussian 16 at Fri Aug 26 15:33:16 2022.
