 Gaussian 16, Revision A.03,
 Gaussian 16:  ES64L-G16RevA.03 25-Dec-2016

 ------------------
 #p CCSD(T)/cc-pVTZ
 ------------------

 ------------
 H2O_H2O_4412
 ------------
 Symbolic Z-matrix:
 Charge =  0 Multiplicity = 1

                         Standard orientation:
 ---------------------------------------------------------------------
 Center     Atomic      Atomic             Coordinates (Angstroms)
 Number     Number       Type             X           Y           Z
 ---------------------------------------------------------------------
      1          8           0        0.055966    2.867000   -0.000000
      2          1           0        0.054837    1.884400   -0.000000
      3          1           0       -0.873160    3.186735    0.000000
      4          8           0        0.055966   -2.688063   -0.000000
      5          1           0        0.749972   -3.383666   -0.000000
      6          1           0       -0.827112   -3.118968    0.000000
 ---------------------------------------------------------------------

 SCF Done:  E(RHF) =  -152.108399685     A.U. after   10 cycles
 E2 =    -0.5258163930D+00 EUMP2 =    -0.15263421607799D+03
 CCSD(T)
 CCSD(T)= -0.15266141282D+03

 The electronic state is 1-A'.
 Alpha  occ. eigenvalues --  -20.56204 -20.54938  -1.33505  -1.32245  -0.70910
 Alpha  occ. eigenvalues --   -0.69645  -0.56997  -0.55715  -0.50624  -0.49368
 Alpha virt. eigenvalues --    0.13301   0.14959   0.19670   0.21079   0.53618
 Alpha virt. eigenvalues --    0.54861   0.56641   0.57798   0.66795   0.68811
 Alpha virt. eigenvalues --    0.78264   0.79488   0.79584   0.80121   0.82712

 Mulliken charges:
               1
     1  O   -0.513639
     2  H    0.260572
     3  H    0.252903
     4  O   -0.514450
     5  H    0.258567
     6  H    0.256046
 Sum of Mulliken charges =  -0.00000

 Dipole moment (field-independent basis, Debye):
    X=             -1.9188    Y=             -3.1438    Z=              0.0000  Tot=              3.6831
 Quadrupole moment (field-independent basis, Debye-Ang):
   XX=             -9.2851   YY=             -6.3585   ZZ=            -14.7148
   XY=             -5.0779   XZ=             -0.0000   YZ=              0.0000

 Normal termination of Gaussian 16 at Sun Aug 28 02:39:34 2022.
