 Gaussian 16, Revision A.03,
 Gaussian 16:  ES64L-G16RevA.03 25-Dec-2016

 ------------------
 #p CCSD(T)/cc-pVTZ
 ------------------

 -----------
 H2O_H2O_761
 -----------
 Symbolic Z-matrix:
 Charge =  0 Multiplicity = 1

                         Standard orientation:
 ---------------------------------------------------------------------
 Center     Atomic      Atomic             Coordinates (Angstroms)
 Number     Number       Type             X           Y           Z
 ---------------------------------------------------------------------
      1          8           0        0.059721    1.410236    0.000000
      2          1           0        0.057582    0.427637    0.000000
      3          1           0       -0.869076    1.730926   -0.000000
      4          8           0        0.059721   -1.232899    0.000000
      5          1           0        0.705987   -1.973067    0.000000
      6          1           0       -0.850031   -1.604191   -0.000000
 ---------------------------------------------------------------------

 SCF Done:  E(RHF) =  -152.109336937     A.U. after   10 cycles
 E2 =    -0.5300184278D+00 EUMP2 =    -0.15263935536428D+03
 CCSD(T)
 CCSD(T)= -0.15266603097D+03

 The electronic state is 1-A'.
 Alpha  occ. eigenvalues --  -20.59430 -20.50633  -1.37250  -1.28585  -0.74372
 Alpha  occ. eigenvalues --   -0.68998  -0.59485  -0.54165  -0.51289  -0.45630
 Alpha virt. eigenvalues --    0.11522   0.17510   0.19566   0.32856   0.47955
 Alpha virt. eigenvalues --    0.54183   0.59904   0.60518   0.70307   0.72398
 Alpha virt. eigenvalues --    0.72611   0.77681   0.81534   0.83088   0.84426

 Mulliken charges:
               1
     1  O   -0.583025
     2  H    0.307829
     3  H    0.231124
     4  O   -0.465574
     5  H    0.257772
     6  H    0.251874
 Sum of Mulliken charges =  -0.00000

 Dipole moment (field-independent basis, Debye):
    X=             -1.9419    Y=             -3.9353    Z=             -0.0000  Tot=              4.3883
 Quadrupole moment (field-independent basis, Debye-Ang):
   XX=             -9.3693   YY=             -9.0482   ZZ=            -14.7044
   XY=             -3.1200   XZ=              0.0000   YZ=             -0.0000

 Normal termination of Gaussian 16 at Fri Aug 26 20:20:47 2022.
