 Gaussian 16, Revision A.03,
 Gaussian 16:  ES64L-G16RevA.03 25-Dec-2016

 ------------------
 #p CCSD(T)/cc-pVTZ
 ------------------

 -----------
 H2O_H2O_772
 -----------
 Symbolic Z-matrix:
 Charge =  0 Multiplicity = 1

                         Standard orientation:
 ---------------------------------------------------------------------
 Center     Atomic      Atomic             Coordinates (Angstroms)
 Number     Number       Type             X           Y           Z
 ---------------------------------------------------------------------
      1          8           0       -0.020027    1.404645    0.000000
      2          1           0       -0.015333    0.422055    0.000000
      3          1           0        0.907933    1.727749    0.000000
      4          8           0       -0.020027   -1.237621    0.000000
      5          1           0       -0.993599   -1.370529    0.000000
      6          1           0        0.421436   -2.115469    0.000000
 ---------------------------------------------------------------------

 SCF Done:  E(RHF) =  -152.108942544     A.U. after   10 cycles
 E2 =    -0.5298724308D+00 EUMP2 =    -0.15263881497483D+03
 CCSD(T)
 CCSD(T)= -0.15266550534D+03

 The electronic state is 1-A'.
 Alpha  occ. eigenvalues --  -20.59298 -20.50852  -1.37184  -1.28787  -0.74780
 Alpha  occ. eigenvalues --   -0.68313  -0.59920  -0.54065  -0.51446  -0.45860
 Alpha virt. eigenvalues --    0.11786   0.18294   0.19044   0.33209   0.48185
 Alpha virt. eigenvalues --    0.54166   0.57161   0.65793   0.68215   0.72295
 Alpha virt. eigenvalues --    0.73805   0.76787   0.80637   0.83411   0.84103

 Mulliken charges:
               1
     1  O   -0.590741
     2  H    0.297687
     3  H    0.245224
     4  O   -0.452720
     5  H    0.260657
     6  H    0.239892
 Sum of Mulliken charges =  -0.00000

 Dipole moment (field-independent basis, Debye):
    X=              0.6649    Y=             -3.7215    Z=              0.0000  Tot=              3.7804
 Quadrupole moment (field-independent basis, Debye-Ang):
   XX=             -9.4222   YY=             -9.0596   ZZ=            -14.7003
   XY=              3.5717   XZ=              0.0000   YZ=              0.0000

 Normal termination of Gaussian 16 at Fri Aug 26 20:24:56 2022.
