 Gaussian 16, Revision A.03,
 Gaussian 16:  ES64L-G16RevA.03 25-Dec-2016

 ------------------
 #p CCSD(T)/cc-pVTZ
 ------------------

 -----------
 H2O_H2O_873
 -----------
 Symbolic Z-matrix:
 Charge =  0 Multiplicity = 1

                         Standard orientation:
 ---------------------------------------------------------------------
 Center     Atomic      Atomic             Coordinates (Angstroms)
 Number     Number       Type             X           Y           Z
 ---------------------------------------------------------------------
      1          8           0       -0.016784    1.442524    0.000000
      2          1           0       -0.012025    0.459934    0.000000
      3          1           0        0.911154    1.765688    0.000000
      4          8           0       -0.016784   -1.279199    0.000000
      5          1           0       -0.996959   -1.348211    0.000000
      6          1           0        0.366379   -2.184014    0.000000
 ---------------------------------------------------------------------

 SCF Done:  E(RHF) =  -152.110473668     A.U. after   10 cycles
 E2 =    -0.5293217938D+00 EUMP2 =    -0.15263979546141D+03
 CCSD(T)
 CCSD(T)= -0.15266657391D+03

 The electronic state is 1-A'.
 Alpha  occ. eigenvalues --  -20.59021 -20.51475  -1.36762  -1.29272  -0.74449
 Alpha  occ. eigenvalues --   -0.67968  -0.60017  -0.53701  -0.52098  -0.46370
 Alpha virt. eigenvalues --    0.11899   0.18257   0.18999   0.32746   0.48542
 Alpha virt. eigenvalues --    0.54290   0.56547   0.64771   0.68283   0.72335
 Alpha virt. eigenvalues --    0.74178   0.76480   0.80858   0.83038   0.84158

 Mulliken charges:
               1
     1  O   -0.581080
     2  H    0.293053
     3  H    0.248400
     4  O   -0.458784
     5  H    0.260066
     6  H    0.238344
 Sum of Mulliken charges =  -0.00000

 Dipole moment (field-independent basis, Debye):
    X=              0.5646    Y=             -3.5529    Z=              0.0000  Tot=              3.5975
 Quadrupole moment (field-independent basis, Debye-Ang):
   XX=             -9.5240   YY=             -8.9706   ZZ=            -14.7071
   XY=              3.7578   XZ=              0.0000   YZ=              0.0000

 Normal termination of Gaussian 16 at Fri Aug 26 21:03:25 2022.
