 Gaussian 16, Revision A.03,
 Gaussian 16:  ES64L-G16RevA.03 25-Dec-2016

 ------------------
 #p CCSD(T)/cc-pVTZ
 ------------------

 ------------
 H2O_H2O_3775
 ------------
 Symbolic Z-matrix:
 Charge =  0 Multiplicity = 1

                         Standard orientation:
 ---------------------------------------------------------------------
 Center     Atomic      Atomic             Coordinates (Angstroms)
 Number     Number       Type             X           Y           Z
 ---------------------------------------------------------------------
      1          8           0        0.092949   -2.592634    0.000000
      2          1           0        0.092949   -1.610032    0.000000
      3          1           0       -0.836544   -2.911300    0.000000
      4          8           0        0.092949    2.459847    0.000000
      5          1           0        0.092949    3.442448    0.000000
      6          1           0       -0.836544    2.141179    0.000000
 ---------------------------------------------------------------------

 SCF Done:  E(RHF) =  -152.107742539     A.U. after   10 cycles
 E2 =    -0.5259291639D+00 EUMP2 =    -0.15263367170333D+03
 CCSD(T)
 CCSD(T)= -0.15266087818D+03

 The electronic state is 1-A'.
 Alpha  occ. eigenvalues --  -20.56375 -20.55277  -1.33675  -1.32578  -0.71096
 Alpha  occ. eigenvalues --   -0.69969  -0.57136  -0.56029  -0.50784  -0.49690
 Alpha virt. eigenvalues --    0.11983   0.15118   0.18884   0.22509   0.53205
 Alpha virt. eigenvalues --    0.54922   0.56480   0.57877   0.66817   0.68760
 Alpha virt. eigenvalues --    0.78118   0.78994   0.79183   0.81438   0.82351

 Mulliken charges:
               1
     1  O   -0.509515
     2  H    0.258049
     3  H    0.251141
     4  O   -0.510319
     5  H    0.259232
     6  H    0.251413
 Sum of Mulliken charges =  -0.00000

 Dipole moment (field-independent basis, Debye):
    X=             -3.1792    Y=              2.3475    Z=              0.0000  Tot=              3.9520
 Quadrupole moment (field-independent basis, Debye-Ang):
   XX=            -10.8494   YY=             -9.2592   ZZ=            -14.7119
   XY=              2.1535   XZ=              0.0000   YZ=              0.0000

 Normal termination of Gaussian 16 at Fri Aug 26 23:36:16 2022.
