 Gaussian 16, Revision A.03,
 Gaussian 16:  ES64L-G16RevA.03 25-Dec-2016

 ------------------
 #p CCSD(T)/cc-pVTZ
 ------------------

 -----------
 H2O_H2O_680
 -----------
 Symbolic Z-matrix:
 Charge =  0 Multiplicity = 1

                         Standard orientation:
 ---------------------------------------------------------------------
 Center     Atomic      Atomic             Coordinates (Angstroms)
 Number     Number       Type             X           Y           Z
 ---------------------------------------------------------------------
      1          8           0        0.079882   -1.370356    0.000000
      2          1           0        0.079021   -0.387755    0.000000
      3          1           0       -0.849332   -1.689837    0.000000
      4          8           0        0.079882    1.211354    0.000000
      5          1           0        0.394913    2.142087    0.000000
      6          1           0       -0.902713    1.207514    0.000000
 ---------------------------------------------------------------------

 SCF Done:  E(RHF) =  -152.103672297     A.U. after   11 cycles
 E2 =    -0.5311297738D+00 EUMP2 =    -0.15263480207045D+03
 CCSD(T)
 CCSD(T)= -0.15266145734D+03

 The electronic state is 1-A'.
 Alpha  occ. eigenvalues --  -20.59565 -20.51180  -1.37661  -1.29116  -0.75610
 Alpha  occ. eigenvalues --   -0.68627  -0.59523  -0.54391  -0.51857  -0.46129
 Alpha virt. eigenvalues --    0.11337   0.16751   0.20270   0.32532   0.48273
 Alpha virt. eigenvalues --    0.53368   0.58997   0.62533   0.70179   0.71999
 Alpha virt. eigenvalues --    0.74162   0.77946   0.79670   0.83425   0.83724

 Mulliken charges:
               1
     1  O   -0.570632
     2  H    0.296749
     3  H    0.223930
     4  O   -0.424459
     5  H    0.236276
     6  H    0.238136
 Sum of Mulliken charges =  -0.00000

 Dipole moment (field-independent basis, Debye):
    X=             -2.5849    Y=              3.6099    Z=              0.0000  Tot=              4.4399
 Quadrupole moment (field-independent basis, Debye-Ang):
   XX=            -10.1319   YY=             -9.1466   ZZ=            -14.6769
   XY=              2.6794   XZ=              0.0000   YZ=              0.0000

 Normal termination of Gaussian 16 at Fri Aug 26 19:48:38 2022.
