 Gaussian 16, Revision A.03,
 Gaussian 16:  ES64L-G16RevA.03 25-Dec-2016

 ------------------
 #p CCSD(T)/cc-pVTZ
 ------------------

 ------------
 H2O_H2O_1141
 ------------
 Symbolic Z-matrix:
 Charge =  0 Multiplicity = 1

                         Standard orientation:
 ---------------------------------------------------------------------
 Center     Atomic      Atomic             Coordinates (Angstroms)
 Number     Number       Type             X           Y           Z
 ---------------------------------------------------------------------
      1          8           0        0.041236    1.561176   -0.000000
      2          1           0        0.038247    0.578579   -0.000000
      3          1           0       -0.887283    1.882668   -0.000000
      4          8           0        0.041236   -1.381339    0.000000
      5          1           0        0.890696   -1.875227    0.000000
      6          1           0       -0.701444   -2.024714    0.000000
 ---------------------------------------------------------------------

 SCF Done:  E(RHF) =  -152.114102979     A.U. after   10 cycles
 E2 =    -0.5280864613D+00 EUMP2 =    -0.15264218944047D+03
 CCSD(T)
 CCSD(T)= -0.15266908874D+03

 The electronic state is 1-A'.
 Alpha  occ. eigenvalues --  -20.58552 -20.51999  -1.35961  -1.29603  -0.73217
 Alpha  occ. eigenvalues --   -0.67929  -0.59635  -0.53052  -0.52730  -0.46734
 Alpha virt. eigenvalues --    0.11934   0.18131   0.18798   0.31241   0.48918
 Alpha virt. eigenvalues --    0.54729   0.56122   0.61010   0.68808   0.71715
 Alpha virt. eigenvalues --    0.73063   0.77278   0.82308   0.82619   0.84904

 Mulliken charges:
               1
     1  O   -0.560614
     2  H    0.291431
     3  H    0.243480
     4  O   -0.498801
     5  H    0.266433
     6  H    0.258070
 Sum of Mulliken charges =  -0.00000

 Dipole moment (field-independent basis, Debye):
    X=             -1.3691    Y=             -3.7011    Z=              0.0000  Tot=              3.9462
 Quadrupole moment (field-independent basis, Debye-Ang):
   XX=             -9.1472   YY=             -8.6171   ZZ=            -14.7315
   XY=             -3.5813   XZ=              0.0000   YZ=             -0.0000

 Normal termination of Gaussian 16 at Fri Aug 26 22:42:28 2022.
