 Gaussian 16, Revision A.03,
 Gaussian 16:  ES64L-G16RevA.03 25-Dec-2016

 ------------------
 #p CCSD(T)/cc-pVTZ
 ------------------

 ------------
 H2O_H2O_1876
 ------------
 Symbolic Z-matrix:
 Charge =  0 Multiplicity = 1

                         Standard orientation:
 ---------------------------------------------------------------------
 Center     Atomic      Atomic             Coordinates (Angstroms)
 Number     Number       Type             X           Y           Z
 ---------------------------------------------------------------------
      1          8           0        0.090686   -1.837981    0.000000
      2          1           0        0.090577   -0.855379    0.000000
      3          1           0       -0.838771   -2.156750    0.000000
      4          8           0        0.090686    1.699277    0.000000
      5          1           0        0.154844    2.679781    0.000000
      6          1           0       -0.857630    1.441979    0.000000
 ---------------------------------------------------------------------

 SCF Done:  E(RHF) =  -152.109335567     A.U. after   10 cycles
 E2 =    -0.5268739290D+00 EUMP2 =    -0.15263620949609D+03
 CCSD(T)
 CCSD(T)= -0.15266332688D+03

 The electronic state is 1-A'.
 Alpha  occ. eigenvalues --  -20.57429 -20.54629  -1.34732  -1.31950  -0.72288
 Alpha  occ. eigenvalues --   -0.69257  -0.58246  -0.55365  -0.51822  -0.49062
 Alpha virt. eigenvalues --    0.11520   0.16213   0.20167   0.26058   0.51479
 Alpha virt. eigenvalues --    0.55331   0.57232   0.57430   0.68158   0.74115
 Alpha virt. eigenvalues --    0.75585   0.78305   0.80108   0.82748   0.83126

 Mulliken charges:
               1
     1  O   -0.517275
     2  H    0.267402
     3  H    0.243438
     4  O   -0.496494
     5  H    0.257106
     6  H    0.245823
 Sum of Mulliken charges =  -0.00000

 Dipole moment (field-independent basis, Debye):
    X=             -3.0512    Y=              2.6142    Z=              0.0000  Tot=              4.0180
 Quadrupole moment (field-independent basis, Debye-Ang):
   XX=            -10.7398   YY=             -8.9620   ZZ=            -14.7154
   XY=              2.3138   XZ=              0.0000   YZ=              0.0000

 Normal termination of Gaussian 16 at Sun Aug 28 02:22:18 2022.
