 Gaussian 16, Revision A.03,
 Gaussian 16:  ES64L-G16RevA.03 25-Dec-2016

 ------------------
 #p CCSD(T)/cc-pVTZ
 ------------------

 ------------
 H2O_H2O_2637
 ------------
 Symbolic Z-matrix:
 Charge =  0 Multiplicity = 1

                         Standard orientation:
 ---------------------------------------------------------------------
 Center     Atomic      Atomic             Coordinates (Angstroms)
 Number     Number       Type             X           Y           Z
 ---------------------------------------------------------------------
      1          8           0        0.056002    2.158972   -0.000000
      2          1           0        0.054486    1.176372   -0.000000
      3          1           0       -0.872999    2.479072   -0.000000
      4          8           0        0.056002   -1.980079    0.000000
      5          1           0        0.749734   -2.675954    0.000000
      6          1           0       -0.827246   -2.410636    0.000000
 ---------------------------------------------------------------------

 SCF Done:  E(RHF) =  -152.110435021     A.U. after   10 cycles
 E2 =    -0.5260601494D+00 EUMP2 =    -0.15263649517012D+03
 CCSD(T)
 CCSD(T)= -0.15266361503D+03

 The electronic state is 1-A'.
 Alpha  occ. eigenvalues --  -20.56859 -20.54253  -1.34126  -1.31579  -0.71525
 Alpha  occ. eigenvalues --   -0.68969  -0.57696  -0.55063  -0.51258  -0.48718
 Alpha virt. eigenvalues --    0.12331   0.16258   0.19378   0.23635   0.52904
 Alpha virt. eigenvalues --    0.55637   0.56186   0.58943   0.69017   0.70010
 Alpha virt. eigenvalues --    0.77541   0.78893   0.80118   0.80201   0.83486

 Mulliken charges:
               1
     1  O   -0.520945
     2  H    0.265906
     3  H    0.250028
     4  O   -0.511452
     5  H    0.260330
     6  H    0.256134
 Sum of Mulliken charges =  -0.00000

 Dipole moment (field-independent basis, Debye):
    X=             -1.9044    Y=             -3.2619    Z=              0.0000  Tot=              3.7771
 Quadrupole moment (field-independent basis, Debye-Ang):
   XX=             -9.2889   YY=             -7.4679   ZZ=            -14.7215
   XY=             -4.1692   XZ=              0.0000   YZ=             -0.0000

 Normal termination of Gaussian 16 at Fri Aug 26 16:12:48 2022.
