 Gaussian 16, Revision A.03,
 Gaussian 16:  ES64L-G16RevA.03 25-Dec-2016

 ------------------
 #p CCSD(T)/cc-pVTZ
 ------------------

 ------------
 H2O_H2O_3679
 ------------
 Symbolic Z-matrix:
 Charge =  0 Multiplicity = 1

                         Standard orientation:
 ---------------------------------------------------------------------
 Center     Atomic      Atomic             Coordinates (Angstroms)
 Number     Number       Type             X           Y           Z
 ---------------------------------------------------------------------
      1          8           0        0.082801    2.564552   -0.000000
      2          1           0        0.082455    1.581951   -0.000000
      3          1           0       -0.846580    2.883546   -0.000000
      4          8           0        0.082801   -2.410029    0.000000
      5          1           0        0.336783   -3.359239    0.000000
      6          1           0       -0.897474   -2.342445    0.000000
 ---------------------------------------------------------------------

 SCF Done:  E(RHF) =  -152.108252476     A.U. after   10 cycles
 E2 =    -0.5259038548D+00 EUMP2 =    -0.15263415633099D+03
 CCSD(T)
 CCSD(T)= -0.15266134809D+03

 The electronic state is 1-A'.
 Alpha  occ. eigenvalues --  -20.56395 -20.55020  -1.33692  -1.32327  -0.71107
 Alpha  occ. eigenvalues --   -0.69718  -0.57172  -0.55788  -0.50807  -0.49445
 Alpha virt. eigenvalues --    0.12371   0.15250   0.19232   0.21942   0.53255
 Alpha virt. eigenvalues --    0.55045   0.56463   0.57988   0.66808   0.69048
 Alpha virt. eigenvalues --    0.78096   0.78771   0.79415   0.80930   0.82650

 Mulliken charges:
               1
     1  O   -0.511842
     2  H    0.260093
     3  H    0.251103
     4  O   -0.512280
     5  H    0.259609
     6  H    0.253316
 Sum of Mulliken charges =  -0.00000

 Dipole moment (field-independent basis, Debye):
    X=             -2.8311    Y=             -2.7383    Z=             -0.0000  Tot=              3.9387
 Quadrupole moment (field-independent basis, Debye-Ang):
   XX=            -10.2484   YY=             -8.0248   ZZ=            -14.7140
   XY=             -3.0817   XZ=              0.0000   YZ=             -0.0000

 CCSD(T)=-152.6613481\RMSD=7.207e-09\PG=CS [SG(H4O2)]\\@
 Normal termination of Gaussian 16 at Fri Aug 26 23:04:19 2022.
