 Gaussian 16, Revision A.03,
 Gaussian 16:  ES64L-G16RevA.03 25-Dec-2016

 ------------------
 #p CCSD(T)/cc-pVTZ
 ------------------

 ------------
 H2O_H2O_1038
 ------------
 Symbolic Z-matrix:
 Charge =  0 Multiplicity = 1

                         Standard orientation:
 ---------------------------------------------------------------------
 Center     Atomic      Atomic             Coordinates (Angstroms)
 Number     Number       Type             X           Y           Z
 ---------------------------------------------------------------------
      1          8           0        0.052380    1.521264    0.000000
      2          1           0        0.049969    0.538666    0.000000
      3          1           0       -0.876329    1.842210    0.000000
      4          8           0        0.052380   -1.341468   -0.000000
      5          1           0        0.789547   -1.991153   -0.000000
      6          1           0       -0.801260   -1.828094   -0.000000
 ---------------------------------------------------------------------

 SCF Done:  E(RHF) =  -152.113404907     A.U. after   10 cycles
 E2 =    -0.5285322935D+00 EUMP2 =    -0.15264193720094D+03
 CCSD(T)
 CCSD(T)= -0.15266879483D+03

 The electronic state is 1-A'.
 Alpha  occ. eigenvalues --  -20.58770 -20.51709  -1.36246  -1.29378  -0.73460
 Alpha  occ. eigenvalues --   -0.68084  -0.59687  -0.53307  -0.52422  -0.46489
 Alpha virt. eigenvalues --    0.11802   0.17845   0.19087   0.31744   0.48431
 Alpha virt. eigenvalues --    0.54690   0.57150   0.60436   0.69614   0.71578
 Alpha virt. eigenvalues --    0.72815   0.77295   0.82418   0.82540   0.84837

 Mulliken charges:
               1
     1  O   -0.564367
     2  H    0.296778
     3  H    0.239102
     4  O   -0.493217
     5  H    0.264527
     6  H    0.257178
 Sum of Mulliken charges =  -0.00000

 Dipole moment (field-independent basis, Debye):
    X=             -1.7294    Y=             -3.7627    Z=             -0.0000  Tot=              4.1411
 Quadrupole moment (field-independent basis, Debye-Ang):
   XX=             -9.2298   YY=             -8.7236   ZZ=            -14.7268
   XY=             -3.3716   XZ=             -0.0000   YZ=              0.0000

 CCSD(T)=-152.6687948\RMSD=7.536e-09\PG=CS [SG(H4O2)]\\@
 Normal termination of Gaussian 16 at Fri Aug 26 22:04:46 2022.
