 Gaussian 16, Revision A.03,
 Gaussian 16:  ES64L-G16RevA.03 25-Dec-2016

 ------------------
 #p CCSD(T)/cc-pVTZ
 ------------------

 ------------
 H2O_H2O_1562
 ------------
 Symbolic Z-matrix:
 Charge =  0 Multiplicity = 1

                         Standard orientation:
 ---------------------------------------------------------------------
 Center     Atomic      Atomic             Coordinates (Angstroms)
 Number     Number       Type             X           Y           Z
 ---------------------------------------------------------------------
      1          8           0        0.056038    1.730157   -0.000000
      2          1           0        0.054125    0.747557   -0.000000
      3          1           0       -0.872833    2.050632   -0.000000
      4          8           0        0.056038   -1.551309    0.000000
      5          1           0        0.749488   -2.247463    0.000000
      6          1           0       -0.827384   -1.981510    0.000000
 ---------------------------------------------------------------------

 SCF Done:  E(RHF) =  -152.113418881     A.U. after   10 cycles
 E2 =    -0.5270542319D+00 EUMP2 =    -0.15264047311289D+03
 CCSD(T)
 CCSD(T)= -0.15266748490D+03

 The electronic state is 1-A'.
 Alpha  occ. eigenvalues --  -20.57872 -20.53105  -1.35148  -1.30528  -0.72507
 Alpha  occ. eigenvalues --   -0.68112  -0.58931  -0.53892  -0.52278  -0.47675
 Alpha virt. eigenvalues --    0.12025   0.17364   0.19107   0.28563   0.49921
 Alpha virt. eigenvalues --    0.54901   0.56319   0.59210   0.69269   0.72268
 Alpha virt. eigenvalues --    0.74573   0.76775   0.81369   0.83064   0.84659

 Mulliken charges:
               1
     1  O   -0.537710
     2  H    0.276368
     3  H    0.244767
     4  O   -0.505060
     5  H    0.264164
     6  H    0.257471
 Sum of Mulliken charges =  -0.00000

 Dipole moment (field-independent basis, Debye):
    X=             -1.8797    Y=             -3.4841    Z=              0.0000  Tot=              3.9588
 Quadrupole moment (field-independent basis, Debye-Ang):
   XX=             -9.2969   YY=             -8.2313   ZZ=            -14.7335
   XY=             -3.6117   XZ=              0.0000   YZ=             -0.0000

 Normal termination of Gaussian 16 at Sat Aug 27 23:18:39 2022.
