 Gaussian 16, Revision A.03,
 Gaussian 16:  ES64L-G16RevA.03 25-Dec-2016

 ------------------
 #p CCSD(T)/cc-pVTZ
 ------------------

 ------------
 H2O_H2O_2692
 ------------
 Symbolic Z-matrix:
 Charge =  0 Multiplicity = 1

                         Standard orientation:
 ---------------------------------------------------------------------
 Center     Atomic      Atomic             Coordinates (Angstroms)
 Number     Number       Type             X           Y           Z
 ---------------------------------------------------------------------
      1          8           0        0.037462    2.178950    0.000000
      2          1           0        0.035207    1.196351    0.000000
      3          1           0       -0.891297    2.499749    0.000000
      4          8           0        0.037462   -1.999999   -0.000000
      5          1           0        0.917731   -2.436614   -0.000000
      6          1           0       -0.661033   -2.691093   -0.000000
 ---------------------------------------------------------------------

 SCF Done:  E(RHF) =  -152.110566823     A.U. after   10 cycles
 E2 =    -0.5260096573D+00 EUMP2 =    -0.15263657648032D+03
 CCSD(T)
 CCSD(T)= -0.15266369632D+03

 The electronic state is 1-A'.
 Alpha  occ. eigenvalues --  -20.56815 -20.54259  -1.34084  -1.31587  -0.71481
 Alpha  occ. eigenvalues --   -0.68985  -0.57661  -0.55078  -0.51218  -0.48729
 Alpha virt. eigenvalues --    0.12405   0.16262   0.19360   0.23557   0.53004
 Alpha virt. eigenvalues --    0.55590   0.56377   0.58806   0.69056   0.69806
 Alpha virt. eigenvalues --    0.77601   0.78976   0.80069   0.80102   0.83493

 Mulliken charges:
               1
     1  O   -0.522307
     2  H    0.265665
     3  H    0.251944
     4  O   -0.513066
     5  H    0.260286
     6  H    0.257477
 Sum of Mulliken charges =  -0.00000

 Dipole moment (field-independent basis, Debye):
    X=             -1.2754    Y=             -3.2562    Z=             -0.0000  Tot=              3.4971
 Quadrupole moment (field-independent basis, Debye-Ang):
   XX=             -9.1591   YY=             -7.4282   ZZ=            -14.7220
   XY=             -4.8422   XZ=             -0.0000   YZ=              0.0000

 Normal termination of Gaussian 16 at Fri Aug 26 16:36:08 2022.
