 Gaussian 16, Revision A.03,
 Gaussian 16:  ES64L-G16RevA.03 25-Dec-2016

 ------------------
 #p CCSD(T)/cc-pVTZ
 ------------------

 ------------
 H2O_H2O_2919
 ------------
 Symbolic Z-matrix:
 Charge =  0 Multiplicity = 1

                         Standard orientation:
 ---------------------------------------------------------------------
 Center     Atomic      Atomic             Coordinates (Angstroms)
 Number     Number       Type             X           Y           Z
 ---------------------------------------------------------------------
      1          8           0        0.030197    2.266879   -0.000000
      2          1           0        0.027752    1.284281   -0.000000
      3          1           0       -0.898500    2.587857   -0.000000
      4          8           0        0.030197   -2.091277    0.000000
      5          1           0        0.959864   -2.409438    0.000000
      6          1           0       -0.572267   -2.867515    0.000000
 ---------------------------------------------------------------------

 SCF Done:  E(RHF) =  -152.110109440     A.U. after   10 cycles
 E2 =    -0.5259412128D+00 EUMP2 =    -0.15263605065313D+03
 CCSD(T)
 CCSD(T)= -0.15266318639D+03

 The electronic state is 1-A'.
 Alpha  occ. eigenvalues --  -20.56681 -20.54431  -1.33959  -1.31754  -0.71360
 Alpha  occ. eigenvalues --   -0.69155  -0.57514  -0.55246  -0.51090  -0.48893
 Alpha virt. eigenvalues --    0.12442   0.16033   0.19381   0.22995   0.53314
 Alpha virt. eigenvalues --    0.55549   0.56418   0.58518   0.68533   0.69354
 Alpha virt. eigenvalues --    0.77788   0.79014   0.79856   0.79936   0.83281

 Mulliken charges:
               1
     1  O   -0.520754
     2  H    0.264409
     3  H    0.253056
     4  O   -0.514558
     5  H    0.259768
     6  H    0.258080
 Sum of Mulliken charges =  -0.00000

 Dipole moment (field-independent basis, Debye):
    X=             -1.0304    Y=             -3.1697    Z=              0.0000  Tot=              3.3329
 Quadrupole moment (field-independent basis, Debye-Ang):
   XX=             -9.2294   YY=             -7.3994   ZZ=            -14.7206
   XY=             -5.3028   XZ=              0.0000   YZ=             -0.0000

 CCSD(T)=-152.6631864\RMSD=6.793e-09\PG=CS [SG(H4O2)]\\@
 Normal termination of Gaussian 16 at Fri Aug 26 18:21:30 2022.
