 Gaussian 16, Revision A.03,
 Gaussian 16:  ES64L-G16RevA.03 25-Dec-2016

 ------------------
 #p CCSD(T)/cc-pVTZ
 ------------------

 ------------
 H2O_H2O_1424
 ------------
 Symbolic Z-matrix:
 Charge =  0 Multiplicity = 1

                         Standard orientation:
 ---------------------------------------------------------------------
 Center     Atomic      Atomic             Coordinates (Angstroms)
 Number     Number       Type             X           Y           Z
 ---------------------------------------------------------------------
      1          8           0        0.013624   -1.659677    0.000000
      2          1           0        0.009358   -0.677085    0.000000
      3          1           0       -0.914477   -1.982375    0.000000
      4          8           0        0.013624    1.500451    0.000000
      5          1           0        0.996217    1.504716    0.000000
      6          1           0       -0.309074    2.428552    0.000000
 ---------------------------------------------------------------------

 SCF Done:  E(RHF) =  -152.112972352     A.U. after   10 cycles
 E2 =    -0.5272762032D+00 EUMP2 =    -0.15264024855541D+03
 CCSD(T)
 CCSD(T)= -0.15266725517D+03

 The electronic state is 1-A'.
 Alpha  occ. eigenvalues --  -20.57964 -20.53258  -1.35319  -1.30708  -0.72855
 Alpha  occ. eigenvalues --   -0.68244  -0.59122  -0.54018  -0.52417  -0.47858
 Alpha virt. eigenvalues --    0.12143   0.17563   0.19187   0.29389   0.50589
 Alpha virt. eigenvalues --    0.54530   0.55564   0.61015   0.68738   0.73824
 Alpha virt. eigenvalues --    0.74345   0.77000   0.81370   0.82531   0.84269

 Mulliken charges:
               1
     1  O   -0.546814
     2  H    0.275804
     3  H    0.253753
     4  O   -0.494868
     5  H    0.262560
     6  H    0.249565
 Sum of Mulliken charges =  -0.00000

 Dipole moment (field-independent basis, Debye):
    X=             -0.4698    Y=              3.1490    Z=              0.0000  Tot=              3.1838
 Quadrupole moment (field-independent basis, Debye-Ang):
   XX=             -9.6474   YY=             -8.6108   ZZ=            -14.7277
   XY=              4.4608   XZ=              0.0000   YZ=              0.0000

 Normal termination of Gaussian 16 at Sat Aug 27 00:29:59 2022.
