 Gaussian 16, Revision A.03,
 Gaussian 16:  ES64L-G16RevA.03 25-Dec-2016

 ------------------
 #p CCSD(T)/cc-pVTZ
 ------------------

 ------------
 H2O_H2O_1229
 ------------
 Symbolic Z-matrix:
 Charge =  0 Multiplicity = 1

                         Standard orientation:
 ---------------------------------------------------------------------
 Center     Atomic      Atomic             Coordinates (Angstroms)
 Number     Number       Type             X           Y           Z
 ---------------------------------------------------------------------
      1          8           0        0.082819   -1.587284    0.000000
      2          1           0        0.082248   -0.604683    0.000000
      3          1           0       -0.846489   -1.906490    0.000000
      4          8           0        0.082819    1.432798    0.000000
      5          1           0        0.336584    2.382066    0.000000
      6          1           0       -0.897440    1.364991    0.000000
 ---------------------------------------------------------------------

 SCF Done:  E(RHF) =  -152.110702295     A.U. after   10 cycles
 E2 =    -0.5282203448D+00 EUMP2 =    -0.15263892263984D+03
 CCSD(T)
 CCSD(T)= -0.15266591318D+03

 The electronic state is 1-A'.
 Alpha  occ. eigenvalues --  -20.58316 -20.53311  -1.35745  -1.30777  -0.73413
 Alpha  occ. eigenvalues --   -0.68324  -0.59280  -0.54031  -0.52785  -0.47878
 Alpha virt. eigenvalues --    0.11615   0.16699   0.19976   0.29775   0.48889
 Alpha virt. eigenvalues --    0.54535   0.58261   0.58724   0.69054   0.73016
 Alpha virt. eigenvalues --    0.74660   0.77149   0.81438   0.81864   0.83750

 Mulliken charges:
               1
     1  O   -0.536773
     2  H    0.281773
     3  H    0.236622
     4  O   -0.471052
     5  H    0.243599
     6  H    0.245831
 Sum of Mulliken charges =  -0.00000

 Dipole moment (field-independent basis, Debye):
    X=             -2.7481    Y=              3.1242    Z=              0.0000  Tot=              4.1609
 Quadrupole moment (field-independent basis, Debye-Ang):
   XX=            -10.2928   YY=             -8.7779   ZZ=            -14.7146
   XY=              2.7041   XZ=              0.0000   YZ=              0.0000

 CCSD(T)=-152.6659132\RMSD=7.370e-09\PG=CS [SG(H4O2)]\\@
 Normal termination of Gaussian 16 at Fri Aug 26 23:15:35 2022.
