 Gaussian 16, Revision A.03,
 Gaussian 16:  ES64L-G16RevA.03 25-Dec-2016

 ------------------
 #p CCSD(T)/cc-pVTZ
 ------------------

 ------------
 H2O_H2O_2377
 ------------
 Symbolic Z-matrix:
 Charge =  0 Multiplicity = 1

                         Standard orientation:
 ---------------------------------------------------------------------
 Center     Atomic      Atomic             Coordinates (Angstroms)
 Number     Number       Type             X           Y           Z
 ---------------------------------------------------------------------
      1          8           0        0.088234   -2.040467    0.000000
      2          1           0        0.088030   -1.057866    0.000000
      3          1           0       -0.841193   -2.359326    0.000000
      4          8           0        0.088234    1.896152    0.000000
      5          1           0        0.216287    2.870374    0.000000
      6          1           0       -0.874862    1.701336    0.000000
 ---------------------------------------------------------------------

 SCF Done:  E(RHF) =  -152.109092601     A.U. after   10 cycles
 E2 =    -0.5263421283D+00 EUMP2 =    -0.15263543472926D+03
 CCSD(T)
 CCSD(T)= -0.15266257579D+03

 The electronic state is 1-A'.
 Alpha  occ. eigenvalues --  -20.57011 -20.54773  -1.34297  -1.32083  -0.71754
 Alpha  occ. eigenvalues --   -0.69442  -0.57799  -0.55531  -0.51405  -0.49202
 Alpha virt. eigenvalues --    0.11614   0.16011   0.19776   0.24328   0.53280
 Alpha virt. eigenvalues --    0.55708   0.56537   0.57796   0.68500   0.71582
 Alpha virt. eigenvalues --    0.77132   0.79461   0.79751   0.80221   0.83338

 Mulliken charges:
               1
     1  O   -0.514764
     2  H    0.263932
     3  H    0.246766
     4  O   -0.504334
     5  H    0.259140
     6  H    0.249261
 Sum of Mulliken charges =  -0.00000

 Dipole moment (field-independent basis, Debye):
    X=             -2.9891    Y=              2.6469    Z=              0.0000  Tot=              3.9926
 Quadrupole moment (field-independent basis, Debye-Ang):
   XX=            -10.5744   YY=             -8.7317   ZZ=            -14.7159
   XY=              2.5307   XZ=              0.0000   YZ=              0.0000

 Normal termination of Gaussian 16 at Sun Aug 28 06:46:25 2022.
