 Gaussian 16, Revision A.03,
 Gaussian 16:  ES64L-G16RevA.03 25-Dec-2016

 ------------------
 #p CCSD(T)/cc-pVTZ
 ------------------

 ----------
 H2O_H2O_99
 ----------
 Symbolic Z-matrix:
 Charge =  0 Multiplicity = 1

                         Standard orientation:
 ---------------------------------------------------------------------
 Center     Atomic      Atomic             Coordinates (Angstroms)
 Number     Number       Type             X           Y           Z
 ---------------------------------------------------------------------
      1          8           0       -0.013797   -1.131143   -0.000000
      2          1           0       -0.007388   -0.148562   -0.000000
      3          1           0        0.913598   -1.455865   -0.000000
      4          8           0       -0.013797    0.971976    0.000000
      5          1           0       -0.996379    0.978385    0.000000
      6          1           0        0.310925    1.899371    0.000000
 ---------------------------------------------------------------------

 SCF Done:  E(RHF) =  -152.041182975     A.U. after   11 cycles
 E2 =    -0.5364391049D+00 EUMP2 =    -0.15257762207955D+03
 CCSD(T)
 CCSD(T)= -0.15260316506D+03

 The electronic state is 1-A'.
 Alpha  occ. eigenvalues --  -20.61609 -20.45291  -1.43575  -1.25183  -0.82280
 Alpha  occ. eigenvalues --   -0.72536  -0.58153  -0.56438  -0.45370  -0.41882
 Alpha virt. eigenvalues --    0.10807   0.17135   0.20719   0.33612   0.47882
 Alpha virt. eigenvalues --    0.51470   0.60013   0.69361   0.70928   0.72285
 Alpha virt. eigenvalues --    0.76394   0.76444   0.80264   0.85748   0.86581

 Mulliken charges:
               1
     1  O   -0.674621
     2  H    0.269870
     3  H    0.227186
     4  O   -0.317372
     5  H    0.266630
     6  H    0.228307
 Sum of Mulliken charges =  -0.00000

 Dipole moment (field-independent basis, Debye):
    X=              0.4116    Y=              4.5446    Z=              0.0000  Tot=              4.5632
 Quadrupole moment (field-independent basis, Debye-Ang):
   XX=             -9.4990   YY=            -10.0270   ZZ=            -14.5469
   XY=             -2.9361   XZ=             -0.0000   YZ=              0.0000

 Normal termination of Gaussian 16 at Fri Aug 26 15:51:00 2022.
