 Gaussian 16, Revision A.03,
 Gaussian 16:  ES64L-G16RevA.03 25-Dec-2016

 ------------------
 #p CCSD(T)/cc-pVTZ
 ------------------

 ------------
 H2O_H2O_1841
 ------------
 Symbolic Z-matrix:
 Charge =  0 Multiplicity = 1

                         Standard orientation:
 ---------------------------------------------------------------------
 Center     Atomic      Atomic             Coordinates (Angstroms)
 Number     Number       Type             X           Y           Z
 ---------------------------------------------------------------------
      1          8           0        0.041193    1.840409    0.000000
      2          1           0        0.038681    0.857811    0.000000
      3          1           0       -0.887482    2.161451    0.000000
      4          8           0        0.041193   -1.660532   -0.000000
      5          1           0        0.890893   -2.154007   -0.000000
      6          1           0       -0.701176   -2.304268   -0.000000
 ---------------------------------------------------------------------

 SCF Done:  E(RHF) =  -152.112952372     A.U. after   10 cycles
 E2 =    -0.5265767502D+00 EUMP2 =    -0.15263952912174D+03
 CCSD(T)
 CCSD(T)= -0.15266657377D+03

 The electronic state is 1-A'.
 Alpha  occ. eigenvalues --  -20.57523 -20.53462  -1.34777  -1.30842  -0.72149
 Alpha  occ. eigenvalues --   -0.68313  -0.58523  -0.54278  -0.51917  -0.47997
 Alpha virt. eigenvalues --    0.12196   0.17228   0.19084   0.27100   0.51243
 Alpha virt. eigenvalues --    0.54713   0.56352   0.59128   0.69075   0.72410
 Alpha virt. eigenvalues --    0.75682   0.77214   0.80963   0.83329   0.84556

 Mulliken charges:
               1
     1  O   -0.533521
     2  H    0.271201
     3  H    0.248973
     4  O   -0.508057
     5  H    0.263070
     6  H    0.258334
 Sum of Mulliken charges =  -0.00000

 Dipole moment (field-independent basis, Debye):
    X=             -1.3903    Y=             -3.4235    Z=             -0.0000  Tot=              3.6950
 Quadrupole moment (field-independent basis, Debye-Ang):
   XX=             -9.1521   YY=             -7.9966   ZZ=            -14.7317
   XY=             -4.1003   XZ=             -0.0000   YZ=             -0.0000

 Normal termination of Gaussian 16 at Sun Aug 28 02:06:22 2022.
