 Gaussian 16, Revision A.03,
 Gaussian 16:  ES64L-G16RevA.03 25-Dec-2016

 ------------------
 #p CCSD(T)/cc-pVTZ
 ------------------

 ------------
 H2O_H2O_4494
 ------------
 Symbolic Z-matrix:
 Charge =  0 Multiplicity = 1

                         Standard orientation:
 ---------------------------------------------------------------------
 Center     Atomic      Atomic             Coordinates (Angstroms)
 Number     Number       Type             X           Y           Z
 ---------------------------------------------------------------------
      1          8           0        0.030148    2.895126   -0.000000
      2          1           0        0.028250    1.912527   -0.000000
      3          1           0       -0.898728    3.215587    0.000000
      4          8           0        0.030148   -2.719491   -0.000000
      5          1           0        0.959992   -3.037134   -0.000000
      6          1           0       -0.571883   -3.496062    0.000000
 ---------------------------------------------------------------------

 SCF Done:  E(RHF) =  -152.108485562     A.U. after   10 cycles
 E2 =    -0.5257999354D+00 EUMP2 =    -0.15263428549789D+03
 CCSD(T)
 CCSD(T)= -0.15266148154D+03

 The electronic state is 1-A'.
 Alpha  occ. eigenvalues --  -20.56182 -20.54968  -1.33484  -1.32276  -0.70888
 Alpha  occ. eigenvalues --   -0.69679  -0.56980  -0.55749  -0.50603  -0.49400
 Alpha virt. eigenvalues --    0.13338   0.14939   0.19645   0.21098   0.53594
 Alpha virt. eigenvalues --    0.54879   0.56673   0.57798   0.66831   0.68737
 Alpha virt. eigenvalues --    0.78282   0.79455   0.79551   0.80343   0.82636

 Mulliken charges:
               1
     1  O   -0.514415
     2  H    0.260213
     3  H    0.254074
     4  O   -0.515018
     5  H    0.257763
     6  H    0.257383
 Sum of Mulliken charges =   0.00000

 Dipole moment (field-independent basis, Debye):
    X=             -1.0345    Y=             -3.0827    Z=              0.0000  Tot=              3.2517
 Quadrupole moment (field-independent basis, Debye-Ang):
   XX=             -9.2304   YY=             -6.4893   ZZ=            -14.7150
   XY=             -6.6651   XZ=             -0.0000   YZ=              0.0000

 Normal termination of Gaussian 16 at Sun Aug 28 03:20:50 2022.
