 Gaussian 16, Revision A.03,
 Gaussian 16:  ES64L-G16RevA.03 25-Dec-2016

 ------------------
 #p CCSD(T)/cc-pVTZ
 ------------------

 ------------
 H2O_H2O_2752
 ------------
 Symbolic Z-matrix:
 Charge =  0 Multiplicity = 1

                         Standard orientation:
 ---------------------------------------------------------------------
 Center     Atomic      Atomic             Coordinates (Angstroms)
 Number     Number       Type             X           Y           Z
 ---------------------------------------------------------------------
      1          8           0        0.088233   -2.190047    0.000000
      2          1           0        0.088043   -1.207446    0.000000
      3          1           0       -0.841199   -2.508892    0.000000
      4          8           0        0.088233    2.045730    0.000000
      5          1           0        0.216301    3.019950    0.000000
      6          1           0       -0.874866    1.850927    0.000000
 ---------------------------------------------------------------------

 SCF Done:  E(RHF) =  -152.108662919     A.U. after   10 cycles
 E2 =    -0.5261428649D+00 EUMP2 =    -0.15263480578416D+03
 CCSD(T)
 CCSD(T)= -0.15266196826D+03

 The electronic state is 1-A'.
 Alpha  occ. eigenvalues --  -20.56777 -20.54914  -1.34066  -1.32220  -0.71503
 Alpha  occ. eigenvalues --   -0.69594  -0.57553  -0.55675  -0.51177  -0.49338
 Alpha virt. eigenvalues --    0.11665   0.15781   0.19555   0.23443   0.54179
 Alpha virt. eigenvalues --    0.55018   0.56465   0.58155   0.68531   0.69515
 Alpha virt. eigenvalues --    0.77649   0.78707   0.79549   0.80747   0.82868

 Mulliken charges:
               1
     1  O   -0.513012
     2  H    0.262123
     3  H    0.248430
     4  O   -0.507534
     5  H    0.259537
     6  H    0.250457
 Sum of Mulliken charges =   0.00000

 Dipole moment (field-independent basis, Debye):
    X=             -2.9993    Y=              2.6101    Z=              0.0000  Tot=              3.9760
 Quadrupole moment (field-independent basis, Debye-Ang):
   XX=            -10.5664   YY=             -8.6895   ZZ=            -14.7148
   XY=              2.5585   XZ=              0.0000   YZ=              0.0000

 Normal termination of Gaussian 16 at Fri Aug 26 17:03:55 2022.
