 Gaussian 16, Revision A.03,
 Gaussian 16:  ES64L-G16RevA.03 25-Dec-2016

 ------------------
 #p CCSD(T)/cc-pVTZ
 ------------------

 ------------
 H2O_H2O_1399
 ------------
 Symbolic Z-matrix:
 Charge =  0 Multiplicity = 1

                         Standard orientation:
 ---------------------------------------------------------------------
 Center     Atomic      Atomic             Coordinates (Angstroms)
 Number     Number       Type             X           Y           Z
 ---------------------------------------------------------------------
      1          8           0        0.013626   -1.649705    0.000000
      2          1           0        0.009333   -0.667113    0.000000
      3          1           0       -0.914466   -1.972429    0.000000
      4          8           0        0.013626    1.490479    0.000000
      5          1           0        0.996218    1.494772    0.000000
      6          1           0       -0.309099    2.418572    0.000000
 ---------------------------------------------------------------------

 SCF Done:  E(RHF) =  -152.112984193     A.U. after   10 cycles
 E2 =    -0.5273368140D+00 EUMP2 =    -0.15264032100664D+03
 CCSD(T)
 CCSD(T)= -0.15266732257D+03

 The electronic state is 1-A'.
 Alpha  occ. eigenvalues --  -20.58001 -20.53209  -1.35363  -1.30666  -0.72907
 Alpha  occ. eigenvalues --   -0.68216  -0.59170  -0.53964  -0.52458  -0.47816
 Alpha virt. eigenvalues --    0.12138   0.17594   0.19180   0.29543   0.50492
 Alpha virt. eigenvalues --    0.54551   0.55544   0.61130   0.68722   0.73723
 Alpha virt. eigenvalues --    0.74364   0.76945   0.81420   0.82479   0.84272

 Mulliken charges:
               1
     1  O   -0.547863
     2  H    0.276416
     3  H    0.253673
     4  O   -0.493563
     5  H    0.262530
     6  H    0.248807
 Sum of Mulliken charges =  -0.00000

 Dipole moment (field-independent basis, Debye):
    X=             -0.4698    Y=              3.1588    Z=              0.0000  Tot=              3.1936
 Quadrupole moment (field-independent basis, Debye-Ang):
   XX=             -9.6470   YY=             -8.6247   ZZ=            -14.7274
   XY=              4.4332   XZ=              0.0000   YZ=              0.0000

 Normal termination of Gaussian 16 at Sat Aug 27 00:20:52 2022.
