 Gaussian 16, Revision A.03,
 Gaussian 16:  ES64L-G16RevA.03 25-Dec-2016

 ------------------
 #p CCSD(T)/cc-pVTZ
 ------------------

 ------------
 H2O_H2O_1411
 ------------
 Symbolic Z-matrix:
 Charge =  0 Multiplicity = 1

                         Standard orientation:
 ---------------------------------------------------------------------
 Center     Atomic      Atomic             Coordinates (Angstroms)
 Number     Number       Type             X           Y           Z
 ---------------------------------------------------------------------
      1          8           0        0.059689    1.669528   -0.000000
      2          1           0        0.057901    0.686928   -0.000000
      3          1           0       -0.869222    1.989885   -0.000000
      4          8           0        0.059689   -1.492148    0.000000
      5          1           0        0.706219   -2.232085    0.000000
      6          1           0       -0.849929   -1.863764    0.000000
 ---------------------------------------------------------------------

 SCF Done:  E(RHF) =  -152.113523247     A.U. after   10 cycles
 E2 =    -0.5273970536D+00 EUMP2 =    -0.15264092030018D+03
 CCSD(T)
 CCSD(T)= -0.15266790677D+03

 The electronic state is 1-A'.
 Alpha  occ. eigenvalues --  -20.58087 -20.52868  -1.35395  -1.30329  -0.72748
 Alpha  occ. eigenvalues --   -0.68039  -0.59167  -0.53636  -0.52512  -0.47468
 Alpha virt. eigenvalues --    0.11940   0.17406   0.19160   0.29414   0.49342
 Alpha virt. eigenvalues --    0.54946   0.56544   0.59276   0.69555   0.72328
 Alpha virt. eigenvalues --    0.73959   0.76666   0.81624   0.82876   0.84706

 Mulliken charges:
               1
     1  O   -0.541795
     2  H    0.280585
     3  H    0.242708
     4  O   -0.501690
     5  H    0.263313
     6  H    0.256879
 Sum of Mulliken charges =  -0.00000

 Dipole moment (field-independent basis, Debye):
    X=             -1.9946    Y=             -3.5110    Z=              0.0000  Tot=              4.0380
 Quadrupole moment (field-independent basis, Debye-Ang):
   XX=             -9.3773   YY=             -8.3733   ZZ=            -14.7328
   XY=             -3.4596   XZ=              0.0000   YZ=             -0.0000

 Normal termination of Gaussian 16 at Sat Aug 27 00:25:17 2022.
