 Gaussian 16, Revision A.03,
 Gaussian 16:  ES64L-G16RevA.03 25-Dec-2016

 ------------------
 #p CCSD(T)/cc-pVTZ
 ------------------

 ------------
 H2O_H2O_2537
 ------------
 Symbolic Z-matrix:
 Charge =  0 Multiplicity = 1

                         Standard orientation:
 ---------------------------------------------------------------------
 Center     Atomic      Atomic             Coordinates (Angstroms)
 Number     Number       Type             X           Y           Z
 ---------------------------------------------------------------------
      1          8           0        0.056004    2.119083   -0.000000
      2          1           0        0.054459    1.136483   -0.000000
      3          1           0       -0.872986    2.439211   -0.000000
      4          8           0        0.056004   -1.940193    0.000000
      5          1           0        0.749715   -2.636089    0.000000
      6          1           0       -0.827256   -2.370723    0.000000
 ---------------------------------------------------------------------

 SCF Done:  E(RHF) =  -152.110656254     A.U. after   10 cycles
 E2 =    -0.5261002107D+00 EUMP2 =    -0.15263675646453D+03
 CCSD(T)
 CCSD(T)= -0.15266386896D+03

 The electronic state is 1-A'.
 Alpha  occ. eigenvalues --  -20.56924 -20.54186  -1.34188  -1.31515  -0.71587
 Alpha  occ. eigenvalues --   -0.68906  -0.57770  -0.54998  -0.51321  -0.48655
 Alpha virt. eigenvalues --    0.12301   0.16357   0.19354   0.23962   0.52765
 Alpha virt. eigenvalues --    0.55653   0.56172   0.58983   0.69004   0.70475
 Alpha virt. eigenvalues --    0.77421   0.78754   0.80187   0.80682   0.83589

 Mulliken charges:
               1
     1  O   -0.521815
     2  H    0.266359
     3  H    0.249715
     4  O   -0.510726
     5  H    0.260394
     6  H    0.256073
 Sum of Mulliken charges =   0.00000

 Dipole moment (field-independent basis, Debye):
    X=             -1.9031    Y=             -3.2748    Z=              0.0000  Tot=              3.7876
 Quadrupole moment (field-independent basis, Debye-Ang):
   XX=             -9.2895   YY=             -7.5326   ZZ=            -14.7222
   XY=             -4.1179   XZ=              0.0000   YZ=             -0.0000

 Normal termination of Gaussian 16 at Fri Aug 26 15:27:02 2022.
