 Gaussian 16, Revision A.03,
 Gaussian 16:  ES64L-G16RevA.03 25-Dec-2016

 ------------------
 #p CCSD(T)/cc-pVTZ
 ------------------

 ------------
 H2O_H2O_4237
 ------------
 Symbolic Z-matrix:
 Charge =  0 Multiplicity = 1

                         Standard orientation:
 ---------------------------------------------------------------------
 Center     Atomic      Atomic             Coordinates (Angstroms)
 Number     Number       Type             X           Y           Z
 ---------------------------------------------------------------------
      1          8           0        0.055969    2.797196    0.000000
      2          1           0        0.054810    1.814595    0.000000
      3          1           0       -0.873148    3.116958    0.000000
      4          8           0        0.055969   -2.618262   -0.000000
      5          1           0        0.749954   -3.313885   -0.000000
      6          1           0       -0.827121   -3.049140   -0.000000
 ---------------------------------------------------------------------

 SCF Done:  E(RHF) =  -152.108496350     A.U. after   10 cycles
 E2 =    -0.5258202863D+00 EUMP2 =    -0.15263431663596D+03
 CCSD(T)
 CCSD(T)= -0.15266150982D+03

 The electronic state is 1-A'.
 Alpha  occ. eigenvalues --  -20.56240 -20.54896  -1.33540  -1.32205  -0.70944
 Alpha  occ. eigenvalues --   -0.69604  -0.57035  -0.55676  -0.50659  -0.49328
 Alpha virt. eigenvalues --    0.13204   0.15046   0.19649   0.21165   0.53580
 Alpha virt. eigenvalues --    0.54883   0.56614   0.57811   0.66722   0.68930
 Alpha virt. eigenvalues --    0.78232   0.79488   0.79525   0.79987   0.82785

 Mulliken charges:
               1
     1  O   -0.513991
     2  H    0.260972
     3  H    0.252761
     4  O   -0.514752
     5  H    0.258843
     6  H    0.256167
 Sum of Mulliken charges =  -0.00000

 Dipole moment (field-independent basis, Debye):
    X=             -1.9179    Y=             -3.1494    Z=             -0.0000  Tot=              3.6874
 Quadrupole moment (field-independent basis, Debye-Ang):
   XX=             -9.2852   YY=             -6.4686   ZZ=            -14.7151
   XY=             -4.9884   XZ=             -0.0000   YZ=             -0.0000

 Normal termination of Gaussian 16 at Sun Aug 28 01:01:27 2022.
