 Gaussian 16, Revision A.03,
 Gaussian 16:  ES64L-G16RevA.03 25-Dec-2016

 ------------------
 #p CCSD(T)/cc-pVTZ
 ------------------

 ------------
 H2O_H2O_3717
 ------------
 Symbolic Z-matrix:
 Charge =  0 Multiplicity = 1

                         Standard orientation:
 ---------------------------------------------------------------------
 Center     Atomic      Atomic             Coordinates (Angstroms)
 Number     Number       Type             X           Y           Z
 ---------------------------------------------------------------------
      1          8           0        0.037428    2.587813    0.000000
      2          1           0        0.035543    1.605213    0.000000
      3          1           0       -0.891451    2.908262    0.000000
      4          8           0        0.037428   -2.408834   -0.000000
      5          1           0        0.917862   -2.845117   -0.000000
      6          1           0       -0.660808   -3.100189   -0.000000
 ---------------------------------------------------------------------

 SCF Done:  E(RHF) =  -152.109039945     A.U. after   10 cycles
 E2 =    -0.5258307571D+00 EUMP2 =    -0.15263487070207D+03
 CCSD(T)
 CCSD(T)= -0.15266204570D+03

 The electronic state is 1-A'.
 Alpha  occ. eigenvalues --  -20.56367 -20.54733  -1.33661  -1.32045  -0.71064
 Alpha  occ. eigenvalues --   -0.69446  -0.57177  -0.55527  -0.50785  -0.49175
 Alpha virt. eigenvalues --    0.12898   0.15390   0.19573   0.21598   0.53449
 Alpha virt. eigenvalues --    0.55040   0.56549   0.57904   0.66787   0.69248
 Alpha virt. eigenvalues --    0.78114   0.79095   0.79667   0.79742   0.82972

 Mulliken charges:
               1
     1  O   -0.516387
     2  H    0.262253
     3  H    0.253280
     4  O   -0.516022
     5  H    0.259126
     6  H    0.257750
 Sum of Mulliken charges =  -0.00000

 Dipole moment (field-independent basis, Debye):
    X=             -1.2808    Y=             -3.1726    Z=             -0.0000  Tot=              3.4213
 Quadrupole moment (field-independent basis, Debye-Ang):
   XX=             -9.1591   YY=             -6.7858   ZZ=            -14.7170
   XY=             -5.6277   XZ=             -0.0000   YZ=              0.0000

 Normal termination of Gaussian 16 at Fri Aug 26 23:16:55 2022.
