 Gaussian 16, Revision A.03,
 Gaussian 16:  ES64L-G16RevA.03 25-Dec-2016

 ------------------
 #p CCSD(T)/cc-pVTZ
 ------------------

 ------------
 H2O_H2O_1918
 ------------
 Symbolic Z-matrix:
 Charge =  0 Multiplicity = 1

                         Standard orientation:
 ---------------------------------------------------------------------
 Center     Atomic      Atomic             Coordinates (Angstroms)
 Number     Number       Type             X           Y           Z
 ---------------------------------------------------------------------
      1          8           0        0.033845    1.869025    0.000000
      2          1           0        0.031024    0.886428    0.000000
      3          1           0       -0.894730    2.190358    0.000000
      4          8           0        0.033845   -1.691544   -0.000000
      5          1           0        0.940568   -2.070173   -0.000000
      6          1           0       -0.618379   -2.426465   -0.000000
 ---------------------------------------------------------------------

 SCF Done:  E(RHF) =  -152.112698219     A.U. after   10 cycles
 E2 =    -0.5264769350D+00 EUMP2 =    -0.15263917515406D+03
 CCSD(T)
 CCSD(T)= -0.15266622885D+03

 The electronic state is 1-A'.
 Alpha  occ. eigenvalues --  -20.57429 -20.53597  -1.34685  -1.30967  -0.72068
 Alpha  occ. eigenvalues --   -0.68420  -0.58410  -0.54417  -0.51825  -0.48124
 Alpha virt. eigenvalues --    0.12230   0.17142   0.19114   0.26698   0.51733
 Alpha virt. eigenvalues --    0.54691   0.56319   0.59054   0.69081   0.72532
 Alpha virt. eigenvalues --    0.75949   0.77565   0.80827   0.83387   0.84446

 Mulliken charges:
               1
     1  O   -0.532568
     2  H    0.269884
     3  H    0.250507
     4  O   -0.508699
     5  H    0.262436
     6  H    0.258440
 Sum of Mulliken charges =  -0.00000

 Dipole moment (field-independent basis, Debye):
    X=             -1.1450    Y=             -3.3586    Z=             -0.0000  Tot=              3.5484
 Quadrupole moment (field-independent basis, Debye-Ang):
   XX=             -9.1877   YY=             -7.9828   ZZ=            -14.7305
   XY=             -4.3371   XZ=             -0.0000   YZ=             -0.0000

 5614\MP4DQ=-152.6480365\MP4SDQ=-152.6511184\CCSD=-152.6505094\CCSD(T)=
 Normal termination of Gaussian 16 at Sun Aug 28 02:47:30 2022.
