 Gaussian 16, Revision A.03,
 Gaussian 16:  ES64L-G16RevA.03 25-Dec-2016

 ------------------
 #p CCSD(T)/cc-pVTZ
 ------------------

 ------------
 H2O_H2O_3528
 ------------
 Symbolic Z-matrix:
 Charge =  0 Multiplicity = 1

                         Standard orientation:
 ---------------------------------------------------------------------
 Center     Atomic      Atomic             Coordinates (Angstroms)
 Number     Number       Type             X           Y           Z
 ---------------------------------------------------------------------
      1          8           0        0.085600   -2.502046    0.000000
      2          1           0        0.085342   -1.519445    0.000000
      3          1           0       -0.843810   -2.820956    0.000000
      4          8           0        0.085600    2.352446    0.000000
      5          1           0        0.277043    3.316218    0.000000
      6          1           0       -0.888168    2.220984    0.000000
 ---------------------------------------------------------------------

 SCF Done:  E(RHF) =  -152.108221863     A.U. after   10 cycles
 E2 =    -0.5259321149D+00 EUMP2 =    -0.15263415397769D+03
 CCSD(T)
 CCSD(T)= -0.15266134416D+03

 The electronic state is 1-A'.
 Alpha  occ. eigenvalues --  -20.56444 -20.55044  -1.33741  -1.32349  -0.71159
 Alpha  occ. eigenvalues --   -0.69739  -0.57218  -0.55809  -0.50854  -0.49467
 Alpha virt. eigenvalues --    0.12149   0.15324   0.19198   0.22218   0.53374
 Alpha virt. eigenvalues --    0.55013   0.56446   0.58041   0.66942   0.69048
 Alpha virt. eigenvalues --    0.78051   0.78674   0.79395   0.81068   0.82618

 Mulliken charges:
               1
     1  O   -0.511498
     2  H    0.259964
     3  H    0.250742
     4  O   -0.511554
     5  H    0.259689
     6  H    0.252658
 Sum of Mulliken charges =   0.00000

 Dipole moment (field-independent basis, Debye):
    X=             -2.9246    Y=              2.6571    Z=              0.0000  Tot=              3.9514
 Quadrupole moment (field-independent basis, Debye-Ang):
   XX=            -10.4027   YY=             -8.3201   ZZ=            -14.7138
   XY=              2.8388   XZ=              0.0000   YZ=              0.0000

 Normal termination of Gaussian 16 at Fri Aug 26 22:13:02 2022.
