 Gaussian 16, Revision A.03,
 Gaussian 16:  ES64L-G16RevA.03 25-Dec-2016

 ------------------
 #p CCSD(T)/cc-pVTZ
 ------------------

 ------------
 H2O_H2O_2778
 ------------
 Symbolic Z-matrix:
 Charge =  0 Multiplicity = 1

                         Standard orientation:
 ---------------------------------------------------------------------
 Center     Atomic      Atomic             Coordinates (Angstroms)
 Number     Number       Type             X           Y           Z
 ---------------------------------------------------------------------
      1          8           0        0.085602   -2.202885    0.000000
      2          1           0        0.085309   -1.220284    0.000000
      3          1           0       -0.843796   -2.521829    0.000000
      4          8           0        0.085602    2.053292    0.000000
      5          1           0        0.277011    3.017070    0.000000
      6          1           0       -0.888161    1.921792    0.000000
 ---------------------------------------------------------------------

 SCF Done:  E(RHF) =  -152.108844211     A.U. after   10 cycles
 E2 =    -0.5261168418D+00 EUMP2 =    -0.15263496105273D+03
 CCSD(T)
 CCSD(T)= -0.15266211943D+03

 The electronic state is 1-A'.
 Alpha  occ. eigenvalues --  -20.56764 -20.54835  -1.34051  -1.32144  -0.71482
 Alpha  occ. eigenvalues --   -0.69520  -0.57546  -0.55602  -0.51165  -0.49264
 Alpha virt. eigenvalues --    0.11776   0.15809   0.19515   0.23308   0.54176
 Alpha virt. eigenvalues --    0.54987   0.56430   0.58250   0.68549   0.69444
 Alpha virt. eigenvalues --    0.77674   0.78778   0.79612   0.80746   0.82872

 Mulliken charges:
               1
     1  O   -0.513774
     2  H    0.262500
     3  H    0.248610
     4  O   -0.508295
     5  H    0.259575
     6  H    0.251385
 Sum of Mulliken charges =  -0.00000

 Dipole moment (field-independent basis, Debye):
    X=             -2.9110    Y=              2.7049    Z=              0.0000  Tot=              3.9737
 Quadrupole moment (field-independent basis, Debye-Ang):
   XX=            -10.4123   YY=             -8.4640   ZZ=            -14.7156
   XY=              2.7593   XZ=              0.0000   YZ=              0.0000

 Normal termination of Gaussian 16 at Fri Aug 26 17:15:10 2022.
