 Gaussian 16, Revision A.03,
 Gaussian 16:  ES64L-G16RevA.03 25-Dec-2016

 ------------------
 #p CCSD(T)/cc-pVTZ
 ------------------

 -----------
 H2O_H2O_585
 -----------
 Symbolic Z-matrix:
 Charge =  0 Multiplicity = 1

                         Standard orientation:
 ---------------------------------------------------------------------
 Center     Atomic      Atomic             Coordinates (Angstroms)
 Number     Number       Type             X           Y           Z
 ---------------------------------------------------------------------
      1          8           0        0.063317    1.339376    0.000000
      2          1           0        0.061302    0.356777    0.000000
      3          1           0       -0.865521    1.659948   -0.000000
      4          8           0        0.063317   -1.163985    0.000000
      5          1           0        0.659887   -1.944759    0.000000
      6          1           0       -0.868732   -1.475098   -0.000000
 ---------------------------------------------------------------------

 SCF Done:  E(RHF) =  -152.103272813     A.U. after   11 cycles
 E2 =    -0.5313329044D+00 EUMP2 =    -0.15263460571738D+03
 CCSD(T)
 CCSD(T)= -0.15266109636D+03

 The electronic state is 1-A'.
 Alpha  occ. eigenvalues --  -20.59944 -20.49691  -1.38181  -1.27931  -0.75272
 Alpha  occ. eigenvalues --   -0.70097  -0.58918  -0.54900  -0.50312  -0.44908
 Alpha virt. eigenvalues --    0.11300   0.17223   0.19945   0.33190   0.47967
 Alpha virt. eigenvalues --    0.53699   0.60543   0.61965   0.71180   0.72260
 Alpha virt. eigenvalues --    0.73407   0.78203   0.80628   0.83380   0.84180

 Mulliken charges:
               1
     1  O   -0.596789
     2  H    0.309543
     3  H    0.224571
     4  O   -0.436251
     5  H    0.251330
     6  H    0.247597
 Sum of Mulliken charges =  -0.00000

 Dipole moment (field-independent basis, Debye):
    X=             -2.0323    Y=             -4.0835    Z=             -0.0000  Tot=              4.5613
 Quadrupole moment (field-independent basis, Debye-Ang):
   XX=             -9.4600   YY=             -9.2747   ZZ=            -14.6800
   XY=             -2.9785   XZ=             -0.0000   YZ=             -0.0000

 Normal termination of Gaussian 16 at Fri Aug 26 19:13:46 2022.
