 Gaussian 16, Revision A.03,
 Gaussian 16:  ES64L-G16RevA.03 25-Dec-2016

 ------------------
 #p CCSD(T)/cc-pVTZ
 ------------------

 ------------
 H2O_H2O_1798
 ------------
 Symbolic Z-matrix:
 Charge =  0 Multiplicity = 1

                         Standard orientation:
 ---------------------------------------------------------------------
 Center     Atomic      Atomic             Coordinates (Angstroms)
 Number     Number       Type             X           Y           Z
 ---------------------------------------------------------------------
      1          8           0       -0.016700    1.811499    0.000000
      2          1           0       -0.012956    0.828905    0.000000
      3          1           0        0.911572    2.133705    0.000000
      4          8           0       -0.016700   -1.648139    0.000000
      5          1           0       -0.996946   -1.716139    0.000000
      6          1           0        0.365528   -2.553350    0.000000
 ---------------------------------------------------------------------

 SCF Done:  E(RHF) =  -152.112515802     A.U. after   10 cycles
 E2 =    -0.5266119798D+00 EUMP2 =    -0.15263912778145D+03
 CCSD(T)
 CCSD(T)= -0.15266618173D+03

 The electronic state is 1-A'.
 Alpha  occ. eigenvalues --  -20.57506 -20.53739  -1.34791  -1.31116  -0.72232
 Alpha  occ. eigenvalues --   -0.68567  -0.58515  -0.54544  -0.51918  -0.48272
 Alpha virt. eigenvalues --    0.12188   0.17156   0.19206   0.27280   0.51978
 Alpha virt. eigenvalues --    0.54393   0.55901   0.59596   0.68866   0.73553
 Alpha virt. eigenvalues --    0.75425   0.78005   0.80787   0.83203   0.84209

 Mulliken charges:
               1
     1  O   -0.535036
     2  H    0.269266
     3  H    0.253680
     4  O   -0.507291
     5  H    0.262005
     6  H    0.257376
 Sum of Mulliken charges =  -0.00000

 Dipole moment (field-independent basis, Debye):
    X=              0.5721    Y=             -3.1136    Z=              0.0000  Tot=              3.1657
 Quadrupole moment (field-independent basis, Debye-Ang):
   XX=             -9.5448   YY=             -8.3397   ZZ=            -14.7290
   XY=              4.7479   XZ=              0.0000   YZ=              0.0000

 Normal termination of Gaussian 16 at Sun Aug 28 01:40:48 2022.
