 Gaussian 16, Revision A.03,
 Gaussian 16:  ES64L-G16RevA.03 25-Dec-2016

 ------------------
 #p CCSD(T)/cc-pVTZ
 ------------------

 ------------
 H2O_H2O_1047
 ------------
 Symbolic Z-matrix:
 Charge =  0 Multiplicity = 1

                         Standard orientation:
 ---------------------------------------------------------------------
 Center     Atomic      Atomic             Coordinates (Angstroms)
 Number     Number       Type             X           Y           Z
 ---------------------------------------------------------------------
      1          8           0       -0.019997    1.514343    0.000000
      2          1           0       -0.015662    0.531751    0.000000
      3          1           0        0.908081    1.837106    0.000000
      4          8           0       -0.019997   -1.347304    0.000000
      5          1           0       -0.993617   -1.479855    0.000000
      6          1           0        0.421145   -2.225313    0.000000
 ---------------------------------------------------------------------

 SCF Done:  E(RHF) =  -152.112785869     A.U. after   10 cycles
 E2 =    -0.5284491374D+00 EUMP2 =    -0.15264123500646D+03
 CCSD(T)
 CCSD(T)= -0.15266810808D+03

 The electronic state is 1-A'.
 Alpha  occ. eigenvalues --  -20.58657 -20.52035  -1.36185  -1.29684  -0.73697
 Alpha  occ. eigenvalues --   -0.67914  -0.59821  -0.53220  -0.52719  -0.46809
 Alpha virt. eigenvalues --    0.11990   0.18219   0.18861   0.31766   0.49041
 Alpha virt. eigenvalues --    0.54624   0.56000   0.63103   0.68424   0.72703
 Alpha virt. eigenvalues --    0.73713   0.76776   0.81703   0.82554   0.84319

 Mulliken charges:
               1
     1  O   -0.568196
     2  H    0.289328
     3  H    0.249119
     4  O   -0.476944
     5  H    0.262680
     6  H    0.244013
 Sum of Mulliken charges =  -0.00000

 Dipole moment (field-independent basis, Debye):
    X=              0.6720    Y=             -3.5007    Z=              0.0000  Tot=              3.5646
 Quadrupole moment (field-independent basis, Debye-Ang):
   XX=             -9.4371   YY=             -8.7868   ZZ=            -14.7209
   XY=              3.8613   XZ=              0.0000   YZ=              0.0000

 Normal termination of Gaussian 16 at Fri Aug 26 22:08:12 2022.
