 Gaussian 16, Revision A.03,
 Gaussian 16:  ES64L-G16RevA.03 25-Dec-2016

 ------------------
 #p CCSD(T)/cc-pVTZ
 ------------------

 ------------
 H2O_H2O_2142
 ------------
 Symbolic Z-matrix:
 Charge =  0 Multiplicity = 1

                         Standard orientation:
 ---------------------------------------------------------------------
 Center     Atomic      Atomic             Coordinates (Angstroms)
 Number     Number       Type             X           Y           Z
 ---------------------------------------------------------------------
      1          8           0        0.037486    1.959558    0.000000
      2          1           0        0.034967    0.976960    0.000000
      3          1           0       -0.891187    2.280606    0.000000
      4          8           0        0.037486   -1.780627    0.000000
      5          1           0        0.917638   -2.217480    0.000000
      6          1           0       -0.661195   -2.471533    0.000000
 ---------------------------------------------------------------------

 SCF Done:  E(RHF) =  -152.112001147     A.U. after   10 cycles
 E2 =    -0.5262843065D+00 EUMP2 =    -0.15263828545305D+03
 CCSD(T)
 CCSD(T)= -0.15266536091D+03

 The electronic state is 1-A'.
 Alpha  occ. eigenvalues --  -20.57221 -20.53821  -1.34474  -1.31172  -0.71861
 Alpha  occ. eigenvalues --   -0.68592  -0.58142  -0.54645  -0.51615  -0.48324
 Alpha virt. eigenvalues --    0.12276   0.16869   0.19194   0.25626   0.52167
 Alpha virt. eigenvalues --    0.55115   0.56449   0.58883   0.69071   0.72128
 Alpha virt. eigenvalues --    0.76649   0.77975   0.80569   0.83529   0.83854

 Mulliken charges:
               1
     1  O   -0.528558
     2  H    0.268320
     3  H    0.250624
     4  O   -0.509473
     5  H    0.261458
     6  H    0.257630
 Sum of Mulliken charges =  -0.00000

 Dipole moment (field-independent basis, Debye):
    X=             -1.2705    Y=             -3.3393    Z=              0.0000  Tot=              3.5728
 Quadrupole moment (field-independent basis, Debye-Ang):
   XX=             -9.1603   YY=             -7.7951   ZZ=            -14.7274
   XY=             -4.4189   XZ=             -0.0000   YZ=              0.0000

 Normal termination of Gaussian 16 at Sun Aug 28 04:41:03 2022.
