 Gaussian 16, Revision A.03,
 Gaussian 16:  ES64L-G16RevA.03 25-Dec-2016

 ------------------
 #p CCSD(T)/cc-pVTZ
 ------------------

 ------------
 H2O_H2O_2645
 ------------
 Symbolic Z-matrix:
 Charge =  0 Multiplicity = 1

                         Standard orientation:
 ---------------------------------------------------------------------
 Center     Atomic      Atomic             Coordinates (Angstroms)
 Number     Number       Type             X           Y           Z
 ---------------------------------------------------------------------
      1          8           0        0.026677    2.155892   -0.000000
      2          1           0        0.023958    1.173294   -0.000000
      3          1           0       -0.901930    2.477129   -0.000000
      4          8           0        0.026677   -1.982679    0.000000
      5          1           0        0.975091   -2.239620    0.000000
      6          1           0       -0.523955   -2.796503    0.000000
 ---------------------------------------------------------------------

 SCF Done:  E(RHF) =  -152.110621782     A.U. after   10 cycles
 E2 =    -0.5260193404D+00 EUMP2 =    -0.15263664112247D+03
 CCSD(T)
 CCSD(T)= -0.15266375943D+03

 The electronic state is 1-A'.
 Alpha  occ. eigenvalues --  -20.56831 -20.54305  -1.34103  -1.31633  -0.71504
 Alpha  occ. eigenvalues --   -0.69037  -0.57682  -0.55125  -0.51237  -0.48777
 Alpha virt. eigenvalues --    0.12339   0.16290   0.19310   0.23788   0.53332
 Alpha virt. eigenvalues --    0.55578   0.56396   0.58638   0.68970   0.70020
 Alpha virt. eigenvalues --    0.77553   0.79065   0.80062   0.80483   0.83482

 Mulliken charges:
               1
     1  O   -0.523182
     2  H    0.265334
     3  H    0.253087
     4  O   -0.513153
     5  H    0.259973
     6  H    0.257941
 Sum of Mulliken charges =  -0.00000

 Dipole moment (field-independent basis, Debye):
    X=             -0.9098    Y=             -3.1551    Z=              0.0000  Tot=              3.2836
 Quadrupole moment (field-independent basis, Debye-Ang):
   XX=             -9.2884   YY=             -7.6358   ZZ=            -14.7221
   XY=             -5.2009   XZ=              0.0000   YZ=             -0.0000

 Normal termination of Gaussian 16 at Fri Aug 26 16:16:06 2022.
