 Gaussian 16, Revision A.03,
 Gaussian 16:  ES64L-G16RevA.03 25-Dec-2016

 ------------------
 #p CCSD(T)/cc-pVTZ
 ------------------

 -----------
 H2O_H2O_386
 -----------
 Symbolic Z-matrix:
 Charge =  0 Multiplicity = 1

                         Standard orientation:
 ---------------------------------------------------------------------
 Center     Atomic      Atomic             Coordinates (Angstroms)
 Number     Number       Type             X           Y           Z
 ---------------------------------------------------------------------
      1          8           0        0.059746    1.260641   -0.000000
      2          1           0        0.057334    0.278043   -0.000000
      3          1           0       -0.868962    1.581589   -0.000000
      4          8           0        0.059746   -1.083338    0.000000
      5          1           0        0.705805   -1.823684    0.000000
      6          1           0       -0.850109   -1.454376    0.000000
 ---------------------------------------------------------------------

 SCF Done:  E(RHF) =  -152.091047966     A.U. after   11 cycles
 E2 =    -0.5329628843D+00 EUMP2 =    -0.15262401084990D+03
 CCSD(T)
 CCSD(T)= -0.15265019491D+03

 The electronic state is 1-A'.
 Alpha  occ. eigenvalues --  -20.60668 -20.47973  -1.39676  -1.26764  -0.76343
 Alpha  occ. eigenvalues --   -0.72420  -0.57657  -0.56023  -0.48521  -0.43621
 Alpha virt. eigenvalues --    0.11005   0.17016   0.20337   0.33307   0.47824
 Alpha virt. eigenvalues --    0.53119   0.61574   0.63317   0.71594   0.72083
 Alpha virt. eigenvalues --    0.75662   0.79365   0.80083   0.82986   0.84011

 Mulliken charges:
               1
     1  O   -0.620270
     2  H    0.308393
     3  H    0.217043
     4  O   -0.401401
     5  H    0.250063
     6  H    0.246173
 Sum of Mulliken charges =  -0.00000

 Dipole moment (field-independent basis, Debye):
    X=             -1.8820    Y=             -4.4077    Z=              0.0000  Tot=              4.7927
 Quadrupole moment (field-independent basis, Debye-Ang):
   XX=             -9.3501   YY=             -9.5958   ZZ=            -14.6461
   XY=             -2.8880   XZ=              0.0000   YZ=             -0.0000

 Normal termination of Gaussian 16 at Fri Aug 26 17:52:12 2022.
