 Gaussian 16, Revision A.03,
 Gaussian 16:  ES64L-G16RevA.03 25-Dec-2016

 ------------------
 #p CCSD(T)/cc-pVTZ
 ------------------

 ------------
 H2O_H2O_1473
 ------------
 Symbolic Z-matrix:
 Charge =  0 Multiplicity = 1

                         Standard orientation:
 ---------------------------------------------------------------------
 Center     Atomic      Atomic             Coordinates (Angstroms)
 Number     Number       Type             X           Y           Z
 ---------------------------------------------------------------------
      1          8           0       -0.016725    1.681860    0.000000
      2          1           0       -0.012678    0.699267    0.000000
      3          1           0        0.911447    2.004352    0.000000
      4          8           0       -0.016725   -1.518510    0.000000
      5          1           0       -0.996950   -1.586814    0.000000
      6          1           0        0.365783   -2.423604    0.000000
 ---------------------------------------------------------------------

 SCF Done:  E(RHF) =  -152.113213430     A.U. after   10 cycles
 E2 =    -0.5271520219D+00 EUMP2 =    -0.15264036545147D+03
 CCSD(T)
 CCSD(T)= -0.15266737404D+03

 The electronic state is 1-A'.
 Alpha  occ. eigenvalues --  -20.57910 -20.53241  -1.35242  -1.30681  -0.72723
 Alpha  occ. eigenvalues --   -0.68235  -0.59050  -0.54012  -0.52351  -0.47835
 Alpha virt. eigenvalues --    0.12150   0.17568   0.19122   0.29099   0.50706
 Alpha virt. eigenvalues --    0.54414   0.55719   0.60757   0.68827   0.74013
 Alpha virt. eigenvalues --    0.74071   0.77151   0.81346   0.82734   0.84290

 Mulliken charges:
               1
     1  O   -0.545158
     2  H    0.275392
     3  H    0.252929
     4  O   -0.498865
     5  H    0.263245
     6  H    0.252458
 Sum of Mulliken charges =  -0.00000

 Dipole moment (field-independent basis, Debye):
    X=              0.5713    Y=             -3.2126    Z=              0.0000  Tot=              3.2630
 Quadrupole moment (field-independent basis, Debye-Ang):
   XX=             -9.5428   YY=             -8.5167   ZZ=            -14.7298
   XY=              4.4032   XZ=              0.0000   YZ=              0.0000

 CCSD(T)=-152.667374\RMSD=6.257e-09\PG=CS [SG(H4O2)]\\@
 Normal termination of Gaussian 16 at Sat Aug 27 00:47:56 2022.
