 Gaussian 16, Revision A.03,
 Gaussian 16:  ES64L-G16RevA.03 25-Dec-2016

 ------------------
 #p CCSD(T)/cc-pVTZ
 ------------------

 -----------
 H2O_H2O_161
 -----------
 Symbolic Z-matrix:
 Charge =  0 Multiplicity = 1

                         Standard orientation:
 ---------------------------------------------------------------------
 Center     Atomic      Atomic             Coordinates (Angstroms)
 Number     Number       Type             X           Y           Z
 ---------------------------------------------------------------------
      1          8           0        0.059764    1.170882   -0.000000
      2          1           0        0.057151    0.188284   -0.000000
      3          1           0       -0.868879    1.492019   -0.000000
      4          8           0        0.059764   -0.993603    0.000000
      5          1           0        0.705672   -1.734082    0.000000
      6          1           0       -0.850167   -1.364456    0.000000
 ---------------------------------------------------------------------

 SCF Done:  E(RHF) =  -152.061862080     A.U. after   11 cycles
 E2 =    -0.5351978961D+00 EUMP2 =    -0.15259705997648D+03
 CCSD(T)
 CCSD(T)= -0.15262280896D+03

 The electronic state is 1-A'.
 Alpha  occ. eigenvalues --  -20.61626 -20.45587  -1.42269  -1.25303  -0.78656
 Alpha  occ. eigenvalues --   -0.75533  -0.57725  -0.55624  -0.45976  -0.41933
 Alpha virt. eigenvalues --    0.10548   0.16468   0.21008   0.32860   0.47874
 Alpha virt. eigenvalues --    0.52244   0.62120   0.63917   0.71301   0.71435
 Alpha virt. eigenvalues --    0.79016   0.79153   0.81171   0.82889   0.85983

 Mulliken charges:
               1
     1  O   -0.648326
     2  H    0.296205
     3  H    0.203881
     4  O   -0.340327
     5  H    0.244573
     6  H    0.243994
 Sum of Mulliken charges =  -0.00000

 Dipole moment (field-independent basis, Debye):
    X=             -1.8303    Y=             -4.8079    Z=              0.0000  Tot=              5.1445
 Quadrupole moment (field-independent basis, Debye-Ang):
   XX=             -9.3310   YY=            -10.0038   ZZ=            -14.5853
   XY=             -2.7258   XZ=              0.0000   YZ=             -0.0000

 Normal termination of Gaussian 16 at Fri Aug 26 16:17:17 2022.
