 Gaussian 16, Revision A.03,
 Gaussian 16:  ES64L-G16RevA.03 25-Dec-2016

 ------------------
 #p CCSD(T)/cc-pVTZ
 ------------------

 ------------
 H2O_H2O_3379
 ------------
 Symbolic Z-matrix:
 Charge =  0 Multiplicity = 1

                         Standard orientation:
 ---------------------------------------------------------------------
 Center     Atomic      Atomic             Coordinates (Angstroms)
 Number     Number       Type             X           Y           Z
 ---------------------------------------------------------------------
      1          8           0        0.082802    2.444887   -0.000000
      2          1           0        0.082439    1.462286   -0.000000
      3          1           0       -0.846573    2.763898   -0.000000
      4          8           0        0.082802   -2.290367    0.000000
      5          1           0        0.336768   -3.239581    0.000000
      6          1           0       -0.897471   -2.222766    0.000000
 ---------------------------------------------------------------------

 SCF Done:  E(RHF) =  -152.108449528     A.U. after   10 cycles
 E2 =    -0.5259460731D+00 EUMP2 =    -0.15263439560097D+03
 CCSD(T)
 CCSD(T)= -0.15266157729D+03

 The electronic state is 1-A'.
 Alpha  occ. eigenvalues --  -20.56495 -20.54947  -1.33789  -1.32255  -0.71207
 Alpha  occ. eigenvalues --   -0.69642  -0.57274  -0.55717  -0.50904  -0.49374
 Alpha virt. eigenvalues --    0.12152   0.15444   0.19295   0.22262   0.53520
 Alpha virt. eigenvalues --    0.55021   0.56422   0.58132   0.67140   0.69143
 Alpha virt. eigenvalues --    0.78002   0.78616   0.79484   0.80876   0.82716

 Mulliken charges:
               1
     1  O   -0.512394
     2  H    0.260770
     3  H    0.250485
     4  O   -0.511725
     5  H    0.259829
     6  H    0.253036
 Sum of Mulliken charges =  -0.00000

 Dipole moment (field-independent basis, Debye):
    X=             -2.8270    Y=             -2.7530    Z=              0.0000  Tot=              3.9460
 Quadrupole moment (field-independent basis, Debye-Ang):
   XX=            -10.2509   YY=             -8.1048   ZZ=            -14.7147
   XY=             -3.0385   XZ=              0.0000   YZ=             -0.0000

 Normal termination of Gaussian 16 at Fri Aug 26 21:22:31 2022.
