 Gaussian 16, Revision A.03,
 Gaussian 16:  ES64L-G16RevA.03 25-Dec-2016

 ------------------
 #p CCSD(T)/cc-pVTZ
 ------------------

 ------------
 H2O_H2O_2354
 ------------
 Symbolic Z-matrix:
 Charge =  0 Multiplicity = 1

                         Standard orientation:
 ---------------------------------------------------------------------
 Center     Atomic      Atomic             Coordinates (Angstroms)
 Number     Number       Type             X           Y           Z
 ---------------------------------------------------------------------
      1          8           0        0.082808   -2.036032    0.000000
      2          1           0        0.082369   -1.053431    0.000000
      3          1           0       -0.846542   -2.355114    0.000000
      4          8           0        0.082808    1.881524    0.000000
      5          1           0        0.336700    2.830759    0.000000
      6          1           0       -0.897459    1.813848    0.000000
 ---------------------------------------------------------------------

 SCF Done:  E(RHF) =  -152.109657471     A.U. after   10 cycles
 E2 =    -0.5263148635D+00 EUMP2 =    -0.15263597233415D+03
 CCSD(T)
 CCSD(T)= -0.15266309891D+03

 The electronic state is 1-A'.
 Alpha  occ. eigenvalues --  -20.57035 -20.54558  -1.34314  -1.31875  -0.71755
 Alpha  occ. eigenvalues --   -0.69244  -0.57844  -0.55330  -0.51430  -0.49000
 Alpha virt. eigenvalues --    0.11789   0.16145   0.19633   0.24381   0.53151
 Alpha virt. eigenvalues --    0.55668   0.56382   0.58019   0.68667   0.71528
 Alpha virt. eigenvalues --    0.77105   0.79307   0.79929   0.81012   0.83318

 Mulliken charges:
               1
     1  O   -0.516980
     2  H    0.264903
     3  H    0.246902
     4  O   -0.505407
     5  H    0.259277
     6  H    0.251306
 Sum of Mulliken charges =  -0.00000

 Dipole moment (field-independent basis, Debye):
    X=             -2.8061    Y=              2.8410    Z=              0.0000  Tot=              3.9932
 Quadrupole moment (field-independent basis, Debye-Ang):
   XX=            -10.2662   YY=             -8.3786   ZZ=            -14.7182
   XY=              2.8896   XZ=              0.0000   YZ=              0.0000

 Normal termination of Gaussian 16 at Sun Aug 28 06:36:40 2022.
