 Gaussian 16, Revision A.03,
 Gaussian 16:  ES64L-G16RevA.03 25-Dec-2016

 ------------------
 #p CCSD(T)/cc-pVTZ
 ------------------

 -----------
 H2O_H2O_698
 -----------
 Symbolic Z-matrix:
 Charge =  0 Multiplicity = 1

                         Standard orientation:
 ---------------------------------------------------------------------
 Center     Atomic      Atomic             Coordinates (Angstroms)
 Number     Number       Type             X           Y           Z
 ---------------------------------------------------------------------
      1          8           0        0.016806   -1.372717    0.000000
      2          1           0        0.011789   -0.390128    0.000000
      3          1           0       -0.911049   -1.696124    0.000000
      4          8           0        0.016806    1.209400    0.000000
      5          1           0        0.996963    1.278670    0.000000
      6          1           0       -0.366594    2.114116    0.000000
 ---------------------------------------------------------------------

 SCF Done:  E(RHF) =  -152.106360355     A.U. after   10 cycles
 E2 =    -0.5304191369D+00 EUMP2 =    -0.15263677949192D+03
 CCSD(T)
 CCSD(T)= -0.15266340520D+03

 The electronic state is 1-A'.
 Alpha  occ. eigenvalues --  -20.59474 -20.50584  -1.37545  -1.28613  -0.75351
 Alpha  occ. eigenvalues --   -0.68365  -0.59923  -0.54332  -0.51140  -0.45669
 Alpha virt. eigenvalues --    0.11743   0.18215   0.19206   0.33531   0.48083
 Alpha virt. eigenvalues --    0.53842   0.57410   0.66863   0.68340   0.72177
 Alpha virt. eigenvalues --    0.74262   0.76494   0.80004   0.83663   0.84010

 Mulliken charges:
               1
     1  O   -0.597224
     2  H    0.296750
     3  H    0.245463
     4  O   -0.440205
     5  H    0.258953
     6  H    0.236264
 Sum of Mulliken charges =  -0.00000

 Dipole moment (field-independent basis, Debye):
    X=             -0.5594    Y=              3.7169    Z=              0.0000  Tot=              3.7587
 Quadrupole moment (field-independent basis, Debye-Ang):
   XX=             -9.5102   YY=             -9.1514   ZZ=            -14.6894
   XY=              3.5647   XZ=              0.0000   YZ=              0.0000

 Normal termination of Gaussian 16 at Fri Aug 26 19:55:20 2022.
