 Gaussian 16, Revision A.03,
 Gaussian 16:  ES64L-G16RevA.03 25-Dec-2016

 ------------------
 #p CCSD(T)/cc-pVTZ
 ------------------

 ------------
 H2O_H2O_3965
 ------------
 Symbolic Z-matrix:
 Charge =  0 Multiplicity = 1

                         Standard orientation:
 ---------------------------------------------------------------------
 Center     Atomic      Atomic             Coordinates (Angstroms)
 Number     Number       Type             X           Y           Z
 ---------------------------------------------------------------------
      1          8           0        0.044837    2.688314   -0.000000
      2          1           0        0.043265    1.705714   -0.000000
      3          1           0       -0.884145    3.008466   -0.000000
      4          8           0        0.044837   -2.507893    0.000000
      5          1           0        0.860967   -3.055102    0.000000
      6          1           0       -0.737475   -3.102446    0.000000
 ---------------------------------------------------------------------

 SCF Done:  E(RHF) =  -152.108784843     A.U. after   10 cycles
 E2 =    -0.5258206439D+00 EUMP2 =    -0.15263460548657D+03
 CCSD(T)
 CCSD(T)= -0.15266178951D+03

 The electronic state is 1-A'.
 Alpha  occ. eigenvalues --  -20.56300 -20.54802  -1.33598  -1.32112  -0.71001
 Alpha  occ. eigenvalues --   -0.69512  -0.57104  -0.55589  -0.50719  -0.49239
 Alpha virt. eigenvalues --    0.13067   0.15223   0.19636   0.21347   0.53549
 Alpha virt. eigenvalues --    0.54923   0.56583   0.57840   0.66681   0.69122
 Alpha virt. eigenvalues --    0.78175   0.79467   0.79608   0.79611   0.82899

 Mulliken charges:
               1
     1  O   -0.515308
     2  H    0.261754
     3  H    0.253047
     4  O   -0.515640
     5  H    0.259027
     6  H    0.257120
 Sum of Mulliken charges =   0.00000

 Dipole moment (field-independent basis, Debye):
    X=             -1.5353    Y=             -3.1863    Z=              0.0000  Tot=              3.5369
 Quadrupole moment (field-independent basis, Debye-Ang):
   XX=             -9.1568   YY=             -6.5625   ZZ=            -14.7161
   XY=             -5.4325   XZ=              0.0000   YZ=             -0.0000

 Normal termination of Gaussian 16 at Sat Aug 27 00:43:40 2022.
