 Gaussian 16, Revision A.03,
 Gaussian 16:  ES64L-G16RevA.03 25-Dec-2016

 ------------------
 #p CCSD(T)/cc-pVTZ
 ------------------

 ------------
 H2O_H2O_1294
 ------------
 Symbolic Z-matrix:
 Charge =  0 Multiplicity = 1

                         Standard orientation:
 ---------------------------------------------------------------------
 Center     Atomic      Atomic             Coordinates (Angstroms)
 Number     Number       Type             X           Y           Z
 ---------------------------------------------------------------------
      1          8           0        0.030289    1.618675   -0.000000
      2          1           0        0.026810    0.636079   -0.000000
      3          1           0       -0.898069    1.940630   -0.000000
      4          8           0        0.030289   -1.443136    0.000000
      5          1           0        0.959621   -1.762276    0.000000
      6          1           0       -0.572992   -2.218738    0.000000
 ---------------------------------------------------------------------

 SCF Done:  E(RHF) =  -152.114121365     A.U. after   10 cycles
 E2 =    -0.5275836438D+00 EUMP2 =    -0.15264170500839D+03
 CCSD(T)
 CCSD(T)= -0.15266865693D+03

 The electronic state is 1-A'.
 Alpha  occ. eigenvalues --  -20.58246 -20.52529  -1.35599  -1.30048  -0.72952
 Alpha  occ. eigenvalues --   -0.67929  -0.59419  -0.53284  -0.52708  -0.47195
 Alpha virt. eigenvalues --    0.12062   0.18020   0.18811   0.30289   0.49695
 Alpha virt. eigenvalues --    0.54485   0.55854   0.61082   0.68638   0.72583
 Alpha virt. eigenvalues --    0.73502   0.77083   0.81917   0.82720   0.84678

 Mulliken charges:
               1
     1  O   -0.553275
     2  H    0.283518
     3  H    0.248034
     4  O   -0.499805
     5  H    0.265430
     6  H    0.256098
 Sum of Mulliken charges =  -0.00000

 Dipole moment (field-independent basis, Debye):
    X=             -1.0142    Y=             -3.5325    Z=              0.0000  Tot=              3.6752
 Quadrupole moment (field-independent basis, Debye-Ang):
   XX=             -9.2272   YY=             -8.4994   ZZ=            -14.7332
   XY=             -3.8806   XZ=              0.0000   YZ=             -0.0000

 Normal termination of Gaussian 16 at Fri Aug 26 23:39:38 2022.
