 Gaussian 16, Revision A.03,
 Gaussian 16:  ES64L-G16RevA.03 25-Dec-2016

 ------------------
 #p CCSD(T)/cc-pVTZ
 ------------------

 -----------
 H2O_H2O_448
 -----------
 Symbolic Z-matrix:
 Charge =  0 Multiplicity = 1

                         Standard orientation:
 ---------------------------------------------------------------------
 Center     Atomic      Atomic             Coordinates (Angstroms)
 Number     Number       Type             X           Y           Z
 ---------------------------------------------------------------------
      1          8           0        0.016840   -1.272992    0.000000
      2          1           0        0.011405   -0.290405    0.000000
      3          1           0       -0.910875   -1.596795    0.000000
      4          8           0        0.016840    1.109689    0.000000
      5          1           0        0.996968    1.179378    0.000000
      6          1           0       -0.366945    2.014242    0.000000
 ---------------------------------------------------------------------

 SCF Done:  E(RHF) =  -152.093400485     A.U. after   11 cycles
 E2 =    -0.5324857657D+00 EUMP2 =    -0.15262588625120D+03
 CCSD(T)
 CCSD(T)= -0.15265217200D+03

 The electronic state is 1-A'.
 Alpha  occ. eigenvalues --  -20.60267 -20.48823  -1.39205  -1.27385  -0.77252
 Alpha  occ. eigenvalues --   -0.69739  -0.59030  -0.55554  -0.49256  -0.44340
 Alpha virt. eigenvalues --    0.11421   0.17900   0.19741   0.34095   0.47693
 Alpha virt. eigenvalues --    0.53054   0.58728   0.68336   0.71125   0.72068
 Alpha virt. eigenvalues --    0.74866   0.76723   0.78551   0.83849   0.84563

 Mulliken charges:
               1
     1  O   -0.624547
     2  H    0.294842
     3  H    0.239194
     4  O   -0.401045
     5  H    0.259054
     6  H    0.232502
 Sum of Mulliken charges =  -0.00000

 Dipole moment (field-independent basis, Debye):
    X=             -0.5460    Y=              4.0275    Z=              0.0000  Tot=              4.0644
 Quadrupole moment (field-independent basis, Debye-Ang):
   XX=             -9.4797   YY=             -9.4659   ZZ=            -14.6495
   XY=              3.2825   XZ=              0.0000   YZ=              0.0000

 Normal termination of Gaussian 16 at Fri Aug 26 18:19:59 2022.
