 Gaussian 16, Revision A.03,
 Gaussian 16:  ES64L-G16RevA.03 25-Dec-2016

 ------------------
 #p CCSD(T)/cc-pVTZ
 ------------------

 ------------
 H2O_H2O_2352
 ------------
 Symbolic Z-matrix:
 Charge =  0 Multiplicity = 1

                         Standard orientation:
 ---------------------------------------------------------------------
 Center     Atomic      Atomic             Coordinates (Angstroms)
 Number     Number       Type             X           Y           Z
 ---------------------------------------------------------------------
      1          8           0        0.088234   -2.030495    0.000000
      2          1           0        0.088029   -1.047894    0.000000
      3          1           0       -0.841193   -2.349355    0.000000
      4          8           0        0.088234    1.886180    0.000000
      5          1           0        0.216286    2.860402    0.000000
      6          1           0       -0.874861    1.691363    0.000000
 ---------------------------------------------------------------------

 SCF Done:  E(RHF) =  -152.109124631     A.U. after   10 cycles
 E2 =    -0.5263592547D+00 EUMP2 =    -0.15263548388556D+03
 CCSD(T)
 CCSD(T)= -0.15266262341D+03

 The electronic state is 1-A'.
 Alpha  occ. eigenvalues --  -20.57029 -20.54762  -1.34315  -1.32073  -0.71774
 Alpha  occ. eigenvalues --   -0.69431  -0.57818  -0.55519  -0.51423  -0.49191
 Alpha virt. eigenvalues --    0.11612   0.16026   0.19790   0.24399   0.53202
 Alpha virt. eigenvalues --    0.55733   0.56547   0.57766   0.68493   0.71738
 Alpha virt. eigenvalues --    0.77082   0.79502   0.79768   0.80235   0.83379

 Mulliken charges:
               1
     1  O   -0.514900
     2  H    0.264063
     3  H    0.246637
     4  O   -0.504093
     5  H    0.259114
     6  H    0.249178
 Sum of Mulliken charges =  -0.00000

 Dipole moment (field-independent basis, Debye):
    X=             -2.9883    Y=              2.6498    Z=              0.0000  Tot=              3.9939
 Quadrupole moment (field-independent basis, Debye-Ang):
   XX=            -10.5750   YY=             -8.7346   ZZ=            -14.7159
   XY=              2.5288   XZ=              0.0000   YZ=              0.0000

 Normal termination of Gaussian 16 at Sun Aug 28 06:35:55 2022.
