 Gaussian 16, Revision A.03,
 Gaussian 16:  ES64L-G16RevA.03 25-Dec-2016

 ------------------
 #p CCSD(T)/cc-pVTZ
 ------------------

 ------------
 H2O_H2O_2666
 ------------
 Symbolic Z-matrix:
 Charge =  0 Multiplicity = 1

                         Standard orientation:
 ---------------------------------------------------------------------
 Center     Atomic      Atomic             Coordinates (Angstroms)
 Number     Number       Type             X           Y           Z
 ---------------------------------------------------------------------
      1          8           0        0.041156    2.169499   -0.000000
      2          1           0        0.039042    1.186899   -0.000000
      3          1           0       -0.887649    2.490165   -0.000000
      4          8           0        0.041156   -1.989589    0.000000
      5          1           0        0.891055   -2.482719    0.000000
      6          1           0       -0.700951   -2.633624    0.000000
 ---------------------------------------------------------------------

 SCF Done:  E(RHF) =  -152.110605743     A.U. after   10 cycles
 E2 =    -0.5260223925D+00 EUMP2 =    -0.15263662813511D+03
 CCSD(T)
 CCSD(T)= -0.15266374627D+03

 The electronic state is 1-A'.
 Alpha  occ. eigenvalues --  -20.56834 -20.54232  -1.34102  -1.31561  -0.71498
 Alpha  occ. eigenvalues --   -0.68957  -0.57681  -0.55051  -0.51236  -0.48703
 Alpha virt. eigenvalues --    0.12401   0.16286   0.19362   0.23616   0.52911
 Alpha virt. eigenvalues --    0.55593   0.56352   0.58870   0.69068   0.69919
 Alpha virt. eigenvalues --    0.77574   0.78923   0.80107   0.80128   0.83527

 Mulliken charges:
               1
     1  O   -0.522278
     2  H    0.265864
     3  H    0.251509
     4  O   -0.512714
     5  H    0.260374
     6  H    0.257246
 Sum of Mulliken charges =  -0.00000

 Dipole moment (field-independent basis, Debye):
    X=             -1.4005    Y=             -3.2772    Z=              0.0000  Tot=              3.5640
 Quadrupole moment (field-independent basis, Debye-Ang):
   XX=             -9.1494   YY=             -7.4161   ZZ=            -14.7222
   XY=             -4.6951   XZ=              0.0000   YZ=             -0.0000

 CCSD(T)=-152.6637463\RMSD=6.702e-09\PG=CS [SG(H4O2)]\\@
 Normal termination of Gaussian 16 at Fri Aug 26 16:25:12 2022.
