 Gaussian 16, Revision A.03,
 Gaussian 16:  ES64L-G16RevA.03 25-Dec-2016

 ------------------
 #p CCSD(T)/cc-pVTZ
 ------------------

 ------------
 H2O_H2O_3622
 ------------
 Symbolic Z-matrix:
 Charge =  0 Multiplicity = 1

                         Standard orientation:
 ---------------------------------------------------------------------
 Center     Atomic      Atomic             Coordinates (Angstroms)
 Number     Number       Type             X           Y           Z
 ---------------------------------------------------------------------
      1          8           0       -0.019843    2.541482    0.000000
      2          1           0       -0.017319    1.558884    0.000000
      3          1           0        0.908829    2.862535    0.000000
      4          8           0       -0.019843   -2.374370    0.000000
      5          1           0       -0.993705   -2.505127    0.000000
      6          1           0        0.419680   -3.253191    0.000000
 ---------------------------------------------------------------------

 SCF Done:  E(RHF) =  -152.109076688     A.U. after   10 cycles
 E2 =    -0.5258330046D+00 EUMP2 =    -0.15263490969260D+03
 CCSD(T)
 CCSD(T)= -0.15266208368D+03

 The electronic state is 1-A'.
 Alpha  occ. eigenvalues --  -20.56388 -20.54814  -1.33684  -1.32127  -0.71089
 Alpha  occ. eigenvalues --   -0.69532  -0.57199  -0.55610  -0.50807  -0.49257
 Alpha virt. eigenvalues --    0.12667   0.15433   0.19342   0.21969   0.53293
 Alpha virt. eigenvalues --    0.55258   0.56562   0.57927   0.66853   0.69221
 Alpha virt. eigenvalues --    0.78092   0.78783   0.79586   0.80473   0.82909

 Mulliken charges:
               1
     1  O   -0.516856
     2  H    0.261436
     3  H    0.254511
     4  O   -0.516111
     5  H    0.258241
     6  H    0.258779
 Sum of Mulliken charges =  -0.00000

 Dipole moment (field-independent basis, Debye):
    X=              0.6807    Y=             -2.9648    Z=              0.0000  Tot=              3.0419
 Quadrupole moment (field-independent basis, Debye-Ang):
   XX=             -9.4467   YY=             -7.3896   ZZ=            -14.7171
   XY=              6.4701   XZ=              0.0000   YZ=              0.0000

 CCSD(T)=-152.6620837\RMSD=7.017e-09\PG=CS [SG(H4O2)]\\@
 Normal termination of Gaussian 16 at Fri Aug 26 22:44:05 2022.
