 Gaussian 16, Revision A.03,
 Gaussian 16:  ES64L-G16RevA.03 25-Dec-2016

 ------------------
 #p CCSD(T)/cc-pVTZ
 ------------------

 ------------
 H2O_H2O_2948
 ------------
 Symbolic Z-matrix:
 Charge =  0 Multiplicity = 1

                         Standard orientation:
 ---------------------------------------------------------------------
 Center     Atomic      Atomic             Coordinates (Angstroms)
 Number     Number       Type             X           Y           Z
 ---------------------------------------------------------------------
      1          8           0       -0.016635    2.270219    0.000000
      2          1           0       -0.013675    1.287622    0.000000
      3          1           0        0.911894    2.591683    0.000000
      4          8           0       -0.016635   -2.106832    0.000000
      5          1           0       -0.996935   -2.174050    0.000000
      6          1           0        0.364870   -3.012349    0.000000
 ---------------------------------------------------------------------

 SCF Done:  E(RHF) =  -152.109875232     A.U. after   10 cycles
 E2 =    -0.5259335016D+00 EUMP2 =    -0.15263580873410D+03
 CCSD(T)
 CCSD(T)= -0.15266295226D+03

 The electronic state is 1-A'.
 Alpha  occ. eigenvalues --  -20.56650 -20.54604  -1.33936  -1.31924  -0.71344
 Alpha  occ. eigenvalues --   -0.69331  -0.57479  -0.55415  -0.51063  -0.49062
 Alpha virt. eigenvalues --    0.12280   0.15953   0.19261   0.23194   0.53748
 Alpha virt. eigenvalues --    0.55573   0.56394   0.58304   0.68250   0.69385
 Alpha virt. eigenvalues --    0.77812   0.78831   0.79777   0.80554   0.83179

 Mulliken charges:
               1
     1  O   -0.520446
     2  H    0.263109
     3  H    0.254579
     4  O   -0.514763
     5  H    0.258715
     6  H    0.258806
 Sum of Mulliken charges =  -0.00000

 Dipole moment (field-independent basis, Debye):
    X=              0.5712    Y=             -2.9425    Z=              0.0000  Tot=              2.9975
 Quadrupole moment (field-independent basis, Debye-Ang):
   XX=             -9.5431   YY=             -7.8391   ZZ=            -14.7196
   XY=              5.9573   XZ=              0.0000   YZ=              0.0000

 Normal termination of Gaussian 16 at Fri Aug 26 18:39:01 2022.
