 Gaussian 16, Revision A.03,
 Gaussian 16:  ES64L-G16RevA.03 25-Dec-2016

 ------------------
 #p CCSD(T)/cc-pVTZ
 ------------------

 ------------
 H2O_H2O_3625
 ------------
 Symbolic Z-matrix:
 Charge =  0 Multiplicity = 1

                         Standard orientation:
 ---------------------------------------------------------------------
 Center     Atomic      Atomic             Coordinates (Angstroms)
 Number     Number       Type             X           Y           Z
 ---------------------------------------------------------------------
      1          8           0        0.092949   -2.532802    0.000000
      2          1           0        0.092949   -1.550200    0.000000
      3          1           0       -0.836544   -2.851468    0.000000
      4          8           0        0.092949    2.400015    0.000000
      5          1           0        0.092950    3.382617    0.000000
      6          1           0       -0.836544    2.081348    0.000000
 ---------------------------------------------------------------------

 SCF Done:  E(RHF) =  -152.107784675     A.U. after   10 cycles
 E2 =    -0.5259483020D+00 EUMP2 =    -0.15263373297692D+03
 CCSD(T)
 CCSD(T)= -0.15266093644D+03

 The electronic state is 1-A'.
 Alpha  occ. eigenvalues --  -20.56419 -20.55258  -1.33717  -1.32559  -0.71140
 Alpha  occ. eigenvalues --   -0.69948  -0.57180  -0.56010  -0.50826  -0.49671
 Alpha virt. eigenvalues --    0.11853   0.15203   0.18945   0.22664   0.53327
 Alpha virt. eigenvalues --    0.54897   0.56470   0.57921   0.66898   0.68802
 Alpha virt. eigenvalues --    0.78078   0.78822   0.79202   0.81391   0.82397

 Mulliken charges:
               1
     1  O   -0.509589
     2  H    0.258295
     3  H    0.250855
     4  O   -0.510106
     5  H    0.259409
     6  H    0.251137
 Sum of Mulliken charges =  -0.00000

 Dipole moment (field-independent basis, Debye):
    X=             -3.1769    Y=              2.3527    Z=              0.0000  Tot=              3.9532
 Quadrupole moment (field-independent basis, Debye-Ang):
   XX=            -10.8507   YY=             -9.2520   ZZ=            -14.7120
   XY=              2.1527   XZ=              0.0000   YZ=              0.0000

 Normal termination of Gaussian 16 at Fri Aug 26 22:45:06 2022.
