 Gaussian 16, Revision A.03,
 Gaussian 16:  ES64L-G16RevA.03 25-Dec-2016

 ------------------
 #p CCSD(T)/cc-pVTZ
 ------------------

 ------------
 H2O_H2O_2205
 ------------
 Symbolic Z-matrix:
 Charge =  0 Multiplicity = 1

                         Standard orientation:
 ---------------------------------------------------------------------
 Center     Atomic      Atomic             Coordinates (Angstroms)
 Number     Number       Type             X           Y           Z
 ---------------------------------------------------------------------
      1          8           0        0.079860    1.978666   -0.000000
      2          1           0        0.079274    0.996065   -0.000000
      3          1           0       -0.849443    2.297886   -0.000000
      4          8           0        0.079860   -1.819620    0.000000
      5          1           0        0.395151   -2.750263    0.000000
      6          1           0       -0.902736   -1.816055    0.000000
 ---------------------------------------------------------------------

 SCF Done:  E(RHF) =  -152.110181742     A.U. after   10 cycles
 E2 =    -0.5264005833D+00 EUMP2 =    -0.15263658232493D+03
 CCSD(T)
 CCSD(T)= -0.15266369241D+03

 The electronic state is 1-A'.
 Alpha  occ. eigenvalues --  -20.57155 -20.54372  -1.34430  -1.31697  -0.71869
 Alpha  occ. eigenvalues --   -0.69068  -0.57987  -0.55148  -0.51548  -0.48825
 Alpha virt. eigenvalues --    0.11847   0.16312   0.19596   0.24923   0.52556
 Alpha virt. eigenvalues --    0.55778   0.56269   0.58056   0.68748   0.72194
 Alpha virt. eigenvalues --    0.76781   0.79030   0.80127   0.82233   0.83434

 Mulliken charges:
               1
     1  O   -0.519075
     2  H    0.266046
     3  H    0.246305
     4  O   -0.504740
     5  H    0.259471
     6  H    0.251992
 Sum of Mulliken charges =  -0.00000

 Dipole moment (field-independent basis, Debye):
    X=             -2.7026    Y=             -2.9478    Z=              0.0000  Tot=              3.9992
 Quadrupole moment (field-independent basis, Debye-Ang):
   XX=            -10.1169   YY=             -8.2826   ZZ=            -14.7202
   XY=             -3.0300   XZ=              0.0000   YZ=             -0.0000

 Normal termination of Gaussian 16 at Sun Aug 28 05:25:19 2022.
