 Gaussian 16, Revision A.03,
 Gaussian 16:  ES64L-G16RevA.03 25-Dec-2016

 ------------------
 #p CCSD(T)/cc-pVTZ
 ------------------

 ------------
 H2O_H2O_2848
 ------------
 Symbolic Z-matrix:
 Charge =  0 Multiplicity = 1

                         Standard orientation:
 ---------------------------------------------------------------------
 Center     Atomic      Atomic             Coordinates (Angstroms)
 Number     Number       Type             X           Y           Z
 ---------------------------------------------------------------------
      1          8           0       -0.016639    2.230331    0.000000
      2          1           0       -0.013625    1.247734    0.000000
      3          1           0        0.911872    2.551847    0.000000
      4          8           0       -0.016639   -2.066946    0.000000
      5          1           0       -0.996935   -2.134218    0.000000
      6          1           0        0.364917   -2.972440    0.000000
 ---------------------------------------------------------------------

 SCF Done:  E(RHF) =  -152.110041204     A.U. after   10 cycles
 E2 =    -0.5259583606D+00 EUMP2 =    -0.15263599956436D+03
 CCSD(T)
 CCSD(T)= -0.15266313712D+03

 The electronic state is 1-A'.
 Alpha  occ. eigenvalues --  -20.56700 -20.54557  -1.33984  -1.31878  -0.71393
 Alpha  occ. eigenvalues --   -0.69286  -0.57534  -0.55370  -0.51112  -0.49018
 Alpha virt. eigenvalues --    0.12256   0.16042   0.19262   0.23426   0.53813
 Alpha virt. eigenvalues --    0.55585   0.56356   0.58372   0.68517   0.69482
 Alpha virt. eigenvalues --    0.77743   0.78928   0.79823   0.80558   0.83249

 Mulliken charges:
               1
     1  O   -0.521238
     2  H    0.263510
     3  H    0.254528
     4  O   -0.514330
     5  H    0.258846
     6  H    0.258683
 Sum of Mulliken charges =  -0.00000

 Dipole moment (field-independent basis, Debye):
    X=              0.5714    Y=             -2.9515    Z=              0.0000  Tot=              3.0063
 Quadrupole moment (field-independent basis, Debye-Ang):
   XX=             -9.5432   YY=             -7.8796   ZZ=            -14.7201
   XY=              5.8523   XZ=              0.0000   YZ=              0.0000

 CCSD(T)=-152.6631371\RMSD=6.790e-09\PG=CS [SG(H4O2)]\\@
 Normal termination of Gaussian 16 at Fri Aug 26 17:44:30 2022.
