 Gaussian 16, Revision A.03,
 Gaussian 16:  ES64L-G16RevA.03 25-Dec-2016

 ------------------
 #p CCSD(T)/cc-pVTZ
 ------------------

 ------------
 H2O_H2O_2189
 ------------
 Symbolic Z-matrix:
 Charge =  0 Multiplicity = 1

                         Standard orientation:
 ---------------------------------------------------------------------
 Center     Atomic      Atomic             Coordinates (Angstroms)
 Number     Number       Type             X           Y           Z
 ---------------------------------------------------------------------
      1          8           0        0.048613    1.980274   -0.000000
      2          1           0        0.046620    0.997675   -0.000000
      3          1           0       -0.880232    2.300825   -0.000000
      4          8           0        0.048613   -1.799918    0.000000
      5          1           0        0.826949   -2.399667    0.000000
      6          1           0       -0.771143   -2.341681    0.000000
 ---------------------------------------------------------------------

 SCF Done:  E(RHF) =  -152.111741909     A.U. after   10 cycles
 E2 =    -0.5262723021D+00 EUMP2 =    -0.15263801421136D+03
 CCSD(T)
 CCSD(T)= -0.15266509544D+03

 The electronic state is 1-A'.
 Alpha  occ. eigenvalues --  -20.57189 -20.53861  -1.34442  -1.31208  -0.71830
 Alpha  occ. eigenvalues --   -0.68617  -0.58092  -0.54681  -0.51581  -0.48357
 Alpha virt. eigenvalues --    0.12257   0.16776   0.19232   0.25372   0.52035
 Alpha virt. eigenvalues --    0.55312   0.56378   0.58986   0.69033   0.71956
 Alpha virt. eigenvalues --    0.76774   0.78000   0.80525   0.83410   0.83541

 Mulliken charges:
               1
     1  O   -0.526679
     2  H    0.268247
     3  H    0.249301
     4  O   -0.508905
     5  H    0.261281
     6  H    0.256756
 Sum of Mulliken charges =  -0.00000

 Dipole moment (field-independent basis, Debye):
    X=             -1.6469    Y=             -3.3574    Z=              0.0000  Tot=              3.7396
 Quadrupole moment (field-independent basis, Debye-Ang):
   XX=             -9.1857   YY=             -7.7303   ZZ=            -14.7264
   XY=             -4.1486   XZ=              0.0000   YZ=             -0.0000

 Normal termination of Gaussian 16 at Sun Aug 28 05:13:46 2022.
