 Gaussian 16, Revision A.03,
 Gaussian 16:  ES64L-G16RevA.03 25-Dec-2016

 ------------------
 #p CCSD(T)/cc-pVTZ
 ------------------

 ------------
 H2O_H2O_3306
 ------------
 Symbolic Z-matrix:
 Charge =  0 Multiplicity = 1

                         Standard orientation:
 ---------------------------------------------------------------------
 Center     Atomic      Atomic             Coordinates (Angstroms)
 Number     Number       Type             X           Y           Z
 ---------------------------------------------------------------------
      1          8           0        0.076757    2.419693   -0.000000
      2          1           0        0.076169    1.437091   -0.000000
      3          1           0       -0.852546    2.738915   -0.000000
      4          8           0        0.076757   -2.256481    0.000000
      5          1           0        0.452239   -3.164512    0.000000
      6          1           0       -0.903968   -2.317187    0.000000
 ---------------------------------------------------------------------

 SCF Done:  E(RHF) =  -152.108763338     A.U. after   10 cycles
 E2 =    -0.5259402249D+00 EUMP2 =    -0.15263470356245D+03
 CCSD(T)
 CCSD(T)= -0.15266187606D+03

 The electronic state is 1-A'.
 Alpha  occ. eigenvalues --  -20.56522 -20.54813  -1.33813  -1.32123  -0.71226
 Alpha  occ. eigenvalues --   -0.69511  -0.57310  -0.55592  -0.50931  -0.49246
 Alpha virt. eigenvalues --    0.12291   0.15544   0.19387   0.22194   0.53522
 Alpha virt. eigenvalues --    0.55088   0.56395   0.58214   0.67286   0.69247
 Alpha virt. eigenvalues --    0.77975   0.78661   0.79604   0.80499   0.82856

 Mulliken charges:
               1
     1  O   -0.513804
     2  H    0.261791
     3  H    0.250527
     4  O   -0.512485
     5  H    0.259950
     6  H    0.254021
 Sum of Mulliken charges =  -0.00000

 Dipole moment (field-independent basis, Debye):
    X=             -2.6200    Y=             -2.9140    Z=             -0.0000  Tot=              3.9186
 Quadrupole moment (field-independent basis, Debye-Ang):
   XX=             -9.9539   YY=             -7.7200   ZZ=            -14.7159
   XY=             -3.4354   XZ=              0.0000   YZ=             -0.0000

 Normal termination of Gaussian 16 at Fri Aug 26 20:56:53 2022.
