 Gaussian 16, Revision A.03,
 Gaussian 16:  ES64L-G16RevA.03 25-Dec-2016

 ------------------
 #p CCSD(T)/cc-pVTZ
 ------------------

 ------------
 H2O_H2O_3463
 ------------
 Symbolic Z-matrix:
 Charge =  0 Multiplicity = 1

                         Standard orientation:
 ---------------------------------------------------------------------
 Center     Atomic      Atomic             Coordinates (Angstroms)
 Number     Number       Type             X           Y           Z
 ---------------------------------------------------------------------
      1          8           0        0.052291    2.488592    0.000000
      2          1           0        0.050852    1.505991    0.000000
      3          1           0       -0.876735    2.808619    0.000000
      4          8           0        0.052291   -2.308692   -0.000000
      5          1           0        0.790101   -2.957647   -0.000000
      6          1           0       -0.800868   -2.796162   -0.000000
 ---------------------------------------------------------------------

 SCF Done:  E(RHF) =  -152.109189886     A.U. after   10 cycles
 E2 =    -0.5258692510D+00 EUMP2 =    -0.15263505913723D+03
 CCSD(T)
 CCSD(T)= -0.15266222561D+03

 The electronic state is 1-A'.
 Alpha  occ. eigenvalues --  -20.56458 -20.54645  -1.33747  -1.31959  -0.71149
 Alpha  occ. eigenvalues --   -0.69354  -0.57266  -0.55440  -0.50871  -0.49089
 Alpha virt. eigenvalues --    0.12731   0.15553   0.19551   0.21843   0.53401
 Alpha virt. eigenvalues --    0.55099   0.56463   0.58072   0.67088   0.69337
 Alpha virt. eigenvalues --    0.78034   0.79053   0.79492   0.79749   0.83050

 Mulliken charges:
               1
     1  O   -0.516453
     2  H    0.262974
     3  H    0.252082
     4  O   -0.515201
     5  H    0.259826
     6  H    0.256772
 Sum of Mulliken charges =   0.00000

 Dipole moment (field-independent basis, Debye):
    X=             -1.7868    Y=             -3.2044    Z=             -0.0000  Tot=              3.6689
 Quadrupole moment (field-independent basis, Debye-Ang):
   XX=             -9.2257   YY=             -6.9078   ZZ=            -14.7176
   XY=             -4.7633   XZ=             -0.0000   YZ=              0.0000

 Normal termination of Gaussian 16 at Fri Aug 26 21:50:14 2022.
