 Gaussian 16, Revision A.03,
 Gaussian 16:  ES64L-G16RevA.03 25-Dec-2016

 ------------------
 #p CCSD(T)/cc-pVTZ
 ------------------

 ------------
 H2O_H2O_4881
 ------------
 Symbolic Z-matrix:
 Charge =  0 Multiplicity = 1

                         Standard orientation:
 ---------------------------------------------------------------------
 Center     Atomic      Atomic             Coordinates (Angstroms)
 Number     Number       Type             X           Y           Z
 ---------------------------------------------------------------------
      1          8           0        0.076746    3.047934   -0.000000
      2          1           0        0.076283    2.065333   -0.000000
      3          1           0       -0.852596    3.367039    0.000000
      4          8           0        0.076746   -2.884703   -0.000000
      5          1           0        0.452344   -3.792687   -0.000000
      6          1           0       -0.903971   -2.945533    0.000000
 ---------------------------------------------------------------------

 SCF Done:  E(RHF) =  -152.107946595     A.U. after   10 cycles
 E2 =    -0.5258364101D+00 EUMP2 =    -0.15263378300535D+03
 CCSD(T)
 CCSD(T)= -0.15266099159D+03

 The electronic state is 1-A'.
 Alpha  occ. eigenvalues --  -20.56136 -20.55157  -1.33438  -1.32461  -0.70847
 Alpha  occ. eigenvalues --   -0.69860  -0.56910  -0.55920  -0.50552  -0.49578
 Alpha virt. eigenvalues --    0.13386   0.14674   0.19526   0.20951   0.53591
 Alpha virt. eigenvalues --    0.54767   0.56666   0.57677   0.67065   0.68433
 Alpha virt. eigenvalues --    0.78333   0.79289   0.79692   0.80723   0.81980

 Mulliken charges:
               1
     1  O   -0.511379
     2  H    0.258657
     3  H    0.252689
     4  O   -0.512217
     5  H    0.257929
     6  H    0.254322
 Sum of Mulliken charges =  -0.00000

 Dipole moment (field-independent basis, Debye):
    X=             -2.6342    Y=             -2.8569    Z=              0.0000  Tot=              3.8860
 Quadrupole moment (field-independent basis, Debye-Ang):
   XX=             -9.9472   YY=             -7.0882   ZZ=            -14.7132
   XY=             -3.7929   XZ=             -0.0000   YZ=              0.0000

 Normal termination of Gaussian 16 at Sun Aug 28 06:39:01 2022.
