 Gaussian 16, Revision A.03,
 Gaussian 16:  ES64L-G16RevA.03 25-Dec-2016

 ------------------
 #p CCSD(T)/cc-pVTZ
 ------------------

 ------------
 H2O_H2O_1716
 ------------
 Symbolic Z-matrix:
 Charge =  0 Multiplicity = 1

                         Standard orientation:
 ---------------------------------------------------------------------
 Center     Atomic      Atomic             Coordinates (Angstroms)
 Number     Number       Type             X           Y           Z
 ---------------------------------------------------------------------
      1          8           0        0.041200    1.790547   -0.000000
      2          1           0        0.038614    0.807949   -0.000000
      3          1           0       -0.887451    2.111658    0.000000
      4          8           0        0.041200   -1.610676   -0.000000
      5          1           0        0.890861   -2.104214   -0.000000
      6          1           0       -0.701218   -2.254356    0.000000
 ---------------------------------------------------------------------

 SCF Done:  E(RHF) =  -152.113357287     A.U. after   10 cycles
 E2 =    -0.5267429301D+00 EUMP2 =    -0.15264010021705D+03
 CCSD(T)
 CCSD(T)= -0.15266712949D+03

 The electronic state is 1-A'.
 Alpha  occ. eigenvalues --  -20.57668 -20.53283  -1.34928  -1.30682  -0.72290
 Alpha  occ. eigenvalues --   -0.68198  -0.58709  -0.54092  -0.52066  -0.47837
 Alpha virt. eigenvalues --    0.12161   0.17387   0.19032   0.27784   0.50846
 Alpha virt. eigenvalues --    0.54573   0.56258   0.59325   0.69033   0.72318
 Alpha virt. eigenvalues --    0.75197   0.77018   0.81156   0.83232   0.84660

 Mulliken charges:
               1
     1  O   -0.536450
     2  H    0.273098
     3  H    0.248371
     4  O   -0.507693
     5  H    0.263905
     6  H    0.258769
 Sum of Mulliken charges =  -0.00000

 Dipole moment (field-independent basis, Debye):
    X=             -1.3878    Y=             -3.4574    Z=             -0.0000  Tot=              3.7255
 Quadrupole moment (field-independent basis, Debye-Ang):
   XX=             -9.1524   YY=             -8.0946   ZZ=            -14.7335
   XY=             -4.0091   XZ=             -0.0000   YZ=             -0.0000

 Normal termination of Gaussian 16 at Sun Aug 28 00:54:53 2022.
