 Gaussian 16, Revision A.03,
 Gaussian 16:  ES64L-G16RevA.03 25-Dec-2016

 ------------------
 #p CCSD(T)/cc-pVTZ
 ------------------

 ------------
 H2O_H2O_4929
 ------------
 Symbolic Z-matrix:
 Charge =  0 Multiplicity = 1

                         Standard orientation:
 ---------------------------------------------------------------------
 Center     Atomic      Atomic             Coordinates (Angstroms)
 Number     Number       Type             X           Y           Z
 ---------------------------------------------------------------------
      1          8           0        0.082797    3.063154    0.000000
      2          1           0        0.082508    2.080552    0.000000
      3          1           0       -0.846603    3.382093    0.000000
      4          8           0        0.082797   -2.908620   -0.000000
      5          1           0        0.336834   -3.857815   -0.000000
      6          1           0       -0.897483   -2.841095   -0.000000
 ---------------------------------------------------------------------

 SCF Done:  E(RHF) =  -152.107826647     A.U. after   10 cycles
 E2 =    -0.5258456108D+00 EUMP2 =    -0.15263367225785D+03
 CCSD(T)
 CCSD(T)= -0.15266088358D+03

 The electronic state is 1-A'.
 Alpha  occ. eigenvalues --  -20.56133 -20.55229  -1.33435  -1.32531  -0.70845
 Alpha  occ. eigenvalues --   -0.69930  -0.56902  -0.55988  -0.50548  -0.49647
 Alpha virt. eigenvalues --    0.13334   0.14616   0.19406   0.20999   0.53555
 Alpha virt. eigenvalues --    0.54731   0.56653   0.57629   0.67095   0.68361
 Alpha virt. eigenvalues --    0.78338   0.79222   0.79724   0.80797   0.81813

 Mulliken charges:
               1
     1  O   -0.510736
     2  H    0.258080
     3  H    0.252630
     4  O   -0.511562
     5  H    0.257797
     6  H    0.253790
 Sum of Mulliken charges =   0.00000

 Dipole moment (field-independent basis, Debye):
    X=             -2.8422    Y=             -2.7037    Z=             -0.0000  Tot=              3.9228
 Quadrupole moment (field-independent basis, Debye-Ang):
   XX=            -10.2431   YY=             -7.6755   ZZ=            -14.7127
   XY=             -3.2620   XZ=             -0.0000   YZ=              0.0000

 Normal termination of Gaussian 16 at Sun Aug 28 06:59:26 2022.
