 Gaussian 16, Revision A.03,
 Gaussian 16:  ES64L-G16RevA.03 25-Dec-2016

 ------------------
 #p CCSD(T)/cc-pVTZ
 ------------------

 ------------
 H2O_H2O_3547
 ------------
 Symbolic Z-matrix:
 Charge =  0 Multiplicity = 1

                         Standard orientation:
 ---------------------------------------------------------------------
 Center     Atomic      Atomic             Coordinates (Angstroms)
 Number     Number       Type             X           Y           Z
 ---------------------------------------------------------------------
      1          8           0       -0.019845    2.511566    0.000000
      2          1           0       -0.017291    1.528968    0.000000
      3          1           0        0.908816    2.832648    0.000000
      4          8           0       -0.019845   -2.344455    0.000000
      5          1           0       -0.993705   -2.475242    0.000000
      6          1           0        0.419704   -3.223262    0.000000
 ---------------------------------------------------------------------

 SCF Done:  E(RHF) =  -152.109152165     A.U. after   10 cycles
 E2 =    -0.5258398410D+00 EUMP2 =    -0.15263499200598D+03
 CCSD(T)
 CCSD(T)= -0.15266216304D+03

 The electronic state is 1-A'.
 Alpha  occ. eigenvalues --  -20.56412 -20.54790  -1.33707  -1.32103  -0.71112
 Alpha  occ. eigenvalues --   -0.69509  -0.57225  -0.55588  -0.50831  -0.49235
 Alpha virt. eigenvalues --    0.12619   0.15487   0.19335   0.22062   0.53312
 Alpha virt. eigenvalues --    0.55294   0.56550   0.57955   0.66935   0.69253
 Alpha virt. eigenvalues --    0.78070   0.78747   0.79607   0.80459   0.82935

 Mulliken charges:
               1
     1  O   -0.517150
     2  H    0.261610
     3  H    0.254489
     4  O   -0.516091
     5  H    0.258326
     6  H    0.258816
 Sum of Mulliken charges =  -0.00000

 Dipole moment (field-independent basis, Debye):
    X=              0.6806    Y=             -2.9687    Z=              0.0000  Tot=              3.0458
 Quadrupole moment (field-independent basis, Debye-Ang):
   XX=             -9.4467   YY=             -7.4235   ZZ=            -14.7173
   XY=              6.3947   XZ=              0.0000   YZ=              0.0000

 Normal termination of Gaussian 16 at Fri Aug 26 22:19:14 2022.
