 Gaussian 16, Revision A.03,
 Gaussian 16:  ES64L-G16RevA.03 25-Dec-2016

 ------------------
 #p CCSD(T)/cc-pVTZ
 ------------------

 ------------
 H2O_H2O_4610
 ------------
 Symbolic Z-matrix:
 Charge =  0 Multiplicity = 1

                         Standard orientation:
 ---------------------------------------------------------------------
 Center     Atomic      Atomic             Coordinates (Angstroms)
 Number     Number       Type             X           Y           Z
 ---------------------------------------------------------------------
      1          8           0        0.063215    2.944929   -0.000000
      2          1           0        0.062333    1.962328   -0.000000
      3          1           0       -0.865991    3.264430   -0.000000
      4          8           0        0.063215   -2.769392    0.000000
      5          1           0        0.660685   -3.549478    0.000000
      6          1           0       -0.868474   -3.081578    0.000000
 ---------------------------------------------------------------------

 SCF Done:  E(RHF) =  -152.108227819     A.U. after   10 cycles
 E2 =    -0.5258212382D+00 EUMP2 =    -0.15263404905728D+03
 CCSD(T)
 CCSD(T)= -0.15266125062D+03

 The electronic state is 1-A'.
 Alpha  occ. eigenvalues --  -20.56171 -20.55011  -1.33473  -1.32317  -0.70879
 Alpha  occ. eigenvalues --   -0.69717  -0.56958  -0.55784  -0.50590  -0.49438
 Alpha virt. eigenvalues --    0.13365   0.14847   0.19648   0.21002   0.53617
 Alpha virt. eigenvalues --    0.54839   0.56659   0.57769   0.66907   0.68659
 Alpha virt. eigenvalues --    0.78296   0.79422   0.79601   0.80407   0.82517

 Mulliken charges:
               1
     1  O   -0.512812
     2  H    0.259911
     3  H    0.252811
     4  O   -0.513669
     5  H    0.258332
     6  H    0.255428
 Sum of Mulliken charges =  -0.00000

 Dipole moment (field-independent basis, Debye):
    X=             -2.1684    Y=             -3.0786    Z=              0.0000  Tot=              3.7656
 Quadrupole moment (field-independent basis, Debye-Ang):
   XX=             -9.4536   YY=             -6.4366   ZZ=            -14.7142
   XY=             -4.7125   XZ=              0.0000   YZ=             -0.0000

 Normal termination of Gaussian 16 at Sun Aug 28 04:18:46 2022.
