 Gaussian 16, Revision A.03,
 Gaussian 16:  ES64L-G16RevA.03 25-Dec-2016

 ------------------
 #p CCSD(T)/cc-pVTZ
 ------------------

 ------------
 H2O_H2O_1428
 ------------
 Symbolic Z-matrix:
 Charge =  0 Multiplicity = 1

                         Standard orientation:
 ---------------------------------------------------------------------
 Center     Atomic      Atomic             Coordinates (Angstroms)
 Number     Number       Type             X           Y           Z
 ---------------------------------------------------------------------
      1          8           0        0.085610   -1.664392    0.000000
      2          1           0        0.085217   -0.681791    0.000000
      3          1           0       -0.843756   -1.983430    0.000000
      4          8           0        0.085610    1.514816    0.000000
      5          1           0        0.276921    2.478613    0.000000
      6          1           0       -0.888140    1.383218    0.000000
 ---------------------------------------------------------------------

 SCF Done:  E(RHF) =  -152.110479452     A.U. after   10 cycles
 E2 =    -0.5276619463D+00 EUMP2 =    -0.15263814139862D+03
 CCSD(T)
 CCSD(T)= -0.15266518783D+03

 The electronic state is 1-A'.
 Alpha  occ. eigenvalues --  -20.57988 -20.53844  -1.35350  -1.31239  -0.72986
 Alpha  occ. eigenvalues --   -0.68613  -0.58920  -0.54574  -0.52416  -0.48347
 Alpha virt. eigenvalues --    0.11616   0.16553   0.20050   0.28477   0.49572
 Alpha virt. eigenvalues --    0.54772   0.57918   0.58103   0.68710   0.73727
 Alpha virt. eigenvalues --    0.74722   0.77398   0.80974   0.82158   0.83626

 Mulliken charges:
               1
     1  O   -0.528377
     2  H    0.275935
     3  H    0.239192
     4  O   -0.482148
     5  H    0.248881
     6  H    0.246517
 Sum of Mulliken charges =  -0.00000

 Dipole moment (field-independent basis, Debye):
    X=             -2.8563    Y=              2.9441    Z=              0.0000  Tot=              4.1019
 Quadrupole moment (field-independent basis, Debye-Ang):
   XX=            -10.4452   YY=             -8.7757   ZZ=            -14.7168
   XY=              2.5983   XZ=              0.0000   YZ=              0.0000

 CCSD(T)=-152.6651878\RMSD=7.272e-09\PG=CS [SG(H4O2)]\\@
 Normal termination of Gaussian 16 at Sat Aug 27 00:31:30 2022.
