 Gaussian 16, Revision A.03,
 Gaussian 16:  ES64L-G16RevA.03 25-Dec-2016

 ------------------
 #p CCSD(T)/cc-pVTZ
 ------------------

 ------------
 H2O_H2O_3993
 ------------
 Symbolic Z-matrix:
 Charge =  0 Multiplicity = 1

                         Standard orientation:
 ---------------------------------------------------------------------
 Center     Atomic      Atomic             Coordinates (Angstroms)
 Number     Number       Type             X           Y           Z
 ---------------------------------------------------------------------
      1          8           0        0.033764    2.696724   -0.000000
      2          1           0        0.031838    1.714125   -0.000000
      3          1           0       -0.895103    3.017211   -0.000000
      4          8           0        0.033764   -2.519181    0.000000
      5          1           0        0.940831   -2.896984    0.000000
      6          1           0       -0.617790   -3.254697    0.000000
 ---------------------------------------------------------------------

 SCF Done:  E(RHF) =  -152.108806425     A.U. after   10 cycles
 E2 =    -0.5258124859D+00 EUMP2 =    -0.15263461891127D+03
 CCSD(T)
 CCSD(T)= -0.15266180325D+03

 The electronic state is 1-A'.
 Alpha  occ. eigenvalues --  -20.56290 -20.54829  -1.33588  -1.32140  -0.70991
 Alpha  occ. eigenvalues --   -0.69542  -0.57095  -0.55618  -0.50709  -0.49267
 Alpha virt. eigenvalues --    0.13060   0.15210   0.19594   0.21379   0.53488
 Alpha virt. eigenvalues --    0.54975   0.56600   0.57839   0.66678   0.69085
 Alpha virt. eigenvalues --    0.78184   0.79232   0.79580   0.79983   0.82873

 Mulliken charges:
               1
     1  O   -0.515619
     2  H    0.261473
     3  H    0.253683
     4  O   -0.515900
     5  H    0.258605
     6  H    0.257759
 Sum of Mulliken charges =  -0.00000

 Dipole moment (field-independent basis, Debye):
    X=             -1.1567    Y=             -3.1337    Z=              0.0000  Tot=              3.3404
 Quadrupole moment (field-independent basis, Debye-Ang):
   XX=             -9.1864   YY=             -6.6850   ZZ=            -14.7162
   XY=             -6.0345   XZ=              0.0000   YZ=             -0.0000

 CCSD(T)=-152.6618033\RMSD=7.077e-09\PG=CS [SG(H4O2)]\\@
 Normal termination of Gaussian 16 at Sat Aug 27 00:53:11 2022.
