 Gaussian 16, Revision A.03,
 Gaussian 16:  ES64L-G16RevA.03 25-Dec-2016

 ------------------
 #p CCSD(T)/cc-pVTZ
 ------------------

 ------------
 H2O_H2O_3290
 ------------
 Symbolic Z-matrix:
 Charge =  0 Multiplicity = 1

                         Standard orientation:
 ---------------------------------------------------------------------
 Center     Atomic      Atomic             Coordinates (Angstroms)
 Number     Number       Type             X           Y           Z
 ---------------------------------------------------------------------
      1          8           0        0.044854    2.419064   -0.000000
      2          1           0        0.043100    1.436464   -0.000000
      3          1           0       -0.884069    2.739388   -0.000000
      4          8           0        0.044854   -2.238659    0.000000
      5          1           0        0.860882   -2.786020    0.000000
      6          1           0       -0.737569   -2.833068    0.000000
 ---------------------------------------------------------------------

 SCF Done:  E(RHF) =  -152.109487883     A.U. after   10 cycles
 E2 =    -0.5258834077D+00 EUMP2 =    -0.15263537129077D+03
 CCSD(T)
 CCSD(T)= -0.15266252799D+03

 The electronic state is 1-A'.
 Alpha  occ. eigenvalues --  -20.56521 -20.54561  -1.33806  -1.31878  -0.71207
 Alpha  occ. eigenvalues --   -0.69274  -0.57337  -0.55364  -0.50933  -0.49011
 Alpha virt. eigenvalues --    0.12654   0.15706   0.19518   0.22125   0.53325
 Alpha virt. eigenvalues --    0.55241   0.56439   0.58216   0.67444   0.69358
 Alpha virt. eigenvalues --    0.77972   0.79050   0.79387   0.79821   0.83132

 Mulliken charges:
               1
     1  O   -0.517772
     2  H    0.263542
     3  H    0.252319
     4  O   -0.515277
     5  H    0.259850
     6  H    0.257337
 Sum of Mulliken charges =  -0.00000

 Dipole moment (field-independent basis, Debye):
    X=             -1.5316    Y=             -3.2256    Z=              0.0000  Tot=              3.5708
 Quadrupole moment (field-independent basis, Debye-Ang):
   XX=             -9.1569   YY=             -6.9959   ZZ=            -14.7186
   XY=             -4.9840   XZ=              0.0000   YZ=             -0.0000

 CCSD(T)=-152.662528\RMSD=6.938e-09\PG=CS [SG(H4O2)]\\@
 Normal termination of Gaussian 16 at Fri Aug 26 20:51:29 2022.
