 Gaussian 16, Revision A.03,
 Gaussian 16:  ES64L-G16RevA.03 25-Dec-2016

 ------------------
 #p CCSD(T)/cc-pVTZ
 ------------------

 ------------
 H2O_H2O_2715
 ------------
 Symbolic Z-matrix:
 Charge =  0 Multiplicity = 1

                         Standard orientation:
 ---------------------------------------------------------------------
 Center     Atomic      Atomic             Coordinates (Angstroms)
 Number     Number       Type             X           Y           Z
 ---------------------------------------------------------------------
      1          8           0        0.044871    2.189701    0.000000
      2          1           0        0.042927    1.207102    0.000000
      3          1           0       -0.883990    2.510206    0.000000
      4          8           0        0.044871   -2.009314    0.000000
      5          1           0        0.860793   -2.556833    0.000000
      6          1           0       -0.737667   -2.603570    0.000000
 ---------------------------------------------------------------------

 SCF Done:  E(RHF) =  -152.110466553     A.U. after   10 cycles
 E2 =    -0.5260113182D+00 EUMP2 =    -0.15263647787081D+03
 CCSD(T)
 CCSD(T)= -0.15266359996D+03

 The electronic state is 1-A'.
 Alpha  occ. eigenvalues --  -20.56807 -20.54262  -1.34075  -1.31588  -0.71472
 Alpha  occ. eigenvalues --   -0.68983  -0.57647  -0.55078  -0.51209  -0.48729
 Alpha virt. eigenvalues --    0.12412   0.16229   0.19382   0.23448   0.52926
 Alpha virt. eigenvalues --    0.55594   0.56317   0.58871   0.69057   0.69704
 Alpha virt. eigenvalues --    0.77622   0.78964   0.79890   0.80100   0.83478

 Mulliken charges:
               1
     1  O   -0.521539
     2  H    0.265693
     3  H    0.251253
     4  O   -0.512812
     5  H    0.260355
     6  H    0.257050
 Sum of Mulliken charges =  -0.00000

 Dipole moment (field-independent basis, Debye):
    X=             -1.5272    Y=             -3.2802    Z=              0.0000  Tot=              3.6183
 Quadrupole moment (field-independent basis, Debye-Ang):
   XX=             -9.1575   YY=             -7.3697   ZZ=            -14.7217
   XY=             -4.6016   XZ=              0.0000   YZ=              0.0000

 Normal termination of Gaussian 16 at Fri Aug 26 16:46:27 2022.
