 Gaussian 16, Revision A.03,
 Gaussian 16:  ES64L-G16RevA.03 25-Dec-2016

 ------------------
 #p CCSD(T)/cc-pVTZ
 ------------------

 ------------
 H2O_H2O_1926
 ------------
 Symbolic Z-matrix:
 Charge =  0 Multiplicity = 1

                         Standard orientation:
 ---------------------------------------------------------------------
 Center     Atomic      Atomic             Coordinates (Angstroms)
 Number     Number       Type             X           Y           Z
 ---------------------------------------------------------------------
      1          8           0        0.090686   -1.857924    0.000000
      2          1           0        0.090579   -0.875323    0.000000
      3          1           0       -0.838772   -2.176693    0.000000
      4          8           0        0.090686    1.719220    0.000000
      5          1           0        0.154844    2.699725    0.000000
      6          1           0       -0.857630    1.461924    0.000000
 ---------------------------------------------------------------------

 SCF Done:  E(RHF) =  -152.109290326     A.U. after   10 cycles
 E2 =    -0.5268048783D+00 EUMP2 =    -0.15263609520463D+03
 CCSD(T)
 CCSD(T)= -0.15266321601D+03

 The electronic state is 1-A'.
 Alpha  occ. eigenvalues --  -20.57380 -20.54662  -1.34680  -1.31980  -0.72222
 Alpha  occ. eigenvalues --   -0.69293  -0.58191  -0.55400  -0.51772  -0.49093
 Alpha virt. eigenvalues --    0.11519   0.16190   0.20140   0.25854   0.51685
 Alpha virt. eigenvalues --    0.55426   0.57142   0.57421   0.68181   0.73970
 Alpha virt. eigenvalues --    0.75787   0.78444   0.80053   0.82834   0.82891

 Mulliken charges:
               1
     1  O   -0.516780
     2  H    0.266858
     3  H    0.243836
     4  O   -0.497558
     5  H    0.257562
     6  H    0.246082
 Sum of Mulliken charges =   0.00000

 Dipole moment (field-independent basis, Debye):
    X=             -3.0536    Y=              2.6051    Z=              0.0000  Tot=              4.0139
 Quadrupole moment (field-independent basis, Debye-Ang):
   XX=            -10.7383   YY=             -8.9592   ZZ=            -14.7154
   XY=              2.3167   XZ=              0.0000   YZ=              0.0000

 Normal termination of Gaussian 16 at Sun Aug 28 02:50:49 2022.
