 Gaussian 16, Revision A.03,
 Gaussian 16:  ES64L-G16RevA.03 25-Dec-2016

 ------------------
 #p CCSD(T)/cc-pVTZ
 ------------------

 ------------
 H2O_H2O_2731
 ------------
 Symbolic Z-matrix:
 Charge =  0 Multiplicity = 1

                         Standard orientation:
 ---------------------------------------------------------------------
 Center     Atomic      Atomic             Coordinates (Angstroms)
 Number     Number       Type             X           Y           Z
 ---------------------------------------------------------------------
      1          8           0        0.076762    2.190333    0.000000
      2          1           0        0.076110    1.207732    0.000000
      3          1           0       -0.852519    2.509616    0.000000
      4          8           0        0.076762   -2.027132   -0.000000
      5          1           0        0.452185   -2.935187   -0.000000
      6          1           0       -0.903967   -2.087773   -0.000000
 ---------------------------------------------------------------------

 SCF Done:  E(RHF) =  -152.109465812     A.U. after   10 cycles
 E2 =    -0.5260926969D+00 EUMP2 =    -0.15263555850856D+03
 CCSD(T)
 CCSD(T)= -0.15266270067D+03

 The electronic state is 1-A'.
 Alpha  occ. eigenvalues --  -20.56796 -20.54588  -1.34076  -1.31904  -0.71494
 Alpha  occ. eigenvalues --   -0.69284  -0.57597  -0.55373  -0.51197  -0.49031
 Alpha virt. eigenvalues --    0.12035   0.15971   0.19460   0.23302   0.53751
 Alpha virt. eigenvalues --    0.55293   0.56282   0.58527   0.68716   0.69624
 Alpha virt. eigenvalues --    0.77634   0.79028   0.79827   0.80449   0.83058

 Mulliken charges:
               1
     1  O   -0.516462
     2  H    0.264018
     3  H    0.248840
     4  O   -0.509582
     5  H    0.259729
     6  H    0.253456
 Sum of Mulliken charges =  -0.00000

 Dipole moment (field-independent basis, Debye):
    X=             -2.6108    Y=             -2.9601    Z=             -0.0000  Tot=              3.9469
 Quadrupole moment (field-independent basis, Debye-Ang):
   XX=             -9.9600   YY=             -7.9467   ZZ=            -14.7179
   XY=             -3.3048   XZ=             -0.0000   YZ=              0.0000

 CCSD(T)=-152.6627007\RMSD=6.952e-09\PG=CS [SG(H4O2)]\\@
 Normal termination of Gaussian 16 at Fri Aug 26 16:53:21 2022.
