 Gaussian 16, Revision A.03,
 Gaussian 16:  ES64L-G16RevA.03 25-Dec-2016

 ------------------
 #p CCSD(T)/cc-pVTZ
 ------------------

 -----------
 H2O_H2O_377
 -----------
 Symbolic Z-matrix:
 Charge =  0 Multiplicity = 1

                         Standard orientation:
 ---------------------------------------------------------------------
 Center     Atomic      Atomic             Coordinates (Angstroms)
 Number     Number       Type             X           Y           Z
 ---------------------------------------------------------------------
      1          8           0        0.088244   -1.242700    0.000000
      2          1           0        0.087902   -0.260099    0.000000
      3          1           0       -0.841138   -1.561690    0.000000
      4          8           0        0.088244    1.098410    0.000000
      5          1           0        0.216160    2.072650    0.000000
      6          1           0       -0.874824    0.903458    0.000000
 ---------------------------------------------------------------------

 SCF Done:  E(RHF) =  -152.080690222     A.U. after   11 cycles
 E2 =    -0.5346483505D+00 EUMP2 =    -0.15261533857219D+03
 CCSD(T)
 CCSD(T)= -0.15264160607D+03

 The electronic state is 1-A'.
 Alpha  occ. eigenvalues --  -20.60471 -20.49945  -1.39992  -1.28369  -0.79147
 Alpha  occ. eigenvalues --   -0.69004  -0.58731  -0.55866  -0.50676  -0.45285
 Alpha virt. eigenvalues --    0.11055   0.16299   0.21109   0.32421   0.48941
 Alpha virt. eigenvalues --    0.51736   0.59316   0.65600   0.71529   0.72537
 Alpha virt. eigenvalues --    0.74676   0.76902   0.79082   0.82999   0.84673

 Mulliken charges:
               1
     1  O   -0.579691
     2  H    0.281681
     3  H    0.207942
     4  O   -0.369313
     5  H    0.228108
     6  H    0.231273
 Sum of Mulliken charges =  -0.00000

 Dipole moment (field-independent basis, Debye):
    X=             -2.8037    Y=              3.6600    Z=              0.0000  Tot=              4.6105
 Quadrupole moment (field-independent basis, Debye-Ang):
   XX=            -10.5658   YY=             -9.5400   ZZ=            -14.6089
   XY=              2.2512   XZ=              0.0000   YZ=              0.0000

 Normal termination of Gaussian 16 at Fri Aug 26 17:48:29 2022.
