 Gaussian 16, Revision A.03,
 Gaussian 16:  ES64L-G16RevA.03 25-Dec-2016

 ------------------
 #p CCSD(T)/cc-pVTZ
 ------------------

 ------------
 H2O_H2O_2849
 ------------
 Symbolic Z-matrix:
 Charge =  0 Multiplicity = 1

                         Standard orientation:
 ---------------------------------------------------------------------
 Center     Atomic      Atomic             Coordinates (Angstroms)
 Number     Number       Type             X           Y           Z
 ---------------------------------------------------------------------
      1          8           0       -0.013532    2.228089    0.000000
      2          1           0       -0.010395    1.245493    0.000000
      3          1           0        0.914939    2.549721    0.000000
      4          8           0       -0.013532   -2.068832    0.000000
      5          1           0       -0.996129   -2.071968    0.000000
      6          1           0        0.308100   -2.997303    0.000000
 ---------------------------------------------------------------------

 SCF Done:  E(RHF) =  -152.109950864     A.U. after   10 cycles
 E2 =    -0.5259596643D+00 EUMP2 =    -0.15263591052834D+03
 CCSD(T)
 CCSD(T)= -0.15266305101D+03

 The electronic state is 1-A'.
 Alpha  occ. eigenvalues --  -20.56694 -20.54615  -1.33981  -1.31936  -0.71393
 Alpha  occ. eigenvalues --   -0.69344  -0.57526  -0.55426  -0.51108  -0.49075
 Alpha virt. eigenvalues --    0.12196   0.16019   0.19231   0.23529   0.53959
 Alpha virt. eigenvalues --    0.55577   0.56309   0.58335   0.68446   0.69499
 Alpha virt. eigenvalues --    0.77744   0.78854   0.79771   0.80698   0.83243

 Mulliken charges:
               1
     1  O   -0.521055
     2  H    0.263084
     3  H    0.254937
     4  O   -0.514275
     5  H    0.258444
     6  H    0.258865
 Sum of Mulliken charges =  -0.00000

 Dipole moment (field-independent basis, Debye):
    X=              0.4667    Y=             -2.8753    Z=              0.0000  Tot=              2.9130
 Quadrupole moment (field-independent basis, Debye-Ang):
   XX=             -9.6484   YY=             -8.0376   ZZ=            -14.7197
   XY=              6.0203   XZ=              0.0000   YZ=              0.0000

 CCSD(T)=-152.663051\RMSD=6.804e-09\PG=CS [SG(H4O2)]\\@
 Normal termination of Gaussian 16 at Fri Aug 26 17:44:53 2022.
