 Gaussian 16, Revision A.03,
 Gaussian 16:  ES64L-G16RevA.03 25-Dec-2016

 ------------------
 #p CCSD(T)/cc-pVTZ
 ------------------

 ------------
 H2O_H2O_2092
 ------------
 Symbolic Z-matrix:
 Charge =  0 Multiplicity = 1

                         Standard orientation:
 ---------------------------------------------------------------------
 Center     Atomic      Atomic             Coordinates (Angstroms)
 Number     Number       Type             X           Y           Z
 ---------------------------------------------------------------------
      1          8           0        0.037489    1.939614    0.000000
      2          1           0        0.034942    0.957015    0.000000
      3          1           0       -0.891175    2.260688    0.000000
      4          8           0        0.037489   -1.760685    0.000000
      5          1           0        0.917628   -2.197561    0.000000
      6          1           0       -0.661212   -2.451571    0.000000
 ---------------------------------------------------------------------

 SCF Done:  E(RHF) =  -152.112155380     A.U. after   10 cycles
 E2 =    -0.5263225708D+00 EUMP2 =    -0.15263847795072D+03
 CCSD(T)
 CCSD(T)= -0.15266554873D+03

 The electronic state is 1-A'.
 Alpha  occ. eigenvalues --  -20.57266 -20.53770  -1.34519  -1.31125  -0.71904
 Alpha  occ. eigenvalues --   -0.68550  -0.58198  -0.54594  -0.51659  -0.48278
 Alpha virt. eigenvalues --    0.12265   0.16928   0.19176   0.25855   0.52052
 Alpha virt. eigenvalues --    0.55035   0.56440   0.58901   0.69079   0.72244
 Alpha virt. eigenvalues --    0.76510   0.77854   0.80626   0.83499   0.84102

 Mulliken charges:
               1
     1  O   -0.529310
     2  H    0.268648
     3  H    0.250474
     4  O   -0.509222
     5  H    0.261659
     6  H    0.257751
 Sum of Mulliken charges =  -0.00000

 Dipole moment (field-independent basis, Debye):
    X=             -1.2699    Y=             -3.3490    Z=             -0.0000  Tot=              3.5817
 Quadrupole moment (field-independent basis, Debye-Ang):
   XX=             -9.1605   YY=             -7.8303   ZZ=            -14.7281
   XY=             -4.3803   XZ=             -0.0000   YZ=             -0.0000

 Normal termination of Gaussian 16 at Sun Aug 28 04:15:36 2022.
