 Gaussian 16, Revision A.03,
 Gaussian 16:  ES64L-G16RevA.03 25-Dec-2016

 ------------------
 #p CCSD(T)/cc-pVTZ
 ------------------

 ------------
 H2O_H2O_3740
 ------------
 Symbolic Z-matrix:
 Charge =  0 Multiplicity = 1

                         Standard orientation:
 ---------------------------------------------------------------------
 Center     Atomic      Atomic             Coordinates (Angstroms)
 Number     Number       Type             X           Y           Z
 ---------------------------------------------------------------------
      1          8           0        0.044842    2.598564    0.000000
      2          1           0        0.043214    1.615964    0.000000
      3          1           0       -0.884122    2.918769   -0.000000
      4          8           0        0.044842   -2.418148    0.000000
      5          1           0        0.860940   -2.965405    0.000000
      6          1           0       -0.737505   -3.012656   -0.000000
 ---------------------------------------------------------------------

 SCF Done:  E(RHF) =  -152.108978949     A.U. after   10 cycles
 E2 =    -0.5258346018D+00 EUMP2 =    -0.15263481355040D+03
 CCSD(T)
 CCSD(T)= -0.15266198995D+03

 The electronic state is 1-A'.
 Alpha  occ. eigenvalues --  -20.56363 -20.54731  -1.33657  -1.32044  -0.71060
 Alpha  occ. eigenvalues --   -0.69442  -0.57171  -0.55524  -0.50780  -0.49172
 Alpha virt. eigenvalues --    0.12923   0.15369   0.19601   0.21540   0.53488
 Alpha virt. eigenvalues --    0.54987   0.56541   0.57899   0.66771   0.69246
 Alpha virt. eigenvalues --    0.78119   0.79264   0.79537   0.79670   0.82971

 Mulliken charges:
               1
     1  O   -0.515983
     2  H    0.262309
     3  H    0.252850
     4  O   -0.515770
     5  H    0.259337
     6  H    0.257258
 Sum of Mulliken charges =  -0.00000

 Dipole moment (field-independent basis, Debye):
    X=             -1.5342    Y=             -3.1972    Z=             -0.0000  Tot=              3.5462
 Quadrupole moment (field-independent basis, Debye-Ang):
   XX=             -9.1568   YY=             -6.7072   ZZ=            -14.7168
   XY=             -5.2830   XZ=              0.0000   YZ=             -0.0000

 Normal termination of Gaussian 16 at Fri Aug 26 23:24:40 2022.
