 Gaussian 16, Revision A.03,
 Gaussian 16:  ES64L-G16RevA.03 25-Dec-2016

 ------------------
 #p CCSD(T)/cc-pVTZ
 ------------------

 -----------
 H2O_H2O_786
 -----------
 Symbolic Z-matrix:
 Charge =  0 Multiplicity = 1

                         Standard orientation:
 ---------------------------------------------------------------------
 Center     Atomic      Atomic             Coordinates (Angstroms)
 Number     Number       Type             X           Y           Z
 ---------------------------------------------------------------------
      1          8           0        0.059720    1.420209   -0.000000
      2          1           0        0.057597    0.437610   -0.000000
      3          1           0       -0.869083    1.740883   -0.000000
      4          8           0        0.059720   -1.242870    0.000000
      5          1           0        0.705996   -1.983028    0.000000
      6          1           0       -0.850026   -1.614177    0.000000
 ---------------------------------------------------------------------

 SCF Done:  E(RHF) =  -152.109874532     A.U. after   10 cycles
 E2 =    -0.5298656928D+00 EUMP2 =    -0.15263974022434D+03
 CCSD(T)
 CCSD(T)= -0.15266643787D+03

 The electronic state is 1-A'.
 Alpha  occ. eigenvalues --  -20.59362 -20.50764  -1.37140  -1.28680  -0.74280
 Alpha  occ. eigenvalues --   -0.68868  -0.59536  -0.54073  -0.51425  -0.45732
 Alpha virt. eigenvalues --    0.11547   0.17527   0.19530   0.32773   0.47979
 Alpha virt. eigenvalues --    0.54238   0.59667   0.60455   0.70229   0.72419
 Alpha virt. eigenvalues --    0.72560   0.77614   0.81613   0.83055   0.84454

 Mulliken charges:
               1
     1  O   -0.580820
     2  H    0.306954
     3  H    0.231807
     4  O   -0.468314
     5  H    0.258136
     6  H    0.252238
 Sum of Mulliken charges =  -0.00000

 Dipole moment (field-independent basis, Debye):
    X=             -1.9449    Y=             -3.9112    Z=              0.0000  Tot=              4.3681
 Quadrupole moment (field-independent basis, Debye-Ang):
   XX=             -9.3701   YY=             -9.0167   ZZ=            -14.7069
   XY=             -3.1342   XZ=              0.0000   YZ=             -0.0000

 Normal termination of Gaussian 16 at Fri Aug 26 20:30:12 2022.
