 Gaussian 16, Revision A.03,
 Gaussian 16:  ES64L-G16RevA.03 25-Dec-2016

 ------------------
 #p CCSD(T)/cc-pVTZ
 ------------------

 ------------
 H2O_H2O_4473
 ------------
 Symbolic Z-matrix:
 Charge =  0 Multiplicity = 1

                         Standard orientation:
 ---------------------------------------------------------------------
 Center     Atomic      Atomic             Coordinates (Angstroms)
 Number     Number       Type             X           Y           Z
 ---------------------------------------------------------------------
      1          8           0       -0.016581    2.878515    0.000000
      2          1           0       -0.014265    1.895917    0.000000
      3          1           0        0.912158    3.199371    0.000000
      4          8           0       -0.016581   -2.715107    0.000000
      5          1           0       -0.996925   -2.781682    0.000000
      6          1           0        0.364330   -3.620873    0.000000
 ---------------------------------------------------------------------

 SCF Done:  E(RHF) =  -152.108446662     A.U. after   10 cycles
 E2 =    -0.5257997217D+00 EUMP2 =    -0.15263424638408D+03
 CCSD(T)
 CCSD(T)= -0.15266144380D+03

 The electronic state is 1-A'.
 Alpha  occ. eigenvalues --  -20.56184 -20.55055  -1.33487  -1.32362  -0.70893
 Alpha  occ. eigenvalues --   -0.69769  -0.56980  -0.55836  -0.50606  -0.49487
 Alpha virt. eigenvalues --    0.13213   0.14914   0.19428   0.21285   0.53435
 Alpha virt. eigenvalues --    0.54924   0.56669   0.57778   0.66832   0.68672
 Alpha virt. eigenvalues --    0.78280   0.79371   0.79488   0.80717   0.82437

 Mulliken charges:
               1
     1  O   -0.514387
     2  H    0.259449
     3  H    0.254820
     4  O   -0.514894
     5  H    0.257047
     6  H    0.257964
 Sum of Mulliken charges =   0.00000

 Dipole moment (field-independent basis, Debye):
    X=              0.5702    Y=             -2.8674    Z=              0.0000  Tot=              2.9236
 Quadrupole moment (field-independent basis, Debye-Ang):
   XX=             -9.5435   YY=             -7.2247   ZZ=            -14.7148
   XY=              7.5579   XZ=              0.0000   YZ=              0.0000

 Normal termination of Gaussian 16 at Sun Aug 28 03:12:58 2022.
