 Gaussian 16, Revision A.03,
 Gaussian 16:  ES64L-G16RevA.03 25-Dec-2016

 ------------------
 #p CCSD(T)/cc-pVTZ
 ------------------

 ------------
 H2O_H2O_3112
 ------------
 Symbolic Z-matrix:
 Charge =  0 Multiplicity = 1

                         Standard orientation:
 ---------------------------------------------------------------------
 Center     Atomic      Atomic             Coordinates (Angstroms)
 Number     Number       Type             X           Y           Z
 ---------------------------------------------------------------------
      1          8           0        0.055990    2.348446   -0.000000
      2          1           0        0.054601    1.365845   -0.000000
      3          1           0       -0.873052    2.668425   -0.000000
      4          8           0        0.055990   -2.169538    0.000000
      5          1           0        0.749812   -2.865324    0.000000
      6          1           0       -0.827201   -2.600209    0.000000
 ---------------------------------------------------------------------

 SCF Done:  E(RHF) =  -152.109585686     A.U. after   10 cycles
 E2 =    -0.5259293296D+00 EUMP2 =    -0.15263551501518D+03
 CCSD(T)
 CCSD(T)= -0.15266266511D+03

 The electronic state is 1-A'.
 Alpha  occ. eigenvalues --  -20.56602 -20.54513  -1.33883  -1.31831  -0.71286
 Alpha  occ. eigenvalues --   -0.69222  -0.57416  -0.55314  -0.51010  -0.48963
 Alpha virt. eigenvalues --    0.12516   0.15823   0.19479   0.22421   0.53283
 Alpha virt. eigenvalues --    0.55325   0.56350   0.58450   0.67896   0.69344
 Alpha virt. eigenvalues --    0.77892   0.79023   0.79446   0.79869   0.83172

 Mulliken charges:
               1
     1  O   -0.517697
     2  H    0.263964
     3  H    0.251233
     4  O   -0.514041
     5  H    0.260148
     6  H    0.256394
 Sum of Mulliken charges =  -0.00000

 Dipole moment (field-independent basis, Debye):
    X=             -1.9098    Y=             -3.2128    Z=              0.0000  Tot=              3.7376
 Quadrupole moment (field-independent basis, Debye-Ang):
   XX=             -9.2872   YY=             -7.1679   ZZ=            -14.7189
   XY=             -4.4126   XZ=              0.0000   YZ=             -0.0000

 Normal termination of Gaussian 16 at Fri Aug 26 19:50:03 2022.
