 Gaussian 16, Revision A.03,
 Gaussian 16:  ES64L-G16RevA.03 25-Dec-2016

 ------------------
 #p CCSD(T)/cc-pVTZ
 ------------------

 ------------
 H2O_H2O_2307
 ------------
 Symbolic Z-matrix:
 Charge =  0 Multiplicity = 1

                         Standard orientation:
 ---------------------------------------------------------------------
 Center     Atomic      Atomic             Coordinates (Angstroms)
 Number     Number       Type             X           Y           Z
 ---------------------------------------------------------------------
      1          8           0        0.073546    2.022833    0.000000
      2          1           0        0.072696    1.040232    0.000000
      3          1           0       -0.855671    2.342303    0.000000
      4          8           0        0.073546   -1.855910   -0.000000
      5          1           0        0.507378   -2.737554   -0.000000
      6          1           0       -0.901142   -1.980367   -0.000000
 ---------------------------------------------------------------------

 SCF Done:  E(RHF) =  -152.110434834     A.U. after   10 cycles
 E2 =    -0.5262897216D+00 EUMP2 =    -0.15263672455563D+03
 CCSD(T)
 CCSD(T)= -0.15266383301D+03

 The electronic state is 1-A'.
 Alpha  occ. eigenvalues --  -20.57082 -20.54274  -1.34351  -1.31602  -0.71770
 Alpha  occ. eigenvalues --   -0.68982  -0.57921  -0.55064  -0.51476  -0.48735
 Alpha virt. eigenvalues --    0.12003   0.16359   0.19455   0.24625   0.52765
 Alpha virt. eigenvalues --    0.55800   0.56023   0.58440   0.68804   0.71532
 Alpha virt. eigenvalues --    0.77027   0.78871   0.80169   0.82124   0.83422

 Mulliken charges:
               1
     1  O   -0.520240
     2  H    0.266274
     3  H    0.247293
     4  O   -0.506772
     5  H    0.259838
     6  H    0.253607
 Sum of Mulliken charges =  -0.00000

 Dipole moment (field-independent basis, Debye):
    X=             -2.4928    Y=             -3.0818    Z=             -0.0000  Tot=              3.9638
 Quadrupole moment (field-independent basis, Debye-Ang):
   XX=             -9.8254   YY=             -8.0093   ZZ=            -14.7212
   XY=             -3.3580   XZ=             -0.0000   YZ=              0.0000

 Normal termination of Gaussian 16 at Sun Aug 28 06:11:50 2022.
