 Gaussian 16, Revision A.03,
 Gaussian 16:  ES64L-G16RevA.03 25-Dec-2016

 ------------------
 #p CCSD(T)/cc-pVTZ
 ------------------

 ------------
 H2O_H2O_1403
 ------------
 Symbolic Z-matrix:
 Charge =  0 Multiplicity = 1

                         Standard orientation:
 ---------------------------------------------------------------------
 Center     Atomic      Atomic             Coordinates (Angstroms)
 Number     Number       Type             X           Y           Z
 ---------------------------------------------------------------------
      1          8           0        0.085610   -1.654420    0.000000
      2          1           0        0.085215   -0.671819    0.000000
      3          1           0       -0.843755   -1.973460    0.000000
      4          8           0        0.085610    1.504844    0.000000
      5          1           0        0.276919    2.468642    0.000000
      6          1           0       -0.888139    1.373244    0.000000
 ---------------------------------------------------------------------

 SCF Done:  E(RHF) =  -152.110460033     A.U. after   10 cycles
 E2 =    -0.5277311866D+00 EUMP2 =    -0.15263819122001D+03
 CCSD(T)
 CCSD(T)= -0.15266523333D+03

 The electronic state is 1-A'.
 Alpha  occ. eigenvalues --  -20.58025 -20.53805  -1.35394  -1.31206  -0.73042
 Alpha  occ. eigenvalues --   -0.68586  -0.58960  -0.54534  -0.52457  -0.48313
 Alpha virt. eigenvalues --    0.11612   0.16560   0.20059   0.28621   0.49485
 Alpha virt. eigenvalues --    0.54721   0.57957   0.58174   0.68711   0.73618
 Alpha virt. eigenvalues --    0.74716   0.77387   0.81019   0.82098   0.83626

 Mulliken charges:
               1
     1  O   -0.529015
     2  H    0.276494
     3  H    0.238861
     4  O   -0.480621
     5  H    0.248063
     6  H    0.246219
 Sum of Mulliken charges =  -0.00000

 Dipole moment (field-independent basis, Debye):
    X=             -2.8544    Y=              2.9530    Z=              0.0000  Tot=              4.1071
 Quadrupole moment (field-independent basis, Debye-Ang):
   XX=            -10.4458   YY=             -8.7846   ZZ=            -14.7163
   XY=              2.5947   XZ=              0.0000   YZ=              0.0000

 Normal termination of Gaussian 16 at Sat Aug 27 00:22:19 2022.
