 Gaussian 16, Revision A.03,
 Gaussian 16:  ES64L-G16RevA.03 25-Dec-2016

 ------------------
 #p CCSD(T)/cc-pVTZ
 ------------------

 ------------
 H2O_H2O_3106
 ------------
 Symbolic Z-matrix:
 Charge =  0 Multiplicity = 1

                         Standard orientation:
 ---------------------------------------------------------------------
 Center     Atomic      Atomic             Coordinates (Angstroms)
 Number     Number       Type             X           Y           Z
 ---------------------------------------------------------------------
      1          8           0        0.076758    2.339916   -0.000000
      2          1           0        0.076150    1.357314   -0.000000
      3          1           0       -0.852537    2.659158   -0.000000
      4          8           0        0.076758   -2.176707    0.000000
      5          1           0        0.452222   -3.084746    0.000000
      6          1           0       -0.903968   -2.237392    0.000000
 ---------------------------------------------------------------------

 SCF Done:  E(RHF) =  -152.108970464     A.U. after   10 cycles
 E2 =    -0.5259808301D+00 EUMP2 =    -0.15263495129414D+03
 CCSD(T)
 CCSD(T)= -0.15266211448D+03

 The electronic state is 1-A'.
 Alpha  occ. eigenvalues --  -20.56605 -20.54744  -1.33893  -1.32056  -0.71308
 Alpha  occ. eigenvalues --   -0.69441  -0.57397  -0.55525  -0.51012  -0.49180
 Alpha virt. eigenvalues --    0.12182   0.15688   0.19412   0.22508   0.53698
 Alpha virt. eigenvalues --    0.55103   0.56356   0.58361   0.67756   0.69268
 Alpha virt. eigenvalues --    0.77888   0.78721   0.79669   0.80443   0.82913

 Mulliken charges:
               1
     1  O   -0.514535
     2  H    0.262448
     3  H    0.250022
     4  O   -0.511756
     5  H    0.259962
     6  H    0.253860
 Sum of Mulliken charges =  -0.00000

 Dipole moment (field-independent basis, Debye):
    X=             -2.6171    Y=             -2.9277    Z=             -0.0000  Tot=              3.9269
 Quadrupole moment (field-independent basis, Debye-Ang):
   XX=             -9.9557   YY=             -7.7985   ZZ=            -14.7165
   XY=             -3.3900   XZ=              0.0000   YZ=             -0.0000

 Normal termination of Gaussian 16 at Fri Aug 26 19:48:04 2022.
