 Gaussian 16, Revision A.03,
 Gaussian 16:  ES64L-G16RevA.03 25-Dec-2016

 ------------------
 #p CCSD(T)/cc-pVTZ
 ------------------

 ------------
 H2O_H2O_1741
 ------------
 Symbolic Z-matrix:
 Charge =  0 Multiplicity = 1

                         Standard orientation:
 ---------------------------------------------------------------------
 Center     Atomic      Atomic             Coordinates (Angstroms)
 Number     Number       Type             X           Y           Z
 ---------------------------------------------------------------------
      1          8           0        0.041198    1.800519   -0.000000
      2          1           0        0.038627    0.817921   -0.000000
      3          1           0       -0.887458    2.121616   -0.000000
      4          8           0        0.041198   -1.620648    0.000000
      5          1           0        0.890868   -2.114172    0.000000
      6          1           0       -0.701209   -2.264339    0.000000
 ---------------------------------------------------------------------

 SCF Done:  E(RHF) =  -152.113277759     A.U. after   10 cycles
 E2 =    -0.5267069790D+00 EUMP2 =    -0.15263998473844D+03
 CCSD(T)
 CCSD(T)= -0.15266701725D+03

 The electronic state is 1-A'.
 Alpha  occ. eigenvalues --  -20.57638 -20.53321  -1.34896  -1.30715  -0.72261
 Alpha  occ. eigenvalues --   -0.68221  -0.58670  -0.54131  -0.52035  -0.47871
 Alpha virt. eigenvalues --    0.12168   0.17355   0.19043   0.27644   0.50928
 Alpha virt. eigenvalues --    0.54597   0.56279   0.59280   0.69043   0.72342
 Alpha virt. eigenvalues --    0.75297   0.77050   0.81116   0.83252   0.84641

 Mulliken charges:
               1
     1  O   -0.535819
     2  H    0.272670
     3  H    0.248500
     4  O   -0.507773
     5  H    0.263735
     6  H    0.258688
 Sum of Mulliken charges =  -0.00000

 Dipole moment (field-independent basis, Debye):
    X=             -1.3883    Y=             -3.4502    Z=              0.0000  Tot=              3.7191
 Quadrupole moment (field-independent basis, Debye-Ang):
   XX=             -9.1523   YY=             -8.0747   ZZ=            -14.7332
   XY=             -4.0274   XZ=              0.0000   YZ=              0.0000

 Normal termination of Gaussian 16 at Sun Aug 28 01:08:43 2022.
