 Gaussian 16, Revision A.03,
 Gaussian 16:  ES64L-G16RevA.03 25-Dec-2016

 ------------------
 #p CCSD(T)/cc-pVTZ
 ------------------

 ------------
 H2O_H2O_2518
 ------------
 Symbolic Z-matrix:
 Charge =  0 Multiplicity = 1

                         Standard orientation:
 ---------------------------------------------------------------------
 Center     Atomic      Atomic             Coordinates (Angstroms)
 Number     Number       Type             X           Y           Z
 ---------------------------------------------------------------------
      1          8           0        0.033815    2.108362    0.000000
      2          1           0        0.031328    1.125764    0.000000
      3          1           0       -0.894869    2.429379    0.000000
      4          8           0        0.033815   -1.930857   -0.000000
      5          1           0        0.940666   -2.309178   -0.000000
      6          1           0       -0.618159   -2.666002   -0.000000
 ---------------------------------------------------------------------

 SCF Done:  E(RHF) =  -152.110965563     A.U. after   10 cycles
 E2 =    -0.5260708614D+00 EUMP2 =    -0.15263703642404D+03
 CCSD(T)
 CCSD(T)= -0.15266414364D+03

 The electronic state is 1-A'.
 Alpha  occ. eigenvalues --  -20.56923 -20.54159  -1.34188  -1.31492  -0.71584
 Alpha  occ. eigenvalues --   -0.68894  -0.57786  -0.54982  -0.51324  -0.48638
 Alpha virt. eigenvalues --    0.12351   0.16441   0.19304   0.24144   0.52930
 Alpha virt. eigenvalues --    0.55530   0.56416   0.58806   0.69038   0.70616
 Alpha virt. eigenvalues --    0.77395   0.78811   0.80205   0.80929   0.83680

 Mulliken charges:
               1
     1  O   -0.524198
     2  H    0.266294
     3  H    0.252011
     4  O   -0.512083
     5  H    0.260450
     6  H    0.257526
 Sum of Mulliken charges =  -0.00000

 Dipole moment (field-independent basis, Debye):
    X=             -1.1503    Y=             -3.2516    Z=             -0.0000  Tot=              3.4491
 Quadrupole moment (field-independent basis, Debye-Ang):
   XX=             -9.1862   YY=             -7.5820   ZZ=            -14.7233
   XY=             -4.8303   XZ=             -0.0000   YZ=             -0.0000

 Normal termination of Gaussian 16 at Fri Aug 26 15:19:07 2022.
