 Gaussian 16, Revision A.03,
 Gaussian 16:  ES64L-G16RevA.03 25-Dec-2016

 ------------------
 #p CCSD(T)/cc-pVTZ
 ------------------

 -----------
 H2O_H2O_440
 -----------
 Symbolic Z-matrix:
 Charge =  0 Multiplicity = 1

                         Standard orientation:
 ---------------------------------------------------------------------
 Center     Atomic      Atomic             Coordinates (Angstroms)
 Number     Number       Type             X           Y           Z
 ---------------------------------------------------------------------
      1          8           0        0.045007    1.282190    0.000000
      2          1           0        0.041582    0.299595    0.000000
      3          1           0       -0.883370    1.604094    0.000000
      4          8           0        0.045007   -1.101939    0.000000
      5          1           0        0.860103   -1.650687    0.000000
      6          1           0       -0.738426   -1.695016    0.000000
 ---------------------------------------------------------------------

 SCF Done:  E(RHF) =  -152.096020728     A.U. after   11 cycles
 E2 =    -0.5322055743D+00 EUMP2 =    -0.15262822630191D+03
 CCSD(T)
 CCSD(T)= -0.15265448803D+03

 The electronic state is 1-A'.
 Alpha  occ. eigenvalues --  -20.60472 -20.48132  -1.39213  -1.26828  -0.75609
 Alpha  occ. eigenvalues --   -0.72162  -0.58023  -0.55718  -0.48662  -0.43722
 Alpha virt. eigenvalues --    0.11151   0.17480   0.20003   0.33612   0.47235
 Alpha virt. eigenvalues --    0.53401   0.61387   0.64597   0.70161   0.72189
 Alpha virt. eigenvalues --    0.75052   0.78988   0.81040   0.82340   0.83896

 Mulliken charges:
               1
     1  O   -0.623665
     2  H    0.312742
     3  H    0.224364
     4  O   -0.421901
     5  H    0.259749
     6  H    0.248712
 Sum of Mulliken charges =  -0.00000

 Dipole moment (field-independent basis, Debye):
    X=             -1.4283    Y=             -4.4074    Z=              0.0000  Tot=              4.6331
 Quadrupole moment (field-independent basis, Debye-Ang):
   XX=             -9.1281   YY=             -9.5451   ZZ=            -14.6622
   XY=             -2.9985   XZ=              0.0000   YZ=              0.0000

 Normal termination of Gaussian 16 at Fri Aug 26 18:16:44 2022.
