 Gaussian 16, Revision A.03,
 Gaussian 16:  ES64L-G16RevA.03 25-Dec-2016

 ------------------
 #p CCSD(T)/cc-pVTZ
 ------------------

 ------------
 H2O_H2O_2658
 ------------
 Symbolic Z-matrix:
 Charge =  0 Multiplicity = 1

                         Standard orientation:
 ---------------------------------------------------------------------
 Center     Atomic      Atomic             Coordinates (Angstroms)
 Number     Number       Type             X           Y           Z
 ---------------------------------------------------------------------
      1          8           0        0.070205    2.164239    0.000000
      2          1           0        0.069276    1.181638    0.000000
      3          1           0       -0.858986    2.483783    0.000000
      4          8           0        0.070205   -1.994005   -0.000000
      5          1           0        0.560701   -2.845426   -0.000000
      6          1           0       -0.894271   -2.181866   -0.000000
 ---------------------------------------------------------------------

 SCF Done:  E(RHF) =  -152.109909121     A.U. after   10 cycles
 E2 =    -0.5260953360D+00 EUMP2 =    -0.15263600445655D+03
 CCSD(T)
 CCSD(T)= -0.15266313494D+03

 The electronic state is 1-A'.
 Alpha  occ. eigenvalues --  -20.56843 -20.54428  -1.34116  -1.31749  -0.71528
 Alpha  occ. eigenvalues --   -0.69132  -0.57659  -0.55223  -0.51242  -0.48881
 Alpha virt. eigenvalues --    0.12153   0.16112   0.19424   0.23501   0.53379
 Alpha virt. eigenvalues --    0.55523   0.56165   0.58715   0.68857   0.69886
 Alpha virt. eigenvalues --    0.77563   0.79058   0.79970   0.80368   0.83237

 Mulliken charges:
               1
     1  O   -0.518395
     2  H    0.265019
     3  H    0.248985
     4  O   -0.510018
     5  H    0.259909
     6  H    0.254500
 Sum of Mulliken charges =  -0.00000

 Dipole moment (field-independent basis, Debye):
    X=             -2.3871    Y=             -3.0982    Z=             -0.0000  Tot=              3.9112
 Quadrupole moment (field-independent basis, Debye-Ang):
   XX=             -9.6888   YY=             -7.7333   ZZ=            -14.7195
   XY=             -3.6118   XZ=             -0.0000   YZ=              0.0000

 Normal termination of Gaussian 16 at Fri Aug 26 16:21:43 2022.
