 Gaussian 16, Revision A.03,
 Gaussian 16:  ES64L-G16RevA.03 25-Dec-2016

 ------------------
 #p CCSD(T)/cc-pVTZ
 ------------------

 ------------
 H2O_H2O_2395
 ------------
 Symbolic Z-matrix:
 Charge =  0 Multiplicity = 1

                         Standard orientation:
 ---------------------------------------------------------------------
 Center     Atomic      Atomic             Coordinates (Angstroms)
 Number     Number       Type             X           Y           Z
 ---------------------------------------------------------------------
      1          8           0        0.026689    2.056169    0.000000
      2          1           0        0.023833    1.073572    0.000000
      3          1           0       -0.901873    2.377536   -0.000000
      4          8           0        0.026689   -1.882964    0.000000
      5          1           0        0.975067   -2.140038    0.000000
      6          1           0       -0.524057   -2.696710   -0.000000
 ---------------------------------------------------------------------

 SCF Done:  E(RHF) =  -152.111211401     A.U. after   10 cycles
 E2 =    -0.5261238935D+00 EUMP2 =    -0.15263733529477D+03
 CCSD(T)
 CCSD(T)= -0.15266443470D+03

 The electronic state is 1-A'.
 Alpha  occ. eigenvalues --  -20.56999 -20.54132  -1.34265  -1.31468  -0.71664
 Alpha  occ. eigenvalues --   -0.68877  -0.57877  -0.54956  -0.51401  -0.48617
 Alpha virt. eigenvalues --    0.12295   0.16554   0.19260   0.24629   0.53103
 Alpha virt. eigenvalues --    0.55393   0.56374   0.58673   0.68957   0.71201
 Alpha virt. eigenvalues --    0.77199   0.78811   0.80247   0.81782   0.83671

 Mulliken charges:
               1
     1  O   -0.525778
     2  H    0.266384
     3  H    0.252720
     4  O   -0.511550
     5  H    0.260437
     6  H    0.257788
 Sum of Mulliken charges =  -0.00000

 Dipole moment (field-independent basis, Debye):
    X=             -0.9089    Y=             -3.1882    Z=             -0.0000  Tot=              3.3152
 Quadrupole moment (field-independent basis, Debye-Ang):
   XX=             -9.2887   YY=             -7.7782   ZZ=            -14.7241
   XY=             -4.9720   XZ=              0.0000   YZ=             -0.0000

 Normal termination of Gaussian 16 at Sun Aug 28 06:53:24 2022.
