 Gaussian 16, Revision A.03,
 Gaussian 16:  ES64L-G16RevA.03 25-Dec-2016

 ------------------
 #p CCSD(T)/cc-pVTZ
 ------------------

 ------------
 H2O_H2O_3405
 ------------
 Symbolic Z-matrix:
 Charge =  0 Multiplicity = 1

                         Standard orientation:
 ---------------------------------------------------------------------
 Center     Atomic      Atomic             Coordinates (Angstroms)
 Number     Number       Type             X           Y           Z
 ---------------------------------------------------------------------
      1          8           0        0.079850    2.457328    0.000000
      2          1           0        0.079382    1.474727    0.000000
      3          1           0       -0.849491    2.776437    0.000000
      4          8           0        0.079850   -2.298263    0.000000
      5          1           0        0.395255   -3.228868    0.000000
      6          1           0       -0.902746   -2.294816    0.000000
 ---------------------------------------------------------------------

 SCF Done:  E(RHF) =  -152.108555534     A.U. after   10 cycles
 E2 =    -0.5259324895D+00 EUMP2 =    -0.15263448802371D+03
 CCSD(T)
 CCSD(T)= -0.15266166754D+03

 The electronic state is 1-A'.
 Alpha  occ. eigenvalues --  -20.56485 -20.54897  -1.33778  -1.32205  -0.71193
 Alpha  occ. eigenvalues --   -0.69594  -0.57268  -0.55671  -0.50895  -0.49326
 Alpha virt. eigenvalues --    0.12266   0.15451   0.19335   0.22136   0.53462
 Alpha virt. eigenvalues --    0.55059   0.56419   0.58134   0.67103   0.69187
 Alpha virt. eigenvalues --    0.78011   0.78641   0.79528   0.80707   0.82772

 Mulliken charges:
               1
     1  O   -0.512935
     2  H    0.261125
     3  H    0.250637
     4  O   -0.512285
     5  H    0.259865
     6  H    0.253593
 Sum of Mulliken charges =  -0.00000

 Dipole moment (field-independent basis, Debye):
    X=             -2.7268    Y=             -2.8333    Z=             -0.0000  Tot=              3.9323
 Quadrupole moment (field-independent basis, Debye-Ang):
   XX=            -10.0996   YY=             -7.8772   ZZ=            -14.7151
   XY=             -3.2531   XZ=             -0.0000   YZ=             -0.0000

 Normal termination of Gaussian 16 at Fri Aug 26 21:31:00 2022.
