 Gaussian 16, Revision A.03,
 Gaussian 16:  ES64L-G16RevA.03 25-Dec-2016

 ------------------
 #p CCSD(T)/cc-pVTZ
 ------------------

 ------------
 H2O_H2O_3976
 ------------
 Symbolic Z-matrix:
 Charge =  0 Multiplicity = 1

                         Standard orientation:
 ---------------------------------------------------------------------
 Center     Atomic      Atomic             Coordinates (Angstroms)
 Number     Number       Type             X           Y           Z
 ---------------------------------------------------------------------
      1          8           0        0.090684   -2.675626    0.000000
      2          1           0        0.090610   -1.693025    0.000000
      3          1           0       -0.838785   -2.994362    0.000000
      4          8           0        0.090684    2.536916    0.000000
      5          1           0        0.154875    3.517418    0.000000
      6          1           0       -0.857642    2.279652    0.000000
 ---------------------------------------------------------------------

 SCF Done:  E(RHF) =  -152.107803815     A.U. after   10 cycles
 E2 =    -0.5259003677D+00 EUMP2 =    -0.15263370418291D+03
 CCSD(T)
 CCSD(T)= -0.15266091112D+03

 The electronic state is 1-A'.
 Alpha  occ. eigenvalues --  -20.56320 -20.55241  -1.33620  -1.32544  -0.71038
 Alpha  occ. eigenvalues --   -0.69937  -0.57085  -0.55997  -0.50731  -0.49657
 Alpha virt. eigenvalues --    0.12303   0.15021   0.18934   0.22106   0.53133
 Alpha virt. eigenvalues --    0.54954   0.56496   0.57846   0.66765   0.68746
 Alpha virt. eigenvalues --    0.78167   0.79169   0.79213   0.81417   0.82320

 Mulliken charges:
               1
     1  O   -0.509981
     2  H    0.258254
     3  H    0.251481
     4  O   -0.510982
     5  H    0.259044
     6  H    0.252184
 Sum of Mulliken charges =  -0.00000

 Dipole moment (field-independent basis, Debye):
    X=             -3.1044    Y=              2.4464    Z=              0.0000  Tot=              3.9525
 Quadrupole moment (field-independent basis, Debye-Ang):
   XX=            -10.7025   YY=             -8.8929   ZZ=            -14.7123
   XY=              2.4001   XZ=              0.0000   YZ=              0.0000

 Normal termination of Gaussian 16 at Sat Aug 27 00:47:26 2022.
