 Gaussian 16, Revision A.03,
 Gaussian 16:  ES64L-G16RevA.03 25-Dec-2016

 ------------------
 #p CCSD(T)/cc-pVTZ
 ------------------

 ------------
 H2O_H2O_3588
 ------------
 Symbolic Z-matrix:
 Charge =  0 Multiplicity = 1

                         Standard orientation:
 ---------------------------------------------------------------------
 Center     Atomic      Atomic             Coordinates (Angstroms)
 Number     Number       Type             X           Y           Z
 ---------------------------------------------------------------------
      1          8           0        0.052288    2.538453    0.000000
      2          1           0        0.050879    1.555852    0.000000
      3          1           0       -0.876747    2.858452    0.000000
      4          8           0        0.052288   -2.358550   -0.000000
      5          1           0        0.790117   -3.007483   -0.000000
      6          1           0       -0.800856   -2.846045   -0.000000
 ---------------------------------------------------------------------

 SCF Done:  E(RHF) =  -152.109054720     A.U. after   10 cycles
 E2 =    -0.5258555520D+00 EUMP2 =    -0.15263491027211D+03
 CCSD(T)
 CCSD(T)= -0.15266208211D+03

 The electronic state is 1-A'.
 Alpha  occ. eigenvalues --  -20.56414 -20.54691  -1.33706  -1.32004  -0.71109
 Alpha  occ. eigenvalues --   -0.69400  -0.57220  -0.55484  -0.50829  -0.49133
 Alpha virt. eigenvalues --    0.12808   0.15461   0.19572   0.21686   0.53440
 Alpha virt. eigenvalues --    0.55035   0.56494   0.57984   0.66911   0.69303
 Alpha virt. eigenvalues --    0.78074   0.79109   0.79542   0.79708   0.83007

 Mulliken charges:
               1
     1  O   -0.515996
     2  H    0.262638
     3  H    0.252254
     4  O   -0.515345
     5  H    0.259691
     6  H    0.256759
 Sum of Mulliken charges =  -0.00000

 Dipole moment (field-independent basis, Debye):
    X=             -1.7877    Y=             -3.1967    Z=             -0.0000  Tot=              3.6626
 Quadrupole moment (field-independent basis, Debye-Ang):
   XX=             -9.2256   YY=             -6.8286   ZZ=            -14.7171
   XY=             -4.8336   XZ=             -0.0000   YZ=             -0.0000

 Normal termination of Gaussian 16 at Fri Aug 26 22:32:55 2022.
