 Gaussian 16, Revision A.03,
 Gaussian 16:  ES64L-G16RevA.03 25-Dec-2016

 ------------------
 #p CCSD(T)/cc-pVTZ
 ------------------

 ------------
 H2O_H2O_4328
 ------------
 Symbolic Z-matrix:
 Charge =  0 Multiplicity = 1

                         Standard orientation:
 ---------------------------------------------------------------------
 Center     Atomic      Atomic             Coordinates (Angstroms)
 Number     Number       Type             X           Y           Z
 ---------------------------------------------------------------------
      1          8           0        0.085597   -2.821151    0.000000
      2          1           0        0.085370   -1.838549    0.000000
      3          1           0       -0.843822   -3.140032    0.000000
      4          8           0        0.085597    2.671546    0.000000
      5          1           0        0.277071    3.635311    0.000000
      6          1           0       -0.888174    2.540111    0.000000
 ---------------------------------------------------------------------

 SCF Done:  E(RHF) =  -152.107892946     A.U. after   10 cycles
 E2 =    -0.5258643845D+00 EUMP2 =    -0.15263375733015D+03
 CCSD(T)
 CCSD(T)= -0.15266096481D+03

 The electronic state is 1-A'.
 Alpha  occ. eigenvalues --  -20.56237 -20.55188  -1.33538  -1.32491  -0.70951
 Alpha  occ. eigenvalues --   -0.69887  -0.57007  -0.55948  -0.50651  -0.49607
 Alpha virt. eigenvalues --    0.12842   0.14861   0.19151   0.21503   0.53252
 Alpha virt. eigenvalues --    0.54905   0.56553   0.57766   0.66821   0.68649
 Alpha virt. eigenvalues --    0.78241   0.79261   0.79419   0.81087   0.82215

 Mulliken charges:
               1
     1  O   -0.510743
     2  H    0.258608
     3  H    0.252005
     4  O   -0.511804
     5  H    0.258651
     6  H    0.253284
 Sum of Mulliken charges =  -0.00000

 Dipole moment (field-independent basis, Debye):
    X=             -2.9338    Y=              2.6293    Z=              0.0000  Tot=              3.9396
 Quadrupole moment (field-independent basis, Debye-Ang):
   XX=            -10.3977   YY=             -8.1589   ZZ=            -14.7128
   XY=              2.9235   XZ=              0.0000   YZ=              0.0000

 Normal termination of Gaussian 16 at Sun Aug 28 01:53:47 2022.
