 Gaussian 16, Revision A.03,
 Gaussian 16:  ES64L-G16RevA.03 25-Dec-2016

 ------------------
 #p CCSD(T)/cc-pVTZ
 ------------------

 ------------
 H2O_H2O_3015
 ------------
 Symbolic Z-matrix:
 Charge =  0 Multiplicity = 1

                         Standard orientation:
 ---------------------------------------------------------------------
 Center     Atomic      Atomic             Coordinates (Angstroms)
 Number     Number       Type             X           Y           Z
 ---------------------------------------------------------------------
      1          8           0        0.044861    2.309369   -0.000000
      2          1           0        0.043022    1.326769   -0.000000
      3          1           0       -0.884033    2.629775   -0.000000
      4          8           0        0.044861   -2.128972    0.000000
      5          1           0        0.860842   -2.676405    0.000000
      6          1           0       -0.737613   -2.723312    0.000000
 ---------------------------------------------------------------------

 SCF Done:  E(RHF) =  -152.109901328     A.U. after   10 cycles
 E2 =    -0.5259323403D+00 EUMP2 =    -0.15263583366824D+03
 CCSD(T)
 CCSD(T)= -0.15266297523D+03

 The electronic state is 1-A'.
 Alpha  occ. eigenvalues --  -20.56644 -20.54432  -1.33922  -1.31753  -0.71321
 Alpha  occ. eigenvalues --   -0.69148  -0.57468  -0.55241  -0.51052  -0.48889
 Alpha virt. eigenvalues --    0.12523   0.15943   0.19458   0.22663   0.53175
 Alpha virt. eigenvalues --    0.55446   0.56369   0.58542   0.68257   0.69330
 Alpha virt. eigenvalues --    0.77842   0.79143   0.79309   0.79938   0.83262

 Mulliken charges:
               1
     1  O   -0.519318
     2  H    0.264477
     3  H    0.251873
     4  O   -0.514384
     5  H    0.260102
     6  H    0.257248
 Sum of Mulliken charges =  -0.00000

 Dipole moment (field-independent basis, Debye):
    X=             -1.5297    Y=             -3.2486    Z=              0.0000  Tot=              3.5907
 Quadrupole moment (field-independent basis, Debye-Ang):
   XX=             -9.1571   YY=             -7.1733   ZZ=            -14.7200
   XY=             -4.8012   XZ=              0.0000   YZ=             -0.0000

 Normal termination of Gaussian 16 at Fri Aug 26 19:16:04 2022.
