 Gaussian 16, Revision A.03,
 Gaussian 16:  ES64L-G16RevA.03 25-Dec-2016

 ------------------
 #p CCSD(T)/cc-pVTZ
 ------------------

 ------------
 H2O_H2O_1594
 ------------
 Symbolic Z-matrix:
 Charge =  0 Multiplicity = 1

                         Standard orientation:
 ---------------------------------------------------------------------
 Center     Atomic      Atomic             Coordinates (Angstroms)
 Number     Number       Type             X           Y           Z
 ---------------------------------------------------------------------
      1          8           0        0.030267    1.738345   -0.000000
      2          1           0        0.027040    0.755749   -0.000000
      3          1           0       -0.898174    2.060062   -0.000000
      4          8           0        0.030267   -1.562791    0.000000
      5          1           0        0.959680   -1.881692    0.000000
      6          1           0       -0.572816   -2.338548    0.000000
 ---------------------------------------------------------------------

 SCF Done:  E(RHF) =  -152.113636652     A.U. after   10 cycles
 E2 =    -0.5269148620D+00 EUMP2 =    -0.15264055151387D+03
 CCSD(T)
 CCSD(T)= -0.15266756521D+03

 The electronic state is 1-A'.
 Alpha  occ. eigenvalues --  -20.57799 -20.53162  -1.35081  -1.30584  -0.72457
 Alpha  occ. eigenvalues --   -0.68152  -0.58893  -0.53960  -0.52213  -0.47741
 Alpha virt. eigenvalues --    0.12160   0.17565   0.18989   0.28456   0.50790
 Alpha virt. eigenvalues --    0.54304   0.56026   0.59899   0.68946   0.72726
 Alpha virt. eigenvalues --    0.74670   0.77148   0.81311   0.83102   0.84581

 Mulliken charges:
               1
     1  O   -0.540910
     2  H    0.274680
     3  H    0.249937
     4  O   -0.506425
     5  H    0.264199
     6  H    0.258520
 Sum of Mulliken charges =  -0.00000

 Dipole moment (field-independent basis, Debye):
    X=             -1.0203    Y=             -3.4115    Z=              0.0000  Tot=              3.5608
 Quadrupole moment (field-independent basis, Debye-Ang):
   XX=             -9.2304   YY=             -8.2526   ZZ=            -14.7340
   XY=             -4.1476   XZ=              0.0000   YZ=             -0.0000

 Normal termination of Gaussian 16 at Sat Aug 27 23:37:40 2022.
