 Gaussian 16, Revision A.03,
 Gaussian 16:  ES64L-G16RevA.03 25-Dec-2016

 ------------------
 #p CCSD(T)/cc-pVTZ
 ------------------

 ------------
 H2O_H2O_4671
 ------------
 Symbolic Z-matrix:
 Charge =  0 Multiplicity = 1

                         Standard orientation:
 ---------------------------------------------------------------------
 Center     Atomic      Atomic             Coordinates (Angstroms)
 Number     Number       Type             X           Y           Z
 ---------------------------------------------------------------------
      1          8           0       -0.023161    2.962094    0.000000
      2          1           0       -0.021104    1.979495    0.000000
      3          1           0        0.905663    3.282706    0.000000
      4          8           0       -0.023161   -2.791681    0.000000
      5          1           0       -0.986479   -2.985395    0.000000
      6          1           0        0.472496   -3.640110    0.000000
 ---------------------------------------------------------------------

 SCF Done:  E(RHF) =  -152.108388281     A.U. after   10 cycles
 E2 =    -0.5257987206D+00 EUMP2 =    -0.15263418700145D+03
 CCSD(T)
 CCSD(T)= -0.15266138626D+03

 The electronic state is 1-A'.
 Alpha  occ. eigenvalues --  -20.56151 -20.55041  -1.33454  -1.32348  -0.70859
 Alpha  occ. eigenvalues --   -0.69753  -0.56945  -0.55820  -0.50573  -0.49471
 Alpha virt. eigenvalues --    0.13387   0.14846   0.19601   0.21063   0.53587
 Alpha virt. eigenvalues --    0.54851   0.56694   0.57769   0.66929   0.68594
 Alpha virt. eigenvalues --    0.78311   0.79387   0.79614   0.80575   0.82357

 Mulliken charges:
               1
     1  O   -0.514066
     2  H    0.259530
     3  H    0.254463
     4  O   -0.514611
     5  H    0.257230
     6  H    0.257454
 Sum of Mulliken charges =  -0.00000

 Dipole moment (field-independent basis, Debye):
    X=              0.7956    Y=             -2.9862    Z=              0.0000  Tot=              3.0904
 Quadrupole moment (field-independent basis, Debye-Ang):
   XX=             -9.3624   YY=             -6.7030   ZZ=            -14.7147
   XY=              7.2865   XZ=              0.0000   YZ=              0.0000

 Normal termination of Gaussian 16 at Sun Aug 28 04:53:18 2022.
