 Gaussian 16, Revision A.03,
 Gaussian 16:  ES64L-G16RevA.03 25-Dec-2016

 ------------------
 #p CCSD(T)/cc-pVTZ
 ------------------

 ------------
 H2O_H2O_4481
 ------------
 Symbolic Z-matrix:
 Charge =  0 Multiplicity = 1

                         Standard orientation:
 ---------------------------------------------------------------------
 Center     Atomic      Atomic             Coordinates (Angstroms)
 Number     Number       Type             X           Y           Z
 ---------------------------------------------------------------------
      1          8           0        0.076748    2.888381   -0.000000
      2          1           0        0.076259    1.905780   -0.000000
      3          1           0       -0.852586    3.207511   -0.000000
      4          8           0        0.076748   -2.725155    0.000000
      5          1           0        0.452322   -3.633147    0.000000
      6          1           0       -0.903970   -2.785958    0.000000
 ---------------------------------------------------------------------

 SCF Done:  E(RHF) =  -152.108061659     A.U. after   10 cycles
 E2 =    -0.5258417025D+00 EUMP2 =    -0.15263390336188D+03
 CCSD(T)
 CCSD(T)= -0.15266110784D+03

 The electronic state is 1-A'.
 Alpha  occ. eigenvalues --  -20.56201 -20.55093  -1.33502  -1.32398  -0.70912
 Alpha  occ. eigenvalues --   -0.69796  -0.56979  -0.55859  -0.50617  -0.49516
 Alpha virt. eigenvalues --    0.13158   0.14837   0.19434   0.21166   0.53437
 Alpha virt. eigenvalues --    0.54872   0.56607   0.57754   0.66864   0.68654
 Alpha virt. eigenvalues --    0.78272   0.79347   0.79468   0.80701   0.82404

 Mulliken charges:
               1
     1  O   -0.511773
     2  H    0.259330
     3  H    0.252334
     4  O   -0.512764
     5  H    0.258534
     6  H    0.254338
 Sum of Mulliken charges =  -0.00000

 Dipole moment (field-independent basis, Debye):
    X=             -2.6317    Y=             -2.8654    Z=              0.0000  Tot=              3.8905
 Quadrupole moment (field-independent basis, Debye-Ang):
   XX=             -9.9481   YY=             -7.2526   ZZ=            -14.7135
   XY=             -3.7021   XZ=              0.0000   YZ=             -0.0000

 Normal termination of Gaussian 16 at Sun Aug 28 03:15:54 2022.
