 Gaussian 16, Revision A.03,
 Gaussian 16:  ES64L-G16RevA.03 25-Dec-2016

 ------------------
 #p CCSD(T)/cc-pVTZ
 ------------------

 ------------
 H2O_H2O_2013
 ------------
 Symbolic Z-matrix:
 Charge =  0 Multiplicity = 1

                         Standard orientation:
 ---------------------------------------------------------------------
 Center     Atomic      Atomic             Coordinates (Angstroms)
 Number     Number       Type             X           Y           Z
 ---------------------------------------------------------------------
      1          8           0        0.052332    1.910196    0.000000
      2          1           0        0.050437    0.927597    0.000000
      3          1           0       -0.876544    2.230655   -0.000000
      4          8           0        0.052332   -1.730345    0.000000
      5          1           0        0.789840   -2.379643    0.000000
      6          1           0       -0.801052   -2.217418   -0.000000
 ---------------------------------------------------------------------

 SCF Done:  E(RHF) =  -152.112190383     A.U. after   10 cycles
 E2 =    -0.5264255846D+00 EUMP2 =    -0.15263861596796D+03
 CCSD(T)
 CCSD(T)= -0.15266568188D+03

 The electronic state is 1-A'.
 Alpha  occ. eigenvalues --  -20.57351 -20.53700  -1.34603  -1.31059  -0.71986
 Alpha  occ. eigenvalues --   -0.68484  -0.58288  -0.54515  -0.51741  -0.48209
 Alpha virt. eigenvalues --    0.12189   0.16941   0.19192   0.26159   0.51529
 Alpha virt. eigenvalues --    0.55161   0.56352   0.58968   0.69032   0.72309
 Alpha virt. eigenvalues --    0.76281   0.77609   0.80712   0.83428   0.84196

 Mulliken charges:
               1
     1  O   -0.528622
     2  H    0.269446
     3  H    0.248107
     4  O   -0.507649
     5  H    0.262004
     6  H    0.256714
 Sum of Mulliken charges =  -0.00000

 Dipole moment (field-independent basis, Debye):
    X=             -1.7691    Y=             -3.3822    Z=             -0.0000  Tot=              3.8169
 Quadrupole moment (field-independent basis, Debye-Ang):
   XX=             -9.2315   YY=             -7.8680   ZZ=            -14.7284
   XY=             -3.9452   XZ=              0.0000   YZ=             -0.0000

 Normal termination of Gaussian 16 at Sun Aug 28 03:37:50 2022.
