 Gaussian 16, Revision A.03,
 Gaussian 16:  ES64L-G16RevA.03 25-Dec-2016

 ------------------
 #p CCSD(T)/cc-pVTZ
 ------------------

 ------------
 H2O_H2O_1856
 ------------
 Symbolic Z-matrix:
 Charge =  0 Multiplicity = 1

                         Standard orientation:
 ---------------------------------------------------------------------
 Center     Atomic      Atomic             Coordinates (Angstroms)
 Number     Number       Type             X           Y           Z
 ---------------------------------------------------------------------
      1          8           0        0.076773    1.841306    0.000000
      2          1           0        0.075992    0.858705    0.000000
      3          1           0       -0.852467    2.160711   -0.000000
      4          8           0        0.076773   -1.678124    0.000000
      5          1           0        0.452077   -2.586229    0.000000
      6          1           0       -0.903964   -1.738638   -0.000000
 ---------------------------------------------------------------------

 SCF Done:  E(RHF) =  -152.111203305     A.U. after   10 cycles
 E2 =    -0.5267255144D+00 EUMP2 =    -0.15263792881968D+03
 CCSD(T)
 CCSD(T)= -0.15266500301D+03

 The electronic state is 1-A'.
 Alpha  occ. eigenvalues --  -20.57486 -20.53978  -1.34763  -1.31330  -0.72210
 Alpha  occ. eigenvalues --   -0.68724  -0.58388  -0.54753  -0.51880  -0.48462
 Alpha virt. eigenvalues --    0.11857   0.16627   0.19566   0.26486   0.51033
 Alpha virt. eigenvalues --    0.55537   0.56482   0.58227   0.69081   0.73342
 Alpha virt. eigenvalues --    0.75684   0.78103   0.80587   0.83171   0.83662

 Mulliken charges:
               1
     1  O   -0.524113
     2  H    0.269293
     3  H    0.244338
     4  O   -0.501889
     5  H    0.259683
     6  H    0.252687
 Sum of Mulliken charges =  -0.00000

 Dipole moment (field-independent basis, Debye):
    X=             -2.5867    Y=             -3.0924    Z=             -0.0000  Tot=              4.0316
 Quadrupole moment (field-independent basis, Debye-Ang):
   XX=             -9.9760   YY=             -8.3168   ZZ=            -14.7242
   XY=             -3.1023   XZ=             -0.0000   YZ=             -0.0000

 Normal termination of Gaussian 16 at Sun Aug 28 02:14:32 2022.
