 Gaussian 16, Revision A.03,
 Gaussian 16:  ES64L-G16RevA.03 25-Dec-2016

 ------------------
 #p CCSD(T)/cc-pVTZ
 ------------------

 ------------
 H2O_H2O_4159
 ------------
 Symbolic Z-matrix:
 Charge =  0 Multiplicity = 1

                         Standard orientation:
 ---------------------------------------------------------------------
 Center     Atomic      Atomic             Coordinates (Angstroms)
 Number     Number       Type             X           Y           Z
 ---------------------------------------------------------------------
      1          8           0        0.066747    2.764123    0.000000
      2          1           0        0.065917    1.781522    0.000000
      3          1           0       -0.862476    3.083575   -0.000000
      4          8           0        0.066747   -2.590999    0.000000
      5          1           0        0.611961   -3.408463    0.000000
      6          1           0       -0.883352   -2.841633   -0.000000
 ---------------------------------------------------------------------

 SCF Done:  E(RHF) =  -152.108391056     A.U. after   10 cycles
 E2 =    -0.5258360760D+00 EUMP2 =    -0.15263422713228D+03
 CCSD(T)
 CCSD(T)= -0.15266142175D+03

 The electronic state is 1-A'.
 Alpha  occ. eigenvalues --  -20.56261 -20.54936  -1.33561  -1.32244  -0.70968
 Alpha  occ. eigenvalues --   -0.69641  -0.57051  -0.55712  -0.50678  -0.49366
 Alpha virt. eigenvalues --    0.13074   0.15049   0.19551   0.21245   0.53453
 Alpha virt. eigenvalues --    0.54929   0.56580   0.57821   0.66712   0.68937
 Alpha virt. eigenvalues --    0.78214   0.79249   0.79490   0.80283   0.82744

 Mulliken charges:
               1
     1  O   -0.513267
     2  H    0.260694
     3  H    0.252283
     4  O   -0.514121
     5  H    0.259065
     6  H    0.255345
 Sum of Mulliken charges =  -0.00000

 Dipole moment (field-independent basis, Debye):
    X=             -2.2866    Y=             -3.0496    Z=             -0.0000  Tot=              3.8116
 Quadrupole moment (field-independent basis, Debye-Ang):
   XX=             -9.5607   YY=             -6.8291   ZZ=            -14.7147
   XY=             -4.3094   XZ=             -0.0000   YZ=             -0.0000

 Normal termination of Gaussian 16 at Sun Aug 28 00:18:32 2022.
