 Gaussian 16, Revision A.03,
 Gaussian 16:  ES64L-G16RevA.03 25-Dec-2016

 ------------------
 #p CCSD(T)/cc-pVTZ
 ------------------

 ------------
 H2O_H2O_4804
 ------------
 Symbolic Z-matrix:
 Charge =  0 Multiplicity = 1

                         Standard orientation:
 ---------------------------------------------------------------------
 Center     Atomic      Atomic             Coordinates (Angstroms)
 Number     Number       Type             X           Y           Z
 ---------------------------------------------------------------------
      1          8           0        0.082797    3.013294   -0.000000
      2          1           0        0.082503    2.030692   -0.000000
      3          1           0       -0.846601    3.332238   -0.000000
      4          8           0        0.082797   -2.858762    0.000000
      5          1           0        0.336829   -3.807957    0.000000
      6          1           0       -0.897481   -2.791231    0.000000
 ---------------------------------------------------------------------

 SCF Done:  E(RHF) =  -152.107850706     A.U. after   10 cycles
 E2 =    -0.5258468767D+00 EUMP2 =    -0.15263369758286D+03
 CCSD(T)
 CCSD(T)= -0.15266090808D+03

 The electronic state is 1-A'.
 Alpha  occ. eigenvalues --  -20.56151 -20.55213  -1.33453  -1.32516  -0.70864
 Alpha  occ. eigenvalues --   -0.69914  -0.56921  -0.55973  -0.50567  -0.49631
 Alpha virt. eigenvalues --    0.13263   0.14663   0.19366   0.21076   0.53503
 Alpha virt. eigenvalues --    0.54766   0.56635   0.57657   0.67038   0.68418
 Alpha virt. eigenvalues --    0.78320   0.79237   0.79685   0.80831   0.81871

 Mulliken charges:
               1
     1  O   -0.510814
     2  H    0.258252
     3  H    0.252525
     4  O   -0.511699
     5  H    0.257972
     6  H    0.253764
 Sum of Mulliken charges =  -0.00000

 Dipole moment (field-independent basis, Debye):
    X=             -2.8414    Y=             -2.7058    Z=              0.0000  Tot=              3.9237
 Quadrupole moment (field-independent basis, Debye-Ang):
   XX=            -10.2434   YY=             -7.7117   ZZ=            -14.7128
   XY=             -3.2440   XZ=              0.0000   YZ=             -0.0000

 Normal termination of Gaussian 16 at Sun Aug 28 06:00:00 2022.
