 Gaussian 16, Revision A.03,
 Gaussian 16:  ES64L-G16RevA.03 25-Dec-2016

 ------------------
 #p CCSD(T)/cc-pVTZ
 ------------------

 ------------
 H2O_H2O_4963
 ------------
 Symbolic Z-matrix:
 Charge =  0 Multiplicity = 1

                         Standard orientation:
 ---------------------------------------------------------------------
 Center     Atomic      Atomic             Coordinates (Angstroms)
 Number     Number       Type             X           Y           Z
 ---------------------------------------------------------------------
      1          8           0        0.052264    3.086923   -0.000000
      2          1           0        0.051113    2.104322   -0.000000
      3          1           0       -0.876855    3.406678    0.000000
      4          8           0        0.052264   -2.906992   -0.000000
      5          1           0        0.790263   -3.555731   -0.000000
      6          1           0       -0.800752   -3.394711    0.000000
 ---------------------------------------------------------------------

 SCF Done:  E(RHF) =  -152.108199464     A.U. after   10 cycles
 E2 =    -0.5258112301D+00 EUMP2 =    -0.15263401069369D+03
 CCSD(T)
 CCSD(T)= -0.15266121424D+03

 The electronic state is 1-A'.
 Alpha  occ. eigenvalues --  -20.56114 -20.55039  -1.33416  -1.32345  -0.70821
 Alpha  occ. eigenvalues --   -0.69747  -0.56900  -0.55812  -0.50533  -0.49466
 Alpha virt. eigenvalues --    0.13537   0.14755   0.19740   0.20881   0.53728
 Alpha virt. eigenvalues --    0.54796   0.56717   0.57756   0.67078   0.68498
 Alpha virt. eigenvalues --    0.78350   0.79395   0.79756   0.80526   0.82190

 Mulliken charges:
               1
     1  O   -0.512896
     2  H    0.259483
     3  H    0.253379
     4  O   -0.513558
     5  H    0.257716
     6  H    0.255875
 Sum of Mulliken charges =  -0.00000

 Dipole moment (field-independent basis, Debye):
    X=             -1.7943    Y=             -3.1478    Z=              0.0000  Tot=              3.6233
 Quadrupole moment (field-independent basis, Debye-Ang):
   XX=             -9.2249   YY=             -5.9448   ZZ=            -14.7141
   XY=             -5.6065   XZ=              0.0000   YZ=              0.0000

 06811\MP4DQ=-152.6431355\MP4SDQ=-152.6461836\CCSD=-152.645599\CCSD(T)=
 Normal termination of Gaussian 16 at Sun Aug 28 07:16:01 2022.
