 Gaussian 16, Revision A.03,
 Gaussian 16:  ES64L-G16RevA.03 25-Dec-2016

 ------------------
 #p CCSD(T)/cc-pVTZ
 ------------------

 ------------
 H2O_H2O_4139
 ------------
 Symbolic Z-matrix:
 Charge =  0 Multiplicity = 1

                         Standard orientation:
 ---------------------------------------------------------------------
 Center     Atomic      Atomic             Coordinates (Angstroms)
 Number     Number       Type             X           Y           Z
 ---------------------------------------------------------------------
      1          8           0        0.048560    2.758112   -0.000000
      2          1           0        0.047148    1.775512   -0.000000
      3          1           0       -0.880475    3.078114   -0.000000
      4          8           0        0.048560   -2.577699    0.000000
      5          1           0        0.827250   -3.176988    0.000000
      6          1           0       -0.770876   -3.119946    0.000000
 ---------------------------------------------------------------------

 SCF Done:  E(RHF) =  -152.108629766     A.U. after   10 cycles
 E2 =    -0.5258164795D+00 EUMP2 =    -0.15263444624522D+03
 CCSD(T)
 CCSD(T)= -0.15266163567D+03

 The electronic state is 1-A'.
 Alpha  occ. eigenvalues --  -20.56259 -20.54853  -1.33558  -1.32163  -0.70962
 Alpha  occ. eigenvalues --   -0.69562  -0.57059  -0.55637  -0.50678  -0.49288
 Alpha virt. eigenvalues --    0.13170   0.15116   0.19659   0.21224   0.53590
 Alpha virt. eigenvalues --    0.54888   0.56608   0.57819   0.66690   0.69009
 Alpha virt. eigenvalues --    0.78213   0.79563   0.79593   0.79715   0.82840

 Mulliken charges:
               1
     1  O   -0.514663
     2  H    0.261327
     3  H    0.253001
     4  O   -0.515268
     5  H    0.258860
     6  H    0.256744
 Sum of Mulliken charges =   0.00000

 Dipole moment (field-independent basis, Debye):
    X=             -1.6636    Y=             -3.1791    Z=              0.0000  Tot=              3.5880
 Quadrupole moment (field-independent basis, Debye-Ang):
   XX=             -9.1821   YY=             -6.4516   ZZ=            -14.7156
   XY=             -5.3464   XZ=              0.0000   YZ=             -0.0000

 Normal termination of Gaussian 16 at Sun Aug 28 00:04:06 2022.
