 Gaussian 16, Revision A.03,
 Gaussian 16:  ES64L-G16RevA.03 25-Dec-2016

 ------------------
 #p CCSD(T)/cc-pVTZ
 ------------------

 ------------
 H2O_H2O_3391
 ------------
 Symbolic Z-matrix:
 Charge =  0 Multiplicity = 1

                         Standard orientation:
 ---------------------------------------------------------------------
 Center     Atomic      Atomic             Coordinates (Angstroms)
 Number     Number       Type             X           Y           Z
 ---------------------------------------------------------------------
      1          8           0        0.041133    2.458695   -0.000000
      2          1           0        0.039276    1.476095   -0.000000
      3          1           0       -0.887756    2.779117   -0.000000
      4          8           0        0.041133   -2.278763    0.000000
      5          1           0        0.891161   -2.771671    0.000000
      6          1           0       -0.700806   -2.922994    0.000000
 ---------------------------------------------------------------------

 SCF Done:  E(RHF) =  -152.109383989     A.U. after   10 cycles
 E2 =    -0.5258660004D+00 EUMP2 =    -0.15263524998952D+03
 CCSD(T)
 CCSD(T)= -0.15266241123D+03

 The electronic state is 1-A'.
 Alpha  occ. eigenvalues --  -20.56480 -20.54605  -1.33767  -1.31921  -0.71169
 Alpha  occ. eigenvalues --   -0.69319  -0.57295  -0.55406  -0.50894  -0.49053
 Alpha virt. eigenvalues --    0.12709   0.15629   0.19530   0.21982   0.53364
 Alpha virt. eigenvalues --    0.55190   0.56474   0.58108   0.67226   0.69351
 Alpha virt. eigenvalues --    0.78011   0.79007   0.79508   0.79781   0.83092

 Mulliken charges:
               1
     1  O   -0.517516
     2  H    0.263202
     3  H    0.252715
     4  O   -0.515647
     5  H    0.259643
     6  H    0.257603
 Sum of Mulliken charges =  -0.00000

 Dipole moment (field-independent basis, Debye):
    X=             -1.4054    Y=             -3.2097    Z=              0.0000  Tot=              3.5039
 Quadrupole moment (field-independent basis, Debye-Ang):
   XX=             -9.1491   YY=             -6.9497   ZZ=            -14.7183
   XY=             -5.2143   XZ=              0.0000   YZ=              0.0000

 Normal termination of Gaussian 16 at Fri Aug 26 21:26:25 2022.
