 Gaussian 16, Revision A.03,
 Gaussian 16:  ES64L-G16RevA.03 25-Dec-2016

 ------------------
 #p CCSD(T)/cc-pVTZ
 ------------------

 ------------
 H2O_H2O_1184
 ------------
 Symbolic Z-matrix:
 Charge =  0 Multiplicity = 1

                         Standard orientation:
 ---------------------------------------------------------------------
 Center     Atomic      Atomic             Coordinates (Angstroms)
 Number     Number       Type             X           Y           Z
 ---------------------------------------------------------------------
      1          8           0        0.066805    1.577419   -0.000000
      2          1           0        0.065314    0.594819   -0.000000
      3          1           0       -0.862203    1.897496   -0.000000
      4          8           0        0.066805   -1.404384    0.000000
      5          1           0        0.611470   -2.222216    0.000000
      6          1           0       -0.883462   -1.654380    0.000000
 ---------------------------------------------------------------------

 SCF Done:  E(RHF) =  -152.112909295     A.U. after   10 cycles
 E2 =    -0.5281134783D+00 EUMP2 =    -0.15264102277296D+03
 CCSD(T)
 CCSD(T)= -0.15266795563D+03

 The electronic state is 1-A'.
 Alpha  occ. eigenvalues --  -20.58456 -20.52492  -1.35858  -1.30034  -0.73242
 Alpha  occ. eigenvalues --   -0.68046  -0.59481  -0.53223  -0.52935  -0.47151
 Alpha virt. eigenvalues --    0.11779   0.17294   0.19387   0.30635   0.48632
 Alpha virt. eigenvalues --    0.54828   0.57666   0.59249   0.69813   0.73134
 Alpha virt. eigenvalues --    0.73206   0.76591   0.82008   0.82415   0.84513

 Mulliken charges:
               1
     1  O   -0.549194
     2  H    0.288192
     3  H    0.238473
     4  O   -0.488321
     5  H    0.257037
     6  H    0.253813
 Sum of Mulliken charges =  -0.00000

 Dipole moment (field-independent basis, Debye):
    X=             -2.2160    Y=             -3.5286    Z=              0.0000  Tot=              4.1668
 Quadrupole moment (field-independent basis, Debye-Ang):
   XX=             -9.5850   YY=             -8.6061   ZZ=            -14.7262
   XY=             -3.2069   XZ=              0.0000   YZ=             -0.0000

 Normal termination of Gaussian 16 at Fri Aug 26 22:57:57 2022.
