 Gaussian 16, Revision A.03,
 Gaussian 16:  ES64L-G16RevA.03 25-Dec-2016

 ------------------
 #p CCSD(T)/cc-pVTZ
 ------------------

 ------------
 H2O_H2O_1811
 ------------
 Symbolic Z-matrix:
 Charge =  0 Multiplicity = 1

                         Standard orientation:
 ---------------------------------------------------------------------
 Center     Atomic      Atomic             Coordinates (Angstroms)
 Number     Number       Type             X           Y           Z
 ---------------------------------------------------------------------
      1          8           0        0.059675    1.829088   -0.000000
      2          1           0        0.058050    0.846488   -0.000000
      3          1           0       -0.869290    2.149291   -0.000000
      4          8           0        0.059675   -1.651689    0.000000
      5          1           0        0.706327   -2.391518    0.000000
      6          1           0       -0.849883   -2.023457    0.000000
 ---------------------------------------------------------------------

 SCF Done:  E(RHF) =  -152.112537417     A.U. after   10 cycles
 E2 =    -0.5266772823D+00 EUMP2 =    -0.15263921469902D+03
 CCSD(T)
 CCSD(T)= -0.15266626299D+03

 The electronic state is 1-A'.
 Alpha  occ. eigenvalues --  -20.57561 -20.53534  -1.34819  -1.30910  -0.72204
 Alpha  occ. eigenvalues --   -0.68367  -0.58536  -0.54334  -0.51953  -0.48056
 Alpha virt. eigenvalues --    0.12073   0.17050   0.19207   0.27096   0.50776
 Alpha virt. eigenvalues --    0.55142   0.56296   0.58900   0.69124   0.72546
 Alpha virt. eigenvalues --    0.75570   0.77298   0.80929   0.83264   0.84291

 Mulliken charges:
               1
     1  O   -0.530499
     2  H    0.271344
     3  H    0.246034
     4  O   -0.505824
     5  H    0.262709
     6  H    0.256237
 Sum of Mulliken charges =  -0.00000

 Dipole moment (field-independent basis, Debye):
    X=             -2.0109    Y=             -3.3812    Z=              0.0000  Tot=              3.9340
 Quadrupole moment (field-independent basis, Debye-Ang):
   XX=             -9.3747   YY=             -8.0603   ZZ=            -14.7301
   XY=             -3.6516   XZ=              0.0000   YZ=             -0.0000

 Normal termination of Gaussian 16 at Sun Aug 28 01:51:15 2022.
