 Gaussian 16, Revision A.03,
 Gaussian 16:  ES64L-G16RevA.03 25-Dec-2016

 ------------------
 #p CCSD(T)/cc-pVTZ
 ------------------

 ------------
 H2O_H2O_4638
 ------------
 Symbolic Z-matrix:
 Charge =  0 Multiplicity = 1

                         Standard orientation:
 ---------------------------------------------------------------------
 Center     Atomic      Atomic             Coordinates (Angstroms)
 Number     Number       Type             X           Y           Z
 ---------------------------------------------------------------------
      1          8           0        0.052269    2.957285    0.000000
      2          1           0        0.051066    1.974684    0.000000
      3          1           0       -0.876833    3.277089    0.000000
      4          8           0        0.052269   -2.777360   -0.000000
      5          1           0        0.790234   -3.426138   -0.000000
      6          1           0       -0.800772   -3.265034   -0.000000
 ---------------------------------------------------------------------

 SCF Done:  E(RHF) =  -152.108325727     A.U. after   10 cycles
 E2 =    -0.5258109141D+00 EUMP2 =    -0.15263413664126D+03
 CCSD(T)
 CCSD(T)= -0.15266133637D+03

 The electronic state is 1-A'.
 Alpha  occ. eigenvalues --  -20.56163 -20.54977  -1.33464  -1.32284  -0.70869
 Alpha  occ. eigenvalues --   -0.69684  -0.56954  -0.55753  -0.50583  -0.49406
 Alpha virt. eigenvalues --    0.13420   0.14870   0.19708   0.20986   0.53677
 Alpha virt. eigenvalues --    0.54834   0.56678   0.57786   0.66910   0.68673
 Alpha virt. eigenvalues --    0.78303   0.79452   0.79695   0.80268   0.82565

 Mulliken charges:
               1
     1  O   -0.513428
     2  H    0.260145
     3  H    0.253195
     4  O   -0.514187
     5  H    0.258167
     6  H    0.256109
 Sum of Mulliken charges =  -0.00000

 Dipole moment (field-independent basis, Debye):
    X=             -1.7931    Y=             -3.1549    Z=             -0.0000  Tot=              3.6289
 Quadrupole moment (field-independent basis, Debye-Ang):
   XX=             -9.2250   YY=             -6.1565   ZZ=            -14.7145
   XY=             -5.4239   XZ=             -0.0000   YZ=              0.0000

 Normal termination of Gaussian 16 at Sun Aug 28 04:33:22 2022.
