 Gaussian 16, Revision A.03,
 Gaussian 16:  ES64L-G16RevA.03 25-Dec-2016

 ------------------
 #p CCSD(T)/cc-pVTZ
 ------------------

 ------------
 H2O_H2O_2453
 ------------
 Symbolic Z-matrix:
 Charge =  0 Multiplicity = 1

                         Standard orientation:
 ---------------------------------------------------------------------
 Center     Atomic      Atomic             Coordinates (Angstroms)
 Number     Number       Type             X           Y           Z
 ---------------------------------------------------------------------
      1          8           0        0.085604   -2.073248    0.000000
      2          1           0        0.085292   -1.090647    0.000000
      3          1           0       -0.843788   -2.392210    0.000000
      4          8           0        0.085604    1.923658    0.000000
      5          1           0        0.276994    2.887440    0.000000
      6          1           0       -0.888156    1.792140    0.000000
 ---------------------------------------------------------------------

 SCF Done:  E(RHF) =  -152.109255264     A.U. after   10 cycles
 E2 =    -0.5262731153D+00 EUMP2 =    -0.15263552837959D+03
 CCSD(T)
 CCSD(T)= -0.15266266752D+03

 The electronic state is 1-A'.
 Alpha  occ. eigenvalues --  -20.56962 -20.54704  -1.34245  -1.32017  -0.71689
 Alpha  occ. eigenvalues --   -0.69383  -0.57755  -0.55470  -0.51358  -0.49138
 Alpha virt. eigenvalues --    0.11715   0.16021   0.19665   0.24089   0.53495
 Alpha virt. eigenvalues --    0.55559   0.56461   0.57994   0.68610   0.71040
 Alpha virt. eigenvalues --    0.77277   0.79301   0.79783   0.80509   0.83195

 Mulliken charges:
               1
     1  O   -0.515389
     2  H    0.264002
     3  H    0.247245
     4  O   -0.505666
     5  H    0.259245
     6  H    0.250563
 Sum of Mulliken charges =  -0.00000

 Dipole moment (field-independent basis, Debye):
    X=             -2.9029    Y=              2.7369    Z=              0.0000  Tot=              3.9897
 Quadrupole moment (field-independent basis, Debye-Ang):
   XX=            -10.4185   YY=             -8.5268   ZZ=            -14.7167
   XY=              2.7240   XZ=              0.0000   YZ=              0.0000

 Normal termination of Gaussian 16 at Sun Aug 28 07:25:49 2022.
