 Gaussian 16, Revision A.03,
 Gaussian 16:  ES64L-G16RevA.03 25-Dec-2016

 ------------------
 #p CCSD(T)/cc-pVTZ
 ------------------

 ------------
 H2O_H2O_3508
 ------------
 Symbolic Z-matrix:
 Charge =  0 Multiplicity = 1

                         Standard orientation:
 ---------------------------------------------------------------------
 Center     Atomic      Atomic             Coordinates (Angstroms)
 Number     Number       Type             X           Y           Z
 ---------------------------------------------------------------------
      1          8           0        0.070194    2.503293    0.000000
      2          1           0        0.069395    1.520692    0.000000
      3          1           0       -0.859040    2.822715    0.000000
      4          8           0        0.070194   -2.333041    0.000000
      5          1           0        0.560803   -3.184397    0.000000
      6          1           0       -0.894257   -2.521030    0.000000
 ---------------------------------------------------------------------

 SCF Done:  E(RHF) =  -152.108786222     A.U. after   10 cycles
 E2 =    -0.5258935935D+00 EUMP2 =    -0.15263467981568D+03
 CCSD(T)
 CCSD(T)= -0.15266185582D+03

 The electronic state is 1-A'.
 Alpha  occ. eigenvalues --  -20.56446 -20.54788  -1.33739  -1.32099  -0.71148
 Alpha  occ. eigenvalues --   -0.69491  -0.57240  -0.55571  -0.50858  -0.49223
 Alpha virt. eigenvalues --    0.12564   0.15444   0.19451   0.21839   0.53375
 Alpha virt. eigenvalues --    0.55084   0.56439   0.58075   0.66979   0.69258
 Alpha virt. eigenvalues --    0.78046   0.78755   0.79624   0.80207   0.82898

 Mulliken charges:
               1
     1  O   -0.514279
     2  H    0.261914
     3  H    0.251225
     4  O   -0.513773
     5  H    0.259892
     6  H    0.255020
 Sum of Mulliken charges =  -0.00000

 Dipole moment (field-independent basis, Debye):
    X=             -2.3986    Y=             -3.0284    Z=              0.0000  Tot=              3.8632
 Quadrupole moment (field-independent basis, Debye-Ang):
   XX=             -9.6824   YY=             -7.3098   ZZ=            -14.7161
   XY=             -3.8813   XZ=             -0.0000   YZ=              0.0000

 CCSD(T)=-152.6618558\RMSD=7.092e-09\PG=CS [SG(H4O2)]\\@
 Normal termination of Gaussian 16 at Fri Aug 26 22:06:19 2022.
