 Gaussian 16, Revision A.03,
 Gaussian 16:  ES64L-G16RevA.03 25-Dec-2016

 ------------------
 #p CCSD(T)/cc-pVTZ
 ------------------

 ------------
 H2O_H2O_1934
 ------------
 Symbolic Z-matrix:
 Charge =  0 Multiplicity = 1

                         Standard orientation:
 ---------------------------------------------------------------------
 Center     Atomic      Atomic             Coordinates (Angstroms)
 Number     Number       Type             X           Y           Z
 ---------------------------------------------------------------------
      1          8           0        0.066783    1.876594    0.000000
      2          1           0        0.065541    0.893993    0.000000
      3          1           0       -0.862306    2.196435    0.000000
      4          8           0        0.066783   -1.703525    0.000000
      5          1           0        0.611654   -2.521217    0.000000
      6          1           0       -0.883421   -1.953762    0.000000
 ---------------------------------------------------------------------

 SCF Done:  E(RHF) =  -152.111787190     A.U. after   10 cycles
 E2 =    -0.5265669181D+00 EUMP2 =    -0.15263835410834D+03
 CCSD(T)
 CCSD(T)= -0.15266542225D+03

 The electronic state is 1-A'.
 Alpha  occ. eigenvalues --  -20.57422 -20.53802  -1.34683  -1.31158  -0.72089
 Alpha  occ. eigenvalues --   -0.68573  -0.58344  -0.54598  -0.51812  -0.48300
 Alpha virt. eigenvalues --    0.12028   0.16801   0.19332   0.26334   0.51249
 Alpha virt. eigenvalues --    0.55452   0.56197   0.58637   0.69049   0.72619
 Alpha virt. eigenvalues --    0.76006   0.77880   0.80673   0.83326   0.83946

 Mulliken charges:
               1
     1  O   -0.526316
     2  H    0.269348
     3  H    0.245922
     4  O   -0.505234
     5  H    0.261410
     6  H    0.254871
 Sum of Mulliken charges =  -0.00000

 Dipole moment (field-independent basis, Debye):
    X=             -2.2541    Y=             -3.2673    Z=              0.0000  Tot=              3.9694
 Quadrupole moment (field-independent basis, Debye-Ang):
   XX=             -9.5773   YY=             -8.0598   ZZ=            -14.7268
   XY=             -3.4971   XZ=             -0.0000   YZ=              0.0000

 Normal termination of Gaussian 16 at Sun Aug 28 02:53:51 2022.
