 Gaussian 16, Revision A.03,
 Gaussian 16:  ES64L-G16RevA.03 25-Dec-2016

 ------------------
 #p CCSD(T)/cc-pVTZ
 ------------------

 ------------
 H2O_H2O_1542
 ------------
 Symbolic Z-matrix:
 Charge =  0 Multiplicity = 1

                         Standard orientation:
 ---------------------------------------------------------------------
 Center     Atomic      Atomic             Coordinates (Angstroms)
 Number     Number       Type             X           Y           Z
 ---------------------------------------------------------------------
      1          8           0        0.037520    1.720219    0.000000
      2          1           0        0.034631    0.737622    0.000000
      3          1           0       -0.891032    2.041617    0.000000
      4          8           0        0.037520   -1.541316   -0.000000
      5          1           0        0.917507   -1.978499   -0.000000
      6          1           0       -0.661422   -2.231958   -0.000000
 ---------------------------------------------------------------------

 SCF Done:  E(RHF) =  -152.113870810     A.U. after   10 cycles
 E2 =    -0.5270252282D+00 EUMP2 =    -0.15264089603831D+03
 CCSD(T)
 CCSD(T)= -0.15266789929D+03

 The electronic state is 1-A'.
 Alpha  occ. eigenvalues --  -20.57887 -20.53001  -1.35168  -1.30437  -0.72519
 Alpha  occ. eigenvalues --   -0.68056  -0.58992  -0.53795  -0.52301  -0.47592
 Alpha virt. eigenvalues --    0.12122   0.17639   0.18944   0.28793   0.50377
 Alpha virt. eigenvalues --    0.54404   0.56064   0.59828   0.68906   0.72240
 Alpha virt. eigenvalues --    0.74479   0.76964   0.81451   0.83074   0.84754

 Mulliken charges:
               1
     1  O   -0.542081
     2  H    0.276632
     3  H    0.248085
     4  O   -0.506680
     5  H    0.264928
     6  H    0.259115
 Sum of Mulliken charges =  -0.00000

 Dipole moment (field-independent basis, Debye):
    X=             -1.2606    Y=             -3.4950    Z=             -0.0000  Tot=              3.7154
 Quadrupole moment (field-independent basis, Debye-Ang):
   XX=             -9.1608   YY=             -8.2502   ZZ=            -14.7351
   XY=             -3.9513   XZ=             -0.0000   YZ=              0.0000

 Normal termination of Gaussian 16 at Sat Aug 27 23:00:08 2022.
