 Gaussian 16, Revision A.03,
 Gaussian 16:  ES64L-G16RevA.03 25-Dec-2016

 ------------------
 #p CCSD(T)/cc-pVTZ
 ------------------

 ------------
 H2O_H2O_2644
 ------------
 Symbolic Z-matrix:
 Charge =  0 Multiplicity = 1

                         Standard orientation:
 ---------------------------------------------------------------------
 Center     Atomic      Atomic             Coordinates (Angstroms)
 Number     Number       Type             X           Y           Z
 ---------------------------------------------------------------------
      1          8           0        0.030209    2.157184    0.000000
      2          1           0        0.027634    1.174586    0.000000
      3          1           0       -0.898446    2.478285    0.000000
      4          8           0        0.030209   -1.981591   -0.000000
      5          1           0        0.959832   -2.299874   -0.000000
      6          1           0       -0.572358   -2.757748   -0.000000
 ---------------------------------------------------------------------

 SCF Done:  E(RHF) =  -152.110657102     A.U. after   10 cycles
 E2 =    -0.5260207194D+00 EUMP2 =    -0.15263667782124D+03
 CCSD(T)
 CCSD(T)= -0.15266379503D+03

 The electronic state is 1-A'.
 Alpha  occ. eigenvalues --  -20.56837 -20.54271  -1.34107  -1.31600  -0.71506
 Alpha  occ. eigenvalues --   -0.69002  -0.57688  -0.55092  -0.51241  -0.48744
 Alpha virt. eigenvalues --    0.12364   0.16302   0.19324   0.23756   0.53183
 Alpha virt. eigenvalues --    0.55581   0.56405   0.58706   0.69015   0.70018
 Alpha virt. eigenvalues --    0.77552   0.79014   0.80093   0.80402   0.83506

 Mulliken charges:
               1
     1  O   -0.523105
     2  H    0.265565
     3  H    0.252662
     4  O   -0.513048
     5  H    0.260139
     6  H    0.257786
 Sum of Mulliken charges =  -0.00000

 Dipole moment (field-independent basis, Debye):
    X=             -1.0292    Y=             -3.1996    Z=             -0.0000  Tot=              3.3610
 Quadrupole moment (field-independent basis, Debye-Ang):
   XX=             -9.2295   YY=             -7.5615   ZZ=            -14.7223
   XY=             -5.0646   XZ=             -0.0000   YZ=              0.0000

 Normal termination of Gaussian 16 at Fri Aug 26 16:15:42 2022.
