 Gaussian 16, Revision A.03,
 Gaussian 16:  ES64L-G16RevA.03 25-Dec-2016

 ------------------
 #p CCSD(T)/cc-pVTZ
 ------------------

 ------------
 H2O_H2O_3341
 ------------
 Symbolic Z-matrix:
 Charge =  0 Multiplicity = 1

                         Standard orientation:
 ---------------------------------------------------------------------
 Center     Atomic      Atomic             Coordinates (Angstroms)
 Number     Number       Type             X           Y           Z
 ---------------------------------------------------------------------
      1          8           0        0.041134    2.438750    0.000000
      2          1           0        0.039262    1.456151    0.000000
      3          1           0       -0.887750    2.759187    0.000000
      4          8           0        0.041134   -2.258820    0.000000
      5          1           0        0.891156   -2.751741    0.000000
      6          1           0       -0.700815   -2.903039    0.000000
 ---------------------------------------------------------------------

 SCF Done:  E(RHF) =  -152.109447695     A.U. after   10 cycles
 E2 =    -0.5258725432D+00 EUMP2 =    -0.15263532023842D+03
 CCSD(T)
 CCSD(T)= -0.15266247907D+03

 The electronic state is 1-A'.
 Alpha  occ. eigenvalues --  -20.56499 -20.54585  -1.33786  -1.31901  -0.71187
 Alpha  occ. eigenvalues --   -0.69299  -0.57315  -0.55387  -0.50912  -0.49034
 Alpha virt. eigenvalues --    0.12681   0.15669   0.19520   0.22059   0.53346
 Alpha virt. eigenvalues --    0.55225   0.56463   0.58153   0.67329   0.69355
 Alpha virt. eigenvalues --    0.77993   0.78998   0.79491   0.79799   0.83112

 Mulliken charges:
               1
     1  O   -0.517748
     2  H    0.263348
     3  H    0.252654
     4  O   -0.515555
     5  H    0.259697
     6  H    0.257603
 Sum of Mulliken charges =  -0.00000

 Dipole moment (field-independent basis, Debye):
    X=             -1.4051    Y=             -3.2132    Z=              0.0000  Tot=              3.5070
 Quadrupole moment (field-independent basis, Debye-Ang):
   XX=             -9.1491   YY=             -6.9814   ZZ=            -14.7185
   XY=             -5.1785   XZ=             -0.0000   YZ=              0.0000

 Normal termination of Gaussian 16 at Fri Aug 26 21:09:55 2022.
