 Gaussian 16, Revision A.03,
 Gaussian 16:  ES64L-G16RevA.03 25-Dec-2016

 ------------------
 #p CCSD(T)/cc-pVTZ
 ------------------

 -----------
 H2O_H2O_670
 -----------
 Symbolic Z-matrix:
 Charge =  0 Multiplicity = 1

                         Standard orientation:
 ---------------------------------------------------------------------
 Center     Atomic      Atomic             Coordinates (Angstroms)
 Number     Number       Type             X           Y           Z
 ---------------------------------------------------------------------
      1          8           0        0.026825    1.368068   -0.000000
      2          1           0        0.022434    0.385477   -0.000000
      3          1           0       -0.901235    1.690884   -0.000000
      4          8           0        0.026825   -1.194947    0.000000
      5          1           0        0.974800   -1.453501    0.000000
      6          1           0       -0.525191   -2.007833    0.000000
 ---------------------------------------------------------------------

 SCF Done:  E(RHF) =  -152.106832228     A.U. after   10 cycles
 E2 =    -0.5304677531D+00 EUMP2 =    -0.15263729998143D+03
 CCSD(T)
 CCSD(T)= -0.15266387880D+03

 The electronic state is 1-A'.
 Alpha  occ. eigenvalues --  -20.59628 -20.50042  -1.37688  -1.28166  -0.74997
 Alpha  occ. eigenvalues --   -0.69129  -0.59538  -0.54503  -0.50614  -0.45201
 Alpha virt. eigenvalues --    0.11620   0.18175   0.19235   0.33521   0.47780
 Alpha virt. eigenvalues --    0.54050   0.58129   0.66316   0.68314   0.72314
 Alpha virt. eigenvalues --    0.73306   0.77516   0.80672   0.83609   0.84056

 Mulliken charges:
               1
     1  O   -0.601497
     2  H    0.304143
     3  H    0.239801
     4  O   -0.448989
     5  H    0.262144
     6  H    0.244397
 Sum of Mulliken charges =  -0.00000

 Dipole moment (field-independent basis, Debye):
    X=             -0.8764    Y=             -3.9577    Z=              0.0000  Tot=              4.0536
 Quadrupole moment (field-independent basis, Debye-Ang):
   XX=             -9.2598   YY=             -9.1786   ZZ=            -14.6931
   XY=             -3.3491   XZ=              0.0000   YZ=              0.0000

 Normal termination of Gaussian 16 at Fri Aug 26 19:44:58 2022.
