 Gaussian 16, Revision A.03,
 Gaussian 16:  ES64L-G16RevA.03 25-Dec-2016

 ------------------
 #p CCSD(T)/cc-pVTZ
 ------------------

 ------------
 H2O_H2O_1699
 ------------
 Symbolic Z-matrix:
 Charge =  0 Multiplicity = 1

                         Standard orientation:
 ---------------------------------------------------------------------
 Center     Atomic      Atomic             Coordinates (Angstroms)
 Number     Number       Type             X           Y           Z
 ---------------------------------------------------------------------
      1          8           0        0.013601   -1.769371    0.000000
      2          1           0        0.009613   -0.786778    0.000000
      3          1           0       -0.914591   -2.091808    0.000000
      4          8           0        0.013601    1.610138    0.000000
      5          1           0        0.996195    1.614125    0.000000
      6          1           0       -0.308835    2.538330    0.000000
 ---------------------------------------------------------------------

 SCF Done:  E(RHF) =  -152.112537685     A.U. after   10 cycles
 E2 =    -0.5267543108D+00 EUMP2 =    -0.15263929199620D+03
 CCSD(T)
 CCSD(T)= -0.15266634041D+03

 The electronic state is 1-A'.
 Alpha  occ. eigenvalues --  -20.57604 -20.53705  -1.34906  -1.31094  -0.72381
 Alpha  occ. eigenvalues --   -0.68547  -0.58644  -0.54499  -0.52024  -0.48248
 Alpha virt. eigenvalues --    0.12170   0.17223   0.19248   0.27806   0.51664
 Alpha virt. eigenvalues --    0.54417   0.55776   0.59950   0.68801   0.73989
 Alpha virt. eigenvalues --    0.74988   0.77752   0.80874   0.83017   0.84222

 Mulliken charges:
               1
     1  O   -0.537377
     2  H    0.270208
     3  H    0.254333
     4  O   -0.504868
     5  H    0.261970
     6  H    0.255733
 Sum of Mulliken charges =  -0.00000

 Dipole moment (field-independent basis, Debye):
    X=             -0.4697    Y=              3.0590    Z=              0.0000  Tot=              3.0949
 Quadrupole moment (field-independent basis, Debye-Ang):
   XX=             -9.6499   YY=             -8.4738   ZZ=            -14.7284
   XY=              4.7636   XZ=              0.0000   YZ=              0.0000

 Normal termination of Gaussian 16 at Sun Aug 28 00:48:06 2022.
