 Gaussian 16, Revision A.03,
 Gaussian 16:  ES64L-G16RevA.03 25-Dec-2016

 ------------------
 #p CCSD(T)/cc-pVTZ
 ------------------

 ------------
 H2O_H2O_3206
 ------------
 Symbolic Z-matrix:
 Charge =  0 Multiplicity = 1

                         Standard orientation:
 ---------------------------------------------------------------------
 Center     Atomic      Atomic             Coordinates (Angstroms)
 Number     Number       Type             X           Y           Z
 ---------------------------------------------------------------------
      1          8           0        0.076758    2.379804   -0.000000
      2          1           0        0.076159    1.397203   -0.000000
      3          1           0       -0.852541    2.699036   -0.000000
      4          8           0        0.076758   -2.216594    0.000000
      5          1           0        0.452230   -3.124629    0.000000
      6          1           0       -0.903968   -2.277290    0.000000
 ---------------------------------------------------------------------

 SCF Done:  E(RHF) =  -152.108862540     A.U. after   10 cycles
 E2 =    -0.5259591710D+00 EUMP2 =    -0.15263482171105D+03
 CCSD(T)
 CCSD(T)= -0.15266198971D+03

 The electronic state is 1-A'.
 Alpha  occ. eigenvalues --  -20.56562 -20.54780  -1.33851  -1.32091  -0.71266
 Alpha  occ. eigenvalues --   -0.69477  -0.57352  -0.55560  -0.50970  -0.49214
 Alpha virt. eigenvalues --    0.12233   0.15616   0.19399   0.22343   0.53611
 Alpha virt. eigenvalues --    0.55093   0.56375   0.58287   0.67502   0.69260
 Alpha virt. eigenvalues --    0.77934   0.78680   0.79635   0.80471   0.82883

 Mulliken charges:
               1
     1  O   -0.514144
     2  H    0.262102
     3  H    0.250285
     4  O   -0.512155
     5  H    0.259968
     6  H    0.253945
 Sum of Mulliken charges =  -0.00000

 Dipole moment (field-independent basis, Debye):
    X=             -2.6186    Y=             -2.9206    Z=              0.0000  Tot=              3.9226
 Quadrupole moment (field-independent basis, Debye-Ang):
   XX=             -9.9548   YY=             -7.7592   ZZ=            -14.7162
   XY=             -3.4127   XZ=              0.0000   YZ=             -0.0000

 CCSD(T)=-152.6619897\RMSD=7.075e-09\PG=CS [SG(H4O2)]\\@
 Normal termination of Gaussian 16 at Fri Aug 26 20:23:42 2022.
