 Gaussian 16, Revision A.03,
 Gaussian 16:  ES64L-G16RevA.03 25-Dec-2016

 ------------------
 #p CCSD(T)/cc-pVTZ
 ------------------

 ------------
 H2O_H2O_4836
 ------------
 Symbolic Z-matrix:
 Charge =  0 Multiplicity = 1

                         Standard orientation:
 ---------------------------------------------------------------------
 Center     Atomic      Atomic             Coordinates (Angstroms)
 Number     Number       Type             X           Y           Z
 ---------------------------------------------------------------------
      1          8           0        0.059615    3.035731    0.000000
      2          1           0        0.058655    2.053130    0.000000
      3          1           0       -0.869567    3.355305   -0.000000
      4          8           0        0.059615   -2.858251    0.000000
      5          1           0        0.706767   -3.597643    0.000000
      6          1           0       -0.849691   -3.230635   -0.000000
 ---------------------------------------------------------------------

 SCF Done:  E(RHF) =  -152.108182266     A.U. after   10 cycles
 E2 =    -0.5258167679D+00 EUMP2 =    -0.15263399903428D+03
 CCSD(T)
 CCSD(T)= -0.15266120251D+03

 The electronic state is 1-A'.
 Alpha  occ. eigenvalues --  -20.56134 -20.55038  -1.33436  -1.32343  -0.70842
 Alpha  occ. eigenvalues --   -0.69744  -0.56920  -0.55809  -0.50553  -0.49463
 Alpha virt. eigenvalues --    0.13477   0.14775   0.19700   0.20915   0.53687
 Alpha virt. eigenvalues --    0.54806   0.56694   0.57753   0.67022   0.68544
 Alpha virt. eigenvalues --    0.78331   0.79398   0.79707   0.80493   0.82292

 Mulliken charges:
               1
     1  O   -0.512708
     2  H    0.259581
     3  H    0.253080
     4  O   -0.513466
     5  H    0.257971
     6  H    0.255543
 Sum of Mulliken charges =  -0.00000

 Dipole moment (field-independent basis, Debye):
    X=             -2.0460    Y=             -3.1075    Z=             -0.0000  Tot=              3.7206
 Quadrupole moment (field-independent basis, Debye-Ang):
   XX=             -9.3614   YY=             -6.1813   ZZ=            -14.7140
   XY=             -5.0518   XZ=              0.0000   YZ=             -0.0000

 Normal termination of Gaussian 16 at Sun Aug 28 06:16:34 2022.
