 Gaussian 16, Revision A.03,
 Gaussian 16:  ES64L-G16RevA.03 25-Dec-2016

 ------------------
 #p CCSD(T)/cc-pVTZ
 ------------------

 ------------
 H2O_H2O_1993
 ------------
 Symbolic Z-matrix:
 Charge =  0 Multiplicity = 1

                         Standard orientation:
 ---------------------------------------------------------------------
 Center     Atomic      Atomic             Coordinates (Angstroms)
 Number     Number       Type             X           Y           Z
 ---------------------------------------------------------------------
      1          8           0        0.033841    1.898943    0.000000
      2          1           0        0.031067    0.916345    0.000000
      3          1           0       -0.894749    2.220232   -0.000000
      4          8           0        0.033841   -1.721458    0.000000
      5          1           0        0.940581   -2.100044    0.000000
      6          1           0       -0.618348   -2.456411   -0.000000
 ---------------------------------------------------------------------

 SCF Done:  E(RHF) =  -152.112457448     A.U. after   10 cycles
 E2 =    -0.5264030059D+00 EUMP2 =    -0.15263886045383D+03
 CCSD(T)
 CCSD(T)= -0.15266592195D+03

 The electronic state is 1-A'.
 Alpha  occ. eigenvalues --  -20.57354 -20.53685  -1.34609  -1.31048  -0.71994
 Alpha  occ. eigenvalues --   -0.68487  -0.58312  -0.54507  -0.51749  -0.48203
 Alpha virt. eigenvalues --    0.12246   0.17048   0.19142   0.26326   0.51942
 Alpha virt. eigenvalues --    0.54818   0.56362   0.58955   0.69079   0.72451
 Alpha virt. eigenvalues --    0.76203   0.77732   0.80728   0.83439   0.84336

 Mulliken charges:
               1
     1  O   -0.531180
     2  H    0.269184
     3  H    0.250743
     4  O   -0.509005
     5  H    0.262045
     6  H    0.258213
 Sum of Mulliken charges =  -0.00000

 Dipole moment (field-independent basis, Debye):
    X=             -1.1459    Y=             -3.3418    Z=             -0.0000  Tot=              3.5328
 Quadrupole moment (field-independent basis, Debye-Ang):
   XX=             -9.1875   YY=             -7.9299   ZZ=            -14.7294
   XY=             -4.3990   XZ=              0.0000   YZ=             -0.0000

 Normal termination of Gaussian 16 at Sun Aug 28 03:23:25 2022.
