 Gaussian 16, Revision A.03,
 Gaussian 16:  ES64L-G16RevA.03 25-Dec-2016

 ------------------
 #p CCSD(T)/cc-pVTZ
 ------------------

 -----------
 H2O_H2O_200
 -----------
 Symbolic Z-matrix:
 Charge =  0 Multiplicity = 1

                         Standard orientation:
 ---------------------------------------------------------------------
 Center     Atomic      Atomic             Coordinates (Angstroms)
 Number     Number       Type             X           Y           Z
 ---------------------------------------------------------------------
      1          8           0        0.092949   -1.166647    0.000000
      2          1           0        0.092949   -0.184046    0.000000
      3          1           0       -0.836544   -1.485314    0.000000
      4          8           0        0.092949    1.033860    0.000000
      5          1           0        0.092950    2.016462    0.000000
      6          1           0       -0.836544    0.715193    0.000000
 ---------------------------------------------------------------------

 SCF Done:  E(RHF) =  -152.050247535     A.U. after   11 cycles
 E2 =    -0.5377055061D+00 EUMP2 =    -0.15258795304160D+03
 CCSD(T)
 CCSD(T)= -0.15261384278D+03

 The electronic state is 1-A'.
 Alpha  occ. eigenvalues --  -20.61025 -20.48968  -1.42392  -1.27830  -0.82327
 Alpha  occ. eigenvalues --   -0.69116  -0.57962  -0.57047  -0.49726  -0.44702
 Alpha virt. eigenvalues --    0.10937   0.16027   0.21716   0.31853   0.49047
 Alpha virt. eigenvalues --    0.50804   0.59537   0.67454   0.71199   0.72692
 Alpha virt. eigenvalues --    0.75322   0.77219   0.79399   0.83260   0.85105

 Mulliken charges:
               1
     1  O   -0.580928
     2  H    0.263294
     3  H    0.193955
     4  O   -0.337239
     5  H    0.226431
     6  H    0.234486
 Sum of Mulliken charges =  -0.00000

 Dipole moment (field-independent basis, Debye):
    X=             -2.9253    Y=              3.6846    Z=              0.0000  Tot=              4.7046
 Quadrupole moment (field-independent basis, Debye-Ang):
   XX=            -10.8192   YY=             -9.8403   ZZ=            -14.5461
   XY=              1.9293   XZ=              0.0000   YZ=              0.0000

 Normal termination of Gaussian 16 at Fri Aug 26 16:33:22 2022.
