 Gaussian 16, Revision A.03,
 Gaussian 16:  ES64L-G16RevA.03 25-Dec-2016

 ------------------
 #p CCSD(T)/cc-pVTZ
 ------------------

 -----------
 H2O_H2O_250
 -----------
 Symbolic Z-matrix:
 Charge =  0 Multiplicity = 1

                         Standard orientation:
 ---------------------------------------------------------------------
 Center     Atomic      Atomic             Coordinates (Angstroms)
 Number     Number       Type             X           Y           Z
 ---------------------------------------------------------------------
      1          8           0        0.092949   -1.186591    0.000000
      2          1           0        0.092949   -0.203990    0.000000
      3          1           0       -0.836544   -1.505257    0.000000
      4          8           0        0.092949    1.053804    0.000000
      5          1           0        0.092949    2.036406    0.000000
      6          1           0       -0.836544    0.735137    0.000000
 ---------------------------------------------------------------------

 SCF Done:  E(RHF) =  -152.058914347     A.U. after   11 cycles
 E2 =    -0.5369614643D+00 EUMP2 =    -0.15259587581171D+03
 CCSD(T)
 CCSD(T)= -0.15262188866D+03

 The electronic state is 1-A'.
 Alpha  occ. eigenvalues --  -20.60840 -20.49460  -1.41672  -1.28155  -0.81580
 Alpha  occ. eigenvalues --   -0.68778  -0.58358  -0.56666  -0.50231  -0.45045
 Alpha virt. eigenvalues --    0.11001   0.16096   0.21618   0.31982   0.49013
 Alpha virt. eigenvalues --    0.50910   0.59446   0.67238   0.71223   0.72666
 Alpha virt. eigenvalues --    0.75645   0.76394   0.79331   0.82772   0.84885

 Mulliken charges:
               1
     1  O   -0.576454
     2  H    0.266782
     3  H    0.197610
     4  O   -0.347408
     5  H    0.226638
     6  H    0.232833
 Sum of Mulliken charges =  -0.00000

 Dipole moment (field-independent basis, Debye):
    X=             -2.9376    Y=              3.6005    Z=              0.0000  Tot=              4.6469
 Quadrupole moment (field-independent basis, Debye-Ang):
   XX=            -10.8315   YY=             -9.7747   ZZ=            -14.5623
   XY=              1.9447   XZ=              0.0000   YZ=              0.0000

 Normal termination of Gaussian 16 at Fri Aug 26 16:54:42 2022.
