 Gaussian 16, Revision A.03,
 Gaussian 16:  ES64L-G16RevA.03 25-Dec-2016

 ------------------
 #p CCSD(T)/cc-pVTZ
 ------------------

 ------------
 H2O_H2O_3879
 ------------
 Symbolic Z-matrix:
 Charge =  0 Multiplicity = 1

                         Standard orientation:
 ---------------------------------------------------------------------
 Center     Atomic      Atomic             Coordinates (Angstroms)
 Number     Number       Type             X           Y           Z
 ---------------------------------------------------------------------
      1          8           0        0.082800    2.644328   -0.000000
      2          1           0        0.082465    1.661727   -0.000000
      3          1           0       -0.846584    2.963312   -0.000000
      4          8           0        0.082800   -2.489803    0.000000
      5          1           0        0.336793   -3.439011    0.000000
      6          1           0       -0.897475   -2.422230    0.000000
 ---------------------------------------------------------------------

 SCF Done:  E(RHF) =  -152.108147567     A.U. after   10 cycles
 E2 =    -0.5258842043D+00 EUMP2 =    -0.15263403177081D+03
 CCSD(T)
 CCSD(T)= -0.15266122889D+03

 The electronic state is 1-A'.
 Alpha  occ. eigenvalues --  -20.56338 -20.55063  -1.33637  -1.32368  -0.71051
 Alpha  occ. eigenvalues --   -0.69761  -0.57115  -0.55829  -0.50751  -0.49486
 Alpha virt. eigenvalues --    0.12537   0.15128   0.19213   0.21762   0.53195
 Alpha virt. eigenvalues --    0.55024   0.56494   0.57912   0.66730   0.68952
 Alpha virt. eigenvalues --    0.78147   0.78943   0.79376   0.80951   0.82600

 Mulliken charges:
               1
     1  O   -0.511587
     2  H    0.259721
     3  H    0.251443
     4  O   -0.512407
     5  H    0.259376
     6  H    0.253453
 Sum of Mulliken charges =  -0.00000

 Dipole moment (field-independent basis, Debye):
    X=             -2.8335    Y=             -2.7302    Z=              0.0000  Tot=              3.9348
 Quadrupole moment (field-independent basis, Debye-Ang):
   XX=            -10.2470   YY=             -7.9709   ZZ=            -14.7137
   XY=             -3.1105   XZ=              0.0000   YZ=             -0.0000

 CCSD(T)=-152.6612289\RMSD=7.221e-09\PG=CS [SG(H4O2)]\\@
 Normal termination of Gaussian 16 at Sat Aug 27 00:14:34 2022.
