 Gaussian 16, Revision A.03,
 Gaussian 16:  ES64L-G16RevA.03 25-Dec-2016

 ------------------
 #p CCSD(T)/cc-pVTZ
 ------------------

 ------------
 H2O_H2O_2559
 ------------
 Symbolic Z-matrix:
 Charge =  0 Multiplicity = 1

                         Standard orientation:
 ---------------------------------------------------------------------
 Center     Atomic      Atomic             Coordinates (Angstroms)
 Number     Number       Type             X           Y           Z
 ---------------------------------------------------------------------
      1          8           0        0.066770    2.125903    0.000000
      2          1           0        0.065680    1.143302    0.000000
      3          1           0       -0.862369    2.445600   -0.000000
      4          8           0        0.066770   -1.952813    0.000000
      5          1           0        0.611767   -2.770421    0.000000
      6          1           0       -0.883396   -2.203196   -0.000000
 ---------------------------------------------------------------------

 SCF Done:  E(RHF) =  -152.110247438     A.U. after   10 cycles
 E2 =    -0.5261243238D+00 EUMP2 =    -0.15263637176170D+03
 CCSD(T)
 CCSD(T)= -0.15266349246D+03

 The electronic state is 1-A'.
 Alpha  occ. eigenvalues --  -20.56907 -20.54317  -1.34176  -1.31642  -0.71584
 Alpha  occ. eigenvalues --   -0.69026  -0.57736  -0.55117  -0.51305  -0.48776
 Alpha virt. eigenvalues --    0.12182   0.16237   0.19398   0.23819   0.53105
 Alpha virt. eigenvalues --    0.55663   0.56082   0.58805   0.68904   0.70321
 Alpha virt. eigenvalues --    0.77448   0.78942   0.80077   0.80677   0.83378

 Mulliken charges:
               1
     1  O   -0.519818
     2  H    0.265735
     3  H    0.248877
     4  O   -0.509720
     5  H    0.260026
     6  H    0.254901
 Sum of Mulliken charges =  -0.00000

 Dipole moment (field-independent basis, Debye):
    X=             -2.2688    Y=             -3.1633    Z=             -0.0000  Tot=              3.8928
 Quadrupole moment (field-independent basis, Debye-Ang):
   XX=             -9.5691   YY=             -7.6939   ZZ=            -14.7207
   XY=             -3.7266   XZ=              0.0000   YZ=             -0.0000

 Normal termination of Gaussian 16 at Fri Aug 26 15:36:43 2022.
