 Gaussian 16, Revision A.03,
 Gaussian 16:  ES64L-G16RevA.03 25-Dec-2016

 ------------------
 #p CCSD(T)/cc-pVTZ
 ------------------

 ------------
 H2O_H2O_4382
 ------------
 Symbolic Z-matrix:
 Charge =  0 Multiplicity = 1

                         Standard orientation:
 ---------------------------------------------------------------------
 Center     Atomic      Atomic             Coordinates (Angstroms)
 Number     Number       Type             X           Y           Z
 ---------------------------------------------------------------------
      1          8           0        0.073525    2.850522    0.000000
      2          1           0        0.072929    1.867921    0.000000
      3          1           0       -0.855775    3.169752    0.000000
      4          8           0        0.073525   -2.683561   -0.000000
      5          1           0        0.507584   -3.565093   -0.000000
      6          1           0       -0.901131   -2.808271   -0.000000
 ---------------------------------------------------------------------

 SCF Done:  E(RHF) =  -152.108161661     A.U. after   10 cycles
 E2 =    -0.5258388756D+00 EUMP2 =    -0.15263400053624D+03
 CCSD(T)
 CCSD(T)= -0.15266120216D+03

 The electronic state is 1-A'.
 Alpha  occ. eigenvalues --  -20.56218 -20.55042  -1.33519  -1.32348  -0.70928
 Alpha  occ. eigenvalues --   -0.69745  -0.57000  -0.55811  -0.50634  -0.49467
 Alpha virt. eigenvalues --    0.13139   0.14902   0.19481   0.21179   0.53439
 Alpha virt. eigenvalues --    0.54896   0.56601   0.57780   0.66809   0.68743
 Alpha virt. eigenvalues --    0.78255   0.79389   0.79394   0.80582   0.82562

 Mulliken charges:
               1
     1  O   -0.512239
     2  H    0.259776
     3  H    0.252312
     4  O   -0.513221
     5  H    0.258711
     6  H    0.254661
 Sum of Mulliken charges =  -0.00000

 Dipole moment (field-independent basis, Debye):
    X=             -2.5204    Y=             -2.9338    Z=             -0.0000  Tot=              3.8678
 Quadrupole moment (field-independent basis, Debye-Ang):
   XX=             -9.8093   YY=             -7.0685   ZZ=            -14.7138
   XY=             -3.9213   XZ=             -0.0000   YZ=             -0.0000

 Normal termination of Gaussian 16 at Sun Aug 28 02:23:42 2022.
