 Gaussian 16, Revision A.03,
 Gaussian 16:  ES64L-G16RevA.03 25-Dec-2016

 ------------------
 #p CCSD(T)/cc-pVTZ
 ------------------

 ------------
 H2O_H2O_4351
 ------------
 Symbolic Z-matrix:
 Charge =  0 Multiplicity = 1

                         Standard orientation:
 ---------------------------------------------------------------------
 Center     Atomic      Atomic             Coordinates (Angstroms)
 Number     Number       Type             X           Y           Z
 ---------------------------------------------------------------------
      1          8           0        0.090684   -2.825205    0.000000
      2          1           0        0.090614   -1.842604    0.000000
      3          1           0       -0.838787   -3.143938    0.000000
      4          8           0        0.090684    2.686494    0.000000
      5          1           0        0.154879    3.666997    0.000000
      6          1           0       -0.857643    2.429235    0.000000
 ---------------------------------------------------------------------

 SCF Done:  E(RHF) =  -152.107720973     A.U. after   10 cycles
 E2 =    -0.5258773896D+00 EUMP2 =    -0.15263359836242D+03
 CCSD(T)
 CCSD(T)= -0.15266081015D+03

 The electronic state is 1-A'.
 Alpha  occ. eigenvalues --  -20.56237 -20.55287  -1.33539  -1.32589  -0.70954
 Alpha  occ. eigenvalues --   -0.69985  -0.57001  -0.56042  -0.50649  -0.49703
 Alpha virt. eigenvalues --    0.12673   0.14819   0.18946   0.21735   0.53202
 Alpha virt. eigenvalues --    0.54868   0.56537   0.57730   0.66854   0.68552
 Alpha virt. eigenvalues --    0.78243   0.79169   0.79532   0.81406   0.81792

 Mulliken charges:
               1
     1  O   -0.509864
     2  H    0.257777
     3  H    0.251989
     4  O   -0.510922
     5  H    0.258469
     6  H    0.252550
 Sum of Mulliken charges =  -0.00000

 Dipole moment (field-independent basis, Debye):
    X=             -3.1084    Y=              2.4368    Z=              0.0000  Tot=              3.9498
 Quadrupole moment (field-independent basis, Debye-Ang):
   XX=            -10.7005   YY=             -8.8745   ZZ=            -14.7121
   XY=              2.4138   XZ=              0.0000   YZ=              0.0000

 Normal termination of Gaussian 16 at Sun Aug 28 02:09:29 2022.
