 Gaussian 16, Revision A.03,
 Gaussian 16:  ES64L-G16RevA.03 25-Dec-2016

 ------------------
 #p CCSD(T)/cc-pVTZ
 ------------------

 ------------
 H2O_H2O_2024
 ------------
 Symbolic Z-matrix:
 Charge =  0 Multiplicity = 1

                         Standard orientation:
 ---------------------------------------------------------------------
 Center     Atomic      Atomic             Coordinates (Angstroms)
 Number     Number       Type             X           Y           Z
 ---------------------------------------------------------------------
      1          8           0       -0.013578    1.899009    0.000000
      2          1           0       -0.009874    0.916415    0.000000
      3          1           0        0.914707    2.221178    0.000000
      4          8           0       -0.013578   -1.739768    0.000000
      5          1           0       -0.996173   -1.743472    0.000000
      6          1           0        0.308590   -2.668053    0.000000
 ---------------------------------------------------------------------

 SCF Done:  E(RHF) =  -152.111730630     A.U. after   10 cycles
 E2 =    -0.5263800171D+00 EUMP2 =    -0.15263811064725D+03
 CCSD(T)
 CCSD(T)= -0.15266519161D+03

 The electronic state is 1-A'.
 Alpha  occ. eigenvalues --  -20.57267 -20.54073  -1.34548  -1.31424  -0.71987
 Alpha  occ. eigenvalues --   -0.68845  -0.58204  -0.54885  -0.51675  -0.48576
 Alpha virt. eigenvalues --    0.12171   0.16846   0.19269   0.26233   0.52954
 Alpha virt. eigenvalues --    0.54594   0.55944   0.59098   0.68685   0.73104
 Alpha virt. eigenvalues --    0.76234   0.78735   0.80421   0.83393   0.83666

 Mulliken charges:
               1
     1  O   -0.530223
     2  H    0.266556
     3  H    0.254616
     4  O   -0.509461
     5  H    0.260425
     6  H    0.258086
 Sum of Mulliken charges =  -0.00000

 Dipole moment (field-independent basis, Debye):
    X=              0.4691    Y=             -2.9844    Z=              0.0000  Tot=              3.0210
 Quadrupole moment (field-independent basis, Debye-Ang):
   XX=             -9.6502   YY=             -8.3369   ZZ=            -14.7259
   XY=              5.1198   XZ=              0.0000   YZ=              0.0000

 Normal termination of Gaussian 16 at Sun Aug 28 03:41:42 2022.
