 Gaussian 16, Revision A.03,
 Gaussian 16:  ES64L-G16RevA.03 25-Dec-2016

 ------------------
 #p CCSD(T)/cc-pVTZ
 ------------------

 ------------
 H2O_H2O_2913
 ------------
 Symbolic Z-matrix:
 Charge =  0 Multiplicity = 1

                         Standard orientation:
 ---------------------------------------------------------------------
 Center     Atomic      Atomic             Coordinates (Angstroms)
 Number     Number       Type             X           Y           Z
 ---------------------------------------------------------------------
      1          8           0        0.052304    2.269202    0.000000
      2          1           0        0.050720    1.286602    0.000000
      3          1           0       -0.876674    2.589366   -0.000000
      4          8           0        0.052304   -2.089317    0.000000
      5          1           0        0.790018   -2.738381    0.000000
      6          1           0       -0.800926   -2.576662   -0.000000
 ---------------------------------------------------------------------

 SCF Done:  E(RHF) =  -152.109975470     A.U. after   10 cycles
 E2 =    -0.5259671976D+00 EUMP2 =    -0.15263594266759D+03
 CCSD(T)
 CCSD(T)= -0.15266307974D+03

 The electronic state is 1-A'.
 Alpha  occ. eigenvalues --  -20.56699 -20.54395  -1.33974  -1.31717  -0.71374
 Alpha  occ. eigenvalues --   -0.69108  -0.57523  -0.55203  -0.51104  -0.48853
 Alpha virt. eigenvalues --    0.12454   0.16015   0.19440   0.22875   0.53125
 Alpha virt. eigenvalues --    0.55491   0.56299   0.58694   0.68590   0.69330
 Alpha virt. eigenvalues --    0.77779   0.79138   0.79396   0.79976   0.83300

 Mulliken charges:
               1
     1  O   -0.519307
     2  H    0.264815
     3  H    0.251067
     4  O   -0.513440
     5  H    0.260242
     6  H    0.256624
 Sum of Mulliken charges =  -0.00000

 Dipole moment (field-independent basis, Debye):
    X=             -1.7821    Y=             -3.2492    Z=             -0.0000  Tot=              3.7058
 Quadrupole moment (field-independent basis, Debye-Ang):
   XX=             -9.2268   YY=             -7.2582   ZZ=            -14.7201
   XY=             -4.4537   XZ=             -0.0000   YZ=             -0.0000

 Normal termination of Gaussian 16 at Fri Aug 26 18:18:32 2022.
