 Gaussian 16, Revision A.03,
 Gaussian 16:  ES64L-G16RevA.03 25-Dec-2016

 ------------------
 #p CCSD(T)/cc-pVTZ
 ------------------

 ------------
 H2O_H2O_4381
 ------------
 Symbolic Z-matrix:
 Charge =  0 Multiplicity = 1

                         Standard orientation:
 ---------------------------------------------------------------------
 Center     Atomic      Atomic             Coordinates (Angstroms)
 Number     Number       Type             X           Y           Z
 ---------------------------------------------------------------------
      1          8           0        0.076749    2.848493    0.000000
      2          1           0        0.076252    1.865892    0.000000
      3          1           0       -0.852583    3.167629    0.000000
      4          8           0        0.076749   -2.685267   -0.000000
      5          1           0        0.452316   -3.593262   -0.000000
      6          1           0       -0.903970   -2.746064   -0.000000
 ---------------------------------------------------------------------

 SCF Done:  E(RHF) =  -152.108097290     A.U. after   10 cycles
 E2 =    -0.5258442764D+00 EUMP2 =    -0.15263394156688D+03
 CCSD(T)
 CCSD(T)= -0.15266114463D+03

 The electronic state is 1-A'.
 Alpha  occ. eigenvalues --  -20.56220 -20.55076  -1.33521  -1.32381  -0.70931
 Alpha  occ. eigenvalues --   -0.69778  -0.56999  -0.55842  -0.50636  -0.49499
 Alpha virt. eigenvalues --    0.13089   0.14885   0.19415   0.21226   0.53396
 Alpha virt. eigenvalues --    0.54900   0.56591   0.57775   0.66816   0.68716
 Alpha virt. eigenvalues --    0.78254   0.79364   0.79388   0.80692   0.82498

 Mulliken charges:
               1
     1  O   -0.511884
     2  H    0.259511
     3  H    0.252231
     4  O   -0.512892
     5  H    0.258694
     6  H    0.254341
 Sum of Mulliken charges =  -0.00000

 Dipole moment (field-independent basis, Debye):
    X=             -2.6309    Y=             -2.8680    Z=             -0.0000  Tot=              3.8919
 Quadrupole moment (field-independent basis, Debye-Ang):
   XX=             -9.9483   YY=             -7.2933   ZZ=            -14.7136
   XY=             -3.6794   XZ=             -0.0000   YZ=              0.0000

 Normal termination of Gaussian 16 at Sun Aug 28 02:23:20 2022.
