 Gaussian 16, Revision A.03,
 Gaussian 16:  ES64L-G16RevA.03 25-Dec-2016

 ------------------
 #p CCSD(T)/cc-pVTZ
 ------------------

 ------------
 H2O_H2O_1099
 ------------
 Symbolic Z-matrix:
 Charge =  0 Multiplicity = 1

                         Standard orientation:
 ---------------------------------------------------------------------
 Center     Atomic      Atomic             Coordinates (Angstroms)
 Number     Number       Type             X           Y           Z
 ---------------------------------------------------------------------
      1          8           0        0.013655   -1.530038    0.000000
      2          1           0        0.009008   -0.547448    0.000000
      3          1           0       -0.914321   -1.853097    0.000000
      4          8           0        0.013655    1.370823    0.000000
      5          1           0        0.996245    1.375469    0.000000
      6          1           0       -0.309405    2.298799    0.000000
 ---------------------------------------------------------------------

 SCF Done:  E(RHF) =  -152.112342024     A.U. after   10 cycles
 E2 =    -0.5282932946D+00 EUMP2 =    -0.15264063531835D+03
 CCSD(T)
 CCSD(T)= -0.15266754736D+03

 The electronic state is 1-A'.
 Alpha  occ. eigenvalues --  -20.58512 -20.52458  -1.36029  -1.30053  -0.73699
 Alpha  occ. eigenvalues --   -0.67906  -0.59758  -0.53146  -0.53060  -0.47183
 Alpha virt. eigenvalues --    0.12051   0.17969   0.19089   0.31434   0.49360
 Alpha virt. eigenvalues --    0.54592   0.55672   0.62858   0.68439   0.72702
 Alpha virt. eigenvalues --    0.74508   0.76434   0.81506   0.82290   0.84251

 Mulliken charges:
               1
     1  O   -0.563638
     2  H    0.284658
     3  H    0.252142
     4  O   -0.473639
     5  H    0.260767
     6  H    0.239708
 Sum of Mulliken charges =  -0.00000

 Dipole moment (field-independent basis, Debye):
    X=             -0.4685    Y=              3.3069    Z=              0.0000  Tot=              3.3399
 Quadrupole moment (field-independent basis, Debye-Ang):
   XX=             -9.6395   YY=             -8.8154   ZZ=            -14.7189
   XY=              4.1005   XZ=              0.0000   YZ=              0.0000

 Normal termination of Gaussian 16 at Fri Aug 26 22:27:21 2022.
