 Gaussian 16, Revision A.03,
 Gaussian 16:  ES64L-G16RevA.03 25-Dec-2016

 ------------------
 #p CCSD(T)/cc-pVTZ
 ------------------

 ------------
 H2O_H2O_1550
 ------------
 Symbolic Z-matrix:
 Charge =  0 Multiplicity = 1

                         Standard orientation:
 ---------------------------------------------------------------------
 Center     Atomic      Atomic             Coordinates (Angstroms)
 Number     Number       Type             X           Y           Z
 ---------------------------------------------------------------------
      1          8           0        0.092949   -1.705131    0.000000
      2          1           0        0.092949   -0.722530    0.000000
      3          1           0       -0.836544   -2.023798    0.000000
      4          8           0        0.092949    1.572345    0.000000
      5          1           0        0.092949    2.554946    0.000000
      6          1           0       -0.836544    1.253677    0.000000
 ---------------------------------------------------------------------

 SCF Done:  E(RHF) =  -152.108839373     A.U. after   10 cycles
 E2 =    -0.5275555774D+00 EUMP2 =    -0.15263639494992D+03
 CCSD(T)
 CCSD(T)= -0.15266349922D+03

 The electronic state is 1-A'.
 Alpha  occ. eigenvalues --  -20.57791 -20.54524  -1.35147  -1.31869  -0.72897
 Alpha  occ. eigenvalues --   -0.69073  -0.58628  -0.55242  -0.52201  -0.48966
 Alpha virt. eigenvalues --    0.11464   0.16262   0.20506   0.27501   0.50063
 Alpha virt. eigenvalues --    0.54365   0.57533   0.58131   0.67773   0.73951
 Alpha virt. eigenvalues --    0.74177   0.78050   0.80404   0.81862   0.83318

 Mulliken charges:
               1
     1  O   -0.519245
     2  H    0.271266
     3  H    0.240072
     4  O   -0.484043
     5  H    0.251331
     6  H    0.240620
 Sum of Mulliken charges =  -0.00000

 Dipole moment (field-independent basis, Debye):
    X=             -3.1073    Y=              2.5729    Z=              0.0000  Tot=              4.0342
 Quadrupole moment (field-independent basis, Debye-Ang):
   XX=            -10.8956   YY=             -9.1454   ZZ=            -14.7102
   XY=              2.1193   XZ=              0.0000   YZ=              0.0000

 Normal termination of Gaussian 16 at Sat Aug 27 23:04:48 2022.
