 Gaussian 16, Revision A.03,
 Gaussian 16:  ES64L-G16RevA.03 25-Dec-2016

 ------------------
 #p CCSD(T)/cc-pVTZ
 ------------------

 ------------
 H2O_H2O_2902
 ------------
 Symbolic Z-matrix:
 Charge =  0 Multiplicity = 1

                         Standard orientation:
 ---------------------------------------------------------------------
 Center     Atomic      Atomic             Coordinates (Angstroms)
 Number     Number       Type             X           Y           Z
 ---------------------------------------------------------------------
      1          8           0        0.088232   -2.249879    0.000000
      2          1           0        0.088048   -1.267278    0.000000
      3          1           0       -0.841201   -2.568720    0.000000
      4          8           0        0.088232    2.105561    0.000000
      5          1           0        0.216306    3.079780    0.000000
      6          1           0       -0.874867    1.910763    0.000000
 ---------------------------------------------------------------------

 SCF Done:  E(RHF) =  -152.108520690     A.U. after   10 cycles
 E2 =    -0.5260867475D+00 EUMP2 =    -0.15263460743773D+03
 CCSD(T)
 CCSD(T)= -0.15266177736D+03

 The electronic state is 1-A'.
 Alpha  occ. eigenvalues --  -20.56699 -20.54959  -1.33990  -1.32265  -0.71421
 Alpha  occ. eigenvalues --   -0.69642  -0.57472  -0.55721  -0.51101  -0.49382
 Alpha virt. eigenvalues --    0.11705   0.15688   0.19462   0.23172   0.54357
 Alpha virt. eigenvalues --    0.54727   0.56449   0.58194   0.68283   0.69141
 Alpha virt. eigenvalues --    0.77769   0.78589   0.79493   0.80907   0.82757

 Mulliken charges:
               1
     1  O   -0.512423
     2  H    0.261459
     3  H    0.248976
     4  O   -0.508550
     5  H    0.259670
     6  H    0.250867
 Sum of Mulliken charges =  -0.00000

 Dipole moment (field-independent basis, Debye):
    X=             -3.0028    Y=              2.5984    Z=              0.0000  Tot=              3.9709
 Quadrupole moment (field-independent basis, Debye-Ang):
   XX=            -10.5638   YY=             -8.6729   ZZ=            -14.7144
   XY=              2.5693   XZ=              0.0000   YZ=              0.0000

 CCSD(T)=-152.6617774\RMSD=7.147e-09\PG=CS [SG(H4O2)]\\@
 Normal termination of Gaussian 16 at Fri Aug 26 18:13:17 2022.
