 Gaussian 16, Revision A.03,
 Gaussian 16:  ES64L-G16RevA.03 25-Dec-2016

 ------------------
 #p CCSD(T)/cc-pVTZ
 ------------------

 -----------
 H2O_H2O_774
 -----------
 Symbolic Z-matrix:
 Charge =  0 Multiplicity = 1

                         Standard orientation:
 ---------------------------------------------------------------------
 Center     Atomic      Atomic             Coordinates (Angstroms)
 Number     Number       Type             X           Y           Z
 ---------------------------------------------------------------------
      1          8           0        0.013691   -1.400398    0.000000
      2          1           0        0.008589   -0.417810    0.000000
      3          1           0       -0.914134   -1.723887    0.000000
      4          8           0        0.013691    1.241196    0.000000
      5          1           0        0.996280    1.246298    0.000000
      6          1           0       -0.309797    2.169021    0.000000
 ---------------------------------------------------------------------

 SCF Done:  E(RHF) =  -152.107902036     A.U. after   10 cycles
 E2 =    -0.5299680006D+00 EUMP2 =    -0.15263787003673D+03
 CCSD(T)
 CCSD(T)= -0.15266457832D+03

 The electronic state is 1-A'.
 Alpha  occ. eigenvalues --  -20.59243 -20.51156  -1.37178  -1.29057  -0.75098
 Alpha  occ. eigenvalues --   -0.67970  -0.60100  -0.54019  -0.51737  -0.46136
 Alpha virt. eigenvalues --    0.11850   0.18204   0.19165   0.33246   0.48342
 Alpha virt. eigenvalues --    0.53875   0.56916   0.65896   0.68331   0.72141
 Alpha virt. eigenvalues --    0.74608   0.76249   0.80134   0.83346   0.84064

 Mulliken charges:
               1
     1  O   -0.589023
     2  H    0.293388
     3  H    0.248504
     4  O   -0.445953
     5  H    0.257904
     6  H    0.235179
 Sum of Mulliken charges =  -0.00000

 Dipole moment (field-independent basis, Debye):
    X=             -0.4632    Y=              3.5535    Z=              0.0000  Tot=              3.5835
 Quadrupole moment (field-independent basis, Debye-Ang):
   XX=             -9.6199   YY=             -9.0883   ZZ=            -14.6952
   XY=              3.7346   XZ=              0.0000   YZ=              0.0000

 Normal termination of Gaussian 16 at Fri Aug 26 20:25:42 2022.
