 Gaussian 16, Revision A.03,
 Gaussian 16:  ES64L-G16RevA.03 25-Dec-2016

 ------------------
 #p CCSD(T)/cc-pVTZ
 ------------------

 ------------
 H2O_H2O_1355
 ------------
 Symbolic Z-matrix:
 Charge =  0 Multiplicity = 1

                         Standard orientation:
 ---------------------------------------------------------------------
 Center     Atomic      Atomic             Coordinates (Angstroms)
 Number     Number       Type             X           Y           Z
 ---------------------------------------------------------------------
      1          8           0        0.079870   -1.639610    0.000000
      2          1           0        0.079157   -0.657009    0.000000
      3          1           0       -0.849392   -1.958950    0.000000
      4          8           0        0.079870    1.480584    0.000000
      5          1           0        0.395042    2.411269    0.000000
      6          1           0       -0.902725    1.476892    0.000000
 ---------------------------------------------------------------------

 SCF Done:  E(RHF) =  -152.111453894     A.U. after   10 cycles
 E2 =    -0.5277498703D+00 EUMP2 =    -0.15263920376447D+03
 CCSD(T)
 CCSD(T)= -0.15266621425D+03

 The electronic state is 1-A'.
 Alpha  occ. eigenvalues --  -20.58121 -20.53404  -1.35487  -1.30838  -0.73042
 Alpha  occ. eigenvalues --   -0.68362  -0.59107  -0.54139  -0.52561  -0.47952
 Alpha virt. eigenvalues --    0.11694   0.16775   0.19788   0.29148   0.49213
 Alpha virt. eigenvalues --    0.54898   0.57898   0.58407   0.69350   0.73570
 Alpha virt. eigenvalues --    0.74597   0.76928   0.81324   0.82299   0.83916

 Mulliken charges:
               1
     1  O   -0.534581
     2  H    0.279283
     3  H    0.238910
     4  O   -0.482901
     5  H    0.249816
     6  H    0.249474
 Sum of Mulliken charges =  -0.00000

 Dipole moment (field-independent basis, Debye):
    X=             -2.6612    Y=              3.1615    Z=              0.0000  Tot=              4.1324
 Quadrupole moment (field-independent basis, Debye-Ang):
   XX=            -10.1361   YY=             -8.6428   ZZ=            -14.7208
   XY=              2.8580   XZ=              0.0000   YZ=              0.0000

 Normal termination of Gaussian 16 at Sat Aug 27 00:04:36 2022.
