 Gaussian 16, Revision A.03,
 Gaussian 16:  ES64L-G16RevA.03 25-Dec-2016

 ------------------
 #p CCSD(T)/cc-pVTZ
 ------------------

 ------------
 H2O_H2O_2287
 ------------
 Symbolic Z-matrix:
 Charge =  0 Multiplicity = 1

                         Standard orientation:
 ---------------------------------------------------------------------
 Center     Atomic      Atomic             Coordinates (Angstroms)
 Number     Number       Type             X           Y           Z
 ---------------------------------------------------------------------
      1          8           0        0.056012    2.019359    0.000000
      2          1           0        0.054386    1.036759    0.000000
      3          1           0       -0.872953    2.339563    0.000000
      4          8           0        0.056012   -1.840478   -0.000000
      5          1           0        0.749666   -2.536431   -0.000000
      6          1           0       -0.827284   -2.270937   -0.000000
 ---------------------------------------------------------------------

 SCF Done:  E(RHF) =  -152.111279809     A.U. after   10 cycles
 E2 =    -0.5262292925D+00 EUMP2 =    -0.15263750910186D+03
 CCSD(T)
 CCSD(T)= -0.15266460173D+03

 The electronic state is 1-A'.
 Alpha  occ. eigenvalues --  -20.57109 -20.53994  -1.34365  -1.31333  -0.71760
 Alpha  occ. eigenvalues --   -0.68730  -0.57985  -0.54808  -0.51501  -0.48477
 Alpha virt. eigenvalues --    0.12234   0.16612   0.19290   0.24899   0.52281
 Alpha virt. eigenvalues --    0.55534   0.56216   0.58969   0.68971   0.71580
 Alpha virt. eigenvalues --    0.76998   0.78305   0.80394   0.82505   0.83580

 Mulliken charges:
               1
     1  O   -0.524326
     2  H    0.267560
     3  H    0.248827
     4  O   -0.508871
     5  H    0.260800
     6  H    0.256011
 Sum of Mulliken charges =  -0.00000

 Dipole moment (field-independent basis, Debye):
    X=             -1.8991    Y=             -3.3121    Z=              0.0000  Tot=              3.8179
 Quadrupole moment (field-independent basis, Debye-Ang):
   XX=             -9.2912   YY=             -7.6980   ZZ=            -14.7245
   XY=             -3.9894   XZ=             -0.0000   YZ=              0.0000

 Normal termination of Gaussian 16 at Sun Aug 28 06:00:35 2022.
