 Gaussian 16, Revision A.03,
 Gaussian 16:  ES64L-G16RevA.03 25-Dec-2016

 ------------------
 #p CCSD(T)/cc-pVTZ
 ------------------

 ------------
 H2O_H2O_1042
 ------------
 Symbolic Z-matrix:
 Charge =  0 Multiplicity = 1

                         Standard orientation:
 ---------------------------------------------------------------------
 Center     Atomic      Atomic             Coordinates (Angstroms)
 Number     Number       Type             X           Y           Z
 ---------------------------------------------------------------------
      1          8           0        0.037556    1.520766    0.000000
      2          1           0        0.034265    0.538170    0.000000
      3          1           0       -0.890864    1.842544    0.000000
      4          8           0        0.037556   -1.341894   -0.000000
      5          1           0        0.917365   -1.779437   -0.000000
      6          1           0       -0.661668   -2.032250   -0.000000
 ---------------------------------------------------------------------

 SCF Done:  E(RHF) =  -152.113674208     A.U. after   10 cycles
 E2 =    -0.5284432881D+00 EUMP2 =    -0.15264211749569D+03
 CCSD(T)
 CCSD(T)= -0.15266897351D+03

 The electronic state is 1-A'.
 Alpha  occ. eigenvalues --  -20.58745 -20.51674  -1.36225  -1.29350  -0.73461
 Alpha  occ. eigenvalues --   -0.68022  -0.59742  -0.53289  -0.52381  -0.46470
 Alpha virt. eigenvalues --    0.11893   0.18311   0.18727   0.31815   0.48679
 Alpha virt. eigenvalues --    0.54695   0.56346   0.61789   0.68637   0.71939
 Alpha virt. eigenvalues --    0.72818   0.77438   0.82301   0.82652   0.84772

 Mulliken charges:
               1
     1  O   -0.567958
     2  H    0.295412
     3  H    0.243126
     4  O   -0.493189
     5  H    0.266168
     6  H    0.256442
 Sum of Mulliken charges =   0.00000

 Dipole moment (field-independent basis, Debye):
    X=             -1.2434    Y=             -3.7462    Z=             -0.0000  Tot=              3.9471
 Quadrupole moment (field-independent basis, Debye-Ang):
   XX=             -9.1529   YY=             -8.7281   ZZ=            -14.7276
   XY=             -3.5506   XZ=             -0.0000   YZ=             -0.0000

 Normal termination of Gaussian 16 at Fri Aug 26 22:06:16 2022.
