 Gaussian 16, Revision A.03,
 Gaussian 16:  ES64L-G16RevA.03 25-Dec-2016

 ------------------
 #p CCSD(T)/cc-pVTZ
 ------------------

 ------------
 H2O_H2O_4278
 ------------
 Symbolic Z-matrix:
 Charge =  0 Multiplicity = 1

                         Standard orientation:
 ---------------------------------------------------------------------
 Center     Atomic      Atomic             Coordinates (Angstroms)
 Number     Number       Type             X           Y           Z
 ---------------------------------------------------------------------
      1          8           0        0.085597   -2.801207    0.000000
      2          1           0        0.085368   -1.818605    0.000000
      3          1           0       -0.843821   -3.120090    0.000000
      4          8           0        0.085597    2.651602    0.000000
      5          1           0        0.277069    3.615367    0.000000
      6          1           0       -0.888174    2.520167    0.000000
 ---------------------------------------------------------------------

 SCF Done:  E(RHF) =  -152.107906984     A.U. after   10 cycles
 E2 =    -0.5258664891D+00 EUMP2 =    -0.15263377347262D+03
 CCSD(T)
 CCSD(T)= -0.15266098029D+03

 The electronic state is 1-A'.
 Alpha  occ. eigenvalues --  -20.56247 -20.55181  -1.33548  -1.32484  -0.70961
 Alpha  occ. eigenvalues --   -0.69880  -0.57018  -0.55941  -0.50661  -0.49600
 Alpha virt. eigenvalues --    0.12798   0.14887   0.19143   0.21544   0.53233
 Alpha virt. eigenvalues --    0.54920   0.56546   0.57781   0.66801   0.68679
 Alpha virt. eigenvalues --    0.78232   0.79268   0.79374   0.81098   0.82276

 Mulliken charges:
               1
     1  O   -0.510775
     2  H    0.258682
     3  H    0.251945
     4  O   -0.511841
     5  H    0.258730
     6  H    0.253260
 Sum of Mulliken charges =  -0.00000

 Dipole moment (field-independent basis, Debye):
    X=             -2.9333    Y=              2.6306    Z=              0.0000  Tot=              3.9401
 Quadrupole moment (field-independent basis, Debye-Ang):
   XX=            -10.3979   YY=             -8.1694   ZZ=            -14.7128
   XY=              2.9182   XZ=              0.0000   YZ=              0.0000

 Normal termination of Gaussian 16 at Sun Aug 28 01:26:19 2022.
