 Gaussian 16, Revision A.03,
 Gaussian 16:  ES64L-G16RevA.03 25-Dec-2016

 ------------------
 #p CCSD(T)/cc-pVTZ
 ------------------

 ------------
 H2O_H2O_4045
 ------------
 Symbolic Z-matrix:
 Charge =  0 Multiplicity = 1

                         Standard orientation:
 ---------------------------------------------------------------------
 Center     Atomic      Atomic             Coordinates (Angstroms)
 Number     Number       Type             X           Y           Z
 ---------------------------------------------------------------------
      1          8           0        0.026626    2.714334    0.000000
      2          1           0        0.024485    1.731735    0.000000
      3          1           0       -0.902170    3.035025    0.000000
      4          8           0        0.026626   -2.541090   -0.000000
      5          1           0        0.975190   -2.797473   -0.000000
      6          1           0       -0.523527   -3.355238   -0.000000
 ---------------------------------------------------------------------

 SCF Done:  E(RHF) =  -152.108759819     A.U. after   10 cycles
 E2 =    -0.5258081465D+00 EUMP2 =    -0.15263456796590D+03
 CCSD(T)
 CCSD(T)= -0.15266175435D+03

 The electronic state is 1-A'.
 Alpha  occ. eigenvalues --  -20.56275 -20.54879  -1.33574  -1.32189  -0.70978
 Alpha  occ. eigenvalues --   -0.69593  -0.57080  -0.55667  -0.50695  -0.49316
 Alpha virt. eigenvalues --    0.13045   0.15171   0.19526   0.21415   0.53417
 Alpha virt. eigenvalues --    0.55016   0.56614   0.57836   0.66681   0.69022
 Alpha virt. eigenvalues --    0.78197   0.79163   0.79533   0.80265   0.82820

 Mulliken charges:
               1
     1  O   -0.515556
     2  H    0.261022
     3  H    0.254141
     4  O   -0.515873
     5  H    0.258187
     6  H    0.258078
 Sum of Mulliken charges =  -0.00000

 Dipole moment (field-independent basis, Debye):
    X=             -0.9129    Y=             -3.0551    Z=             -0.0000  Tot=              3.1886
 Quadrupole moment (field-independent basis, Debye-Ang):
   XX=             -9.2888   YY=             -6.8735   ZZ=            -14.7160
   XY=             -6.4798   XZ=             -0.0000   YZ=             -0.0000

 Normal termination of Gaussian 16 at Sat Aug 27 22:57:06 2022.
