 Gaussian 16, Revision A.03,
 Gaussian 16:  ES64L-G16RevA.03 25-Dec-2016

 ------------------
 #p CCSD(T)/cc-pVTZ
 ------------------

 ------------
 H2O_H2O_4099
 ------------
 Symbolic Z-matrix:
 Charge =  0 Multiplicity = 1

                         Standard orientation:
 ---------------------------------------------------------------------
 Center     Atomic      Atomic             Coordinates (Angstroms)
 Number     Number       Type             X           Y           Z
 ---------------------------------------------------------------------
      1          8           0       -0.013484    2.726692    0.000000
      2          1           0       -0.010938    1.744093    0.000000
      3          1           0        0.915180    3.047765    0.000000
      4          8           0       -0.013484   -2.567418    0.000000
      5          1           0       -0.996082   -2.569964    0.000000
      6          1           0        0.307589   -3.496082    0.000000
 ---------------------------------------------------------------------

 SCF Done:  E(RHF) =  -152.108624255     A.U. after   10 cycles
 E2 =    -0.5258074278D+00 EUMP2 =    -0.15263443168267D+03
 CCSD(T)
 CCSD(T)= -0.15266162275D+03

 The electronic state is 1-A'.
 Alpha  occ. eigenvalues --  -20.56259 -20.55013  -1.33561  -1.32322  -0.70968
 Alpha  occ. eigenvalues --   -0.69729  -0.57059  -0.55799  -0.50680  -0.49448
 Alpha virt. eigenvalues --    0.12892   0.15104   0.19249   0.21685   0.53238
 Alpha virt. eigenvalues --    0.55092   0.56631   0.57823   0.66699   0.68893
 Alpha virt. eigenvalues --    0.78210   0.79171   0.79406   0.80849   0.82662

 Mulliken charges:
               1
     1  O   -0.515162
     2  H    0.259824
     3  H    0.255048
     4  O   -0.515477
     5  H    0.257167
     6  H    0.258600
 Sum of Mulliken charges =  -0.00000

 Dipole moment (field-independent basis, Debye):
    X=              0.4643    Y=             -2.8050    Z=              0.0000  Tot=              2.8432
 Quadrupole moment (field-independent basis, Debye-Ang):
   XX=             -9.6480   YY=             -7.6105   ZZ=            -14.7154
   XY=              7.3850   XZ=              0.0000   YZ=              0.0000

 10902\MP4DQ=-152.643547\MP4SDQ=-152.6465934\CCSD=-152.6460087\CCSD(T)=
 Normal termination of Gaussian 16 at Sat Aug 27 23:29:12 2022.
