 Gaussian 16, Revision A.03,
 Gaussian 16:  ES64L-G16RevA.03 25-Dec-2016

 ------------------
 #p CCSD(T)/cc-pVTZ
 ------------------

 ------------
 H2O_H2O_2940
 ------------
 Symbolic Z-matrix:
 Charge =  0 Multiplicity = 1

                         Standard orientation:
 ---------------------------------------------------------------------
 Center     Atomic      Atomic             Coordinates (Angstroms)
 Number     Number       Type             X           Y           Z
 ---------------------------------------------------------------------
      1          8           0        0.044864    2.279452    0.000000
      2          1           0        0.042999    1.296852    0.000000
      3          1           0       -0.884023    2.599881   -0.000000
      4          8           0        0.044864   -2.099058    0.000000
      5          1           0        0.860830   -2.646511    0.000000
      6          1           0       -0.737626   -2.693377   -0.000000
 ---------------------------------------------------------------------

 SCF Done:  E(RHF) =  -152.110030598     A.U. after   10 cycles
 E2 =    -0.5259491682D+00 EUMP2 =    -0.15263597976642D+03
 CCSD(T)
 CCSD(T)= -0.15266311675D+03

 The electronic state is 1-A'.
 Alpha  occ. eigenvalues --  -20.56682 -20.54393  -1.33957  -1.31715  -0.71356
 Alpha  occ. eigenvalues --   -0.69109  -0.57509  -0.55204  -0.51088  -0.48852
 Alpha virt. eigenvalues --    0.12492   0.16012   0.19440   0.22839   0.53123
 Alpha virt. eigenvalues --    0.55496   0.56351   0.58635   0.68525   0.69324
 Alpha virt. eigenvalues --    0.77797   0.79141   0.79365   0.79975   0.83306

 Mulliken charges:
               1
     1  O   -0.519817
     2  H    0.264764
     3  H    0.251732
     4  O   -0.514051
     5  H    0.260166
     6  H    0.257207
 Sum of Mulliken charges =  -0.00000

 Dipole moment (field-independent basis, Debye):
    X=             -1.5291    Y=             -3.2558    Z=             -0.0000  Tot=              3.5970
 Quadrupole moment (field-independent basis, Debye-Ang):
   XX=             -9.1572   YY=             -7.2220   ZZ=            -14.7204
   XY=             -4.7513   XZ=              0.0000   YZ=             -0.0000

 CCSD(T)=-152.6631168\RMSD=6.821e-09\PG=CS [SG(H4O2)]\\@
 Normal termination of Gaussian 16 at Fri Aug 26 18:34:30 2022.
