 Gaussian 16, Revision A.03,
 Gaussian 16:  ES64L-G16RevA.03 25-Dec-2016

 ------------------
 #p CCSD(T)/cc-pVTZ
 ------------------

 ------------
 H2O_H2O_3493
 ------------
 Symbolic Z-matrix:
 Charge =  0 Multiplicity = 1

                         Standard orientation:
 ---------------------------------------------------------------------
 Center     Atomic      Atomic             Coordinates (Angstroms)
 Number     Number       Type             X           Y           Z
 ---------------------------------------------------------------------
      1          8           0        0.033778    2.497280   -0.000000
      2          1           0        0.031694    1.514681   -0.000000
      3          1           0       -0.895037    2.817918   -0.000000
      4          8           0        0.033778   -2.319748    0.000000
      5          1           0        0.940784   -2.697699    0.000000
      6          1           0       -0.617894   -3.055159    0.000000
 ---------------------------------------------------------------------

 SCF Done:  E(RHF) =  -152.109283804     A.U. after   10 cycles
 E2 =    -0.5258489168D+00 EUMP2 =    -0.15263513272084D+03
 CCSD(T)
 CCSD(T)= -0.15266229857D+03

 The electronic state is 1-A'.
 Alpha  occ. eigenvalues --  -20.56439 -20.54666  -1.33729  -1.31981  -0.71131
 Alpha  occ. eigenvalues --   -0.69381  -0.57253  -0.55466  -0.50855  -0.49113
 Alpha virt. eigenvalues --    0.12741   0.15552   0.19511   0.21890   0.53377
 Alpha virt. eigenvalues --    0.55182   0.56513   0.58014   0.67041   0.69321
 Alpha virt. eigenvalues --    0.78048   0.78905   0.79725   0.79797   0.83038

 Mulliken charges:
               1
     1  O   -0.517353
     2  H    0.262702
     3  H    0.253349
     4  O   -0.516011
     5  H    0.259252
     6  H    0.258061
 Sum of Mulliken charges =  -0.00000

 Dipole moment (field-independent basis, Debye):
    X=             -1.1551    Y=             -3.1596    Z=              0.0000  Tot=              3.3641
 Quadrupole moment (field-independent basis, Debye-Ang):
   XX=             -9.1861   YY=             -6.9859   ZZ=            -14.7179
   XY=             -5.6266   XZ=              0.0000   YZ=             -0.0000

 Normal termination of Gaussian 16 at Fri Aug 26 22:00:01 2022.
