 Gaussian 16, Revision A.03,
 Gaussian 16:  ES64L-G16RevA.03 25-Dec-2016

 ------------------
 #p CCSD(T)/cc-pVTZ
 ------------------

 -----------
 H2O_H2O_963
 -----------
 Symbolic Z-matrix:
 Charge =  0 Multiplicity = 1

                         Standard orientation:
 ---------------------------------------------------------------------
 Center     Atomic      Atomic             Coordinates (Angstroms)
 Number     Number       Type             X           Y           Z
 ---------------------------------------------------------------------
      1          8           0        0.052384    1.491346   -0.000000
      2          1           0        0.049922    0.508747   -0.000000
      3          1           0       -0.876307    1.812340   -0.000000
      4          8           0        0.052384   -1.311555    0.000000
      5          1           0        0.789518   -1.961278    0.000000
      6          1           0       -0.801281   -1.798136    0.000000
 ---------------------------------------------------------------------

 SCF Done:  E(RHF) =  -152.112853757     A.U. after   10 cycles
 E2 =    -0.5288550371D+00 EUMP2 =    -0.15264170879454D+03
 CCSD(T)
 CCSD(T)= -0.15266852610D+03

 The electronic state is 1-A'.
 Alpha  occ. eigenvalues --  -20.58935 -20.51422  -1.36476  -1.29155  -0.73650
 Alpha  occ. eigenvalues --   -0.68242  -0.59706  -0.53513  -0.52118  -0.46254
 Alpha virt. eigenvalues --    0.11748   0.17850   0.19146   0.32131   0.48260
 Alpha virt. eigenvalues --    0.54591   0.57609   0.60650   0.69710   0.71638
 Alpha virt. eigenvalues --    0.72672   0.77443   0.82290   0.82695   0.84767

 Mulliken charges:
               1
     1  O   -0.569837
     2  H    0.300430
     3  H    0.237715
     4  O   -0.488961
     5  H    0.264103
     6  H    0.256551
 Sum of Mulliken charges =  -0.00000

 Dipole moment (field-independent basis, Debye):
    X=             -1.7237    Y=             -3.8168    Z=              0.0000  Tot=              4.1880
 Quadrupole moment (field-independent basis, Debye-Ang):
   XX=             -9.2282   YY=             -8.8087   ZZ=            -14.7230
   XY=             -3.3245   XZ=              0.0000   YZ=             -0.0000

 Normal termination of Gaussian 16 at Fri Aug 26 21:36:24 2022.
