 Gaussian 16, Revision A.03,
 Gaussian 16:  ES64L-G16RevA.03 25-Dec-2016

 ------------------
 #p CCSD(T)/cc-pVTZ
 ------------------

 ------------
 H2O_H2O_1855
 ------------
 Symbolic Z-matrix:
 Charge =  0 Multiplicity = 1

                         Standard orientation:
 ---------------------------------------------------------------------
 Center     Atomic      Atomic             Coordinates (Angstroms)
 Number     Number       Type             X           Y           Z
 ---------------------------------------------------------------------
      1          8           0       -0.079863    1.839055    0.000000
      2          1           0       -0.079232    0.856454    0.000000
      3          1           0        0.849425    2.158319    0.000000
      4          8           0       -0.079863   -1.680017    0.000000
      5          1           0       -0.395113   -2.610675    0.000000
      6          1           0        0.902732   -1.676406    0.000000
 ---------------------------------------------------------------------

 SCF Done:  E(RHF) =  -152.110887161     A.U. after   10 cycles
 E2 =    -0.5267549308D+00 EUMP2 =    -0.15263764209134D+03
 CCSD(T)
 CCSD(T)= -0.15266472252D+03

 The electronic state is 1-A'.
 Alpha  occ. eigenvalues --  -20.57480 -20.54086  -1.34763  -1.31432  -0.72227
 Alpha  occ. eigenvalues --   -0.68813  -0.58367  -0.54853  -0.51874  -0.48561
 Alpha virt. eigenvalues --    0.11796   0.16544   0.19667   0.26410   0.51088
 Alpha virt. eigenvalues --    0.55543   0.56626   0.58066   0.68986   0.73589
 Alpha virt. eigenvalues --    0.75658   0.78205   0.80511   0.83118   0.83537

 Mulliken charges:
               1
     1  O   -0.522916
     2  H    0.269004
     3  H    0.244041
     4  O   -0.500769
     5  H    0.258952
     6  H    0.251688
 Sum of Mulliken charges =  -0.00000

 Dipole moment (field-independent basis, Debye):
    X=              2.6900    Y=             -3.0120    Z=              0.0000  Tot=              4.0384
 Quadrupole moment (field-independent basis, Debye-Ang):
   XX=            -10.1250   YY=             -8.4136   ZZ=            -14.7227
   XY=              2.9622   XZ=              0.0000   YZ=              0.0000

 Normal termination of Gaussian 16 at Sun Aug 28 02:14:03 2022.
