 Gaussian 16, Revision A.03,
 Gaussian 16:  ES64L-G16RevA.03 25-Dec-2016

 ------------------
 #p CCSD(T)/cc-pVTZ
 ------------------

 -----------
 H2O_H2O_884
 -----------
 Symbolic Z-matrix:
 Charge =  0 Multiplicity = 1

                         Standard orientation:
 ---------------------------------------------------------------------
 Center     Atomic      Atomic             Coordinates (Angstroms)
 Number     Number       Type             X           Y           Z
 ---------------------------------------------------------------------
      1          8           0        0.066817    1.457747    0.000000
      2          1           0        0.065196    0.475147    0.000000
      3          1           0       -0.862150    1.777947    0.000000
      4          8           0        0.066817   -1.284730   -0.000000
      5          1           0        0.611373   -2.102633   -0.000000
      6          1           0       -0.883484   -1.534600   -0.000000
 ---------------------------------------------------------------------

 SCF Done:  E(RHF) =  -152.110795056     A.U. after   10 cycles
 E2 =    -0.5294262579D+00 EUMP2 =    -0.15264022131364D+03
 CCSD(T)
 CCSD(T)= -0.15266700581D+03

 The electronic state is 1-A'.
 Alpha  occ. eigenvalues --  -20.59092 -20.51457  -1.36746  -1.29225  -0.74089
 Alpha  occ. eigenvalues --   -0.68400  -0.59665  -0.53721  -0.52140  -0.46298
 Alpha virt. eigenvalues --    0.11590   0.17304   0.19598   0.32237   0.48125
 Alpha virt. eigenvalues --    0.54370   0.59295   0.59860   0.69917   0.72475
 Alpha virt. eigenvalues --    0.73385   0.77123   0.81551   0.82878   0.84351

 Mulliken charges:
               1
     1  O   -0.568224
     2  H    0.300470
     3  H    0.232655
     4  O   -0.467928
     5  H    0.252761
     6  H    0.250267
 Sum of Mulliken charges =  -0.00000

 Dipole moment (field-independent basis, Debye):
    X=             -2.1876    Y=             -3.7288    Z=             -0.0000  Tot=              4.3231
 Quadrupole moment (field-independent basis, Debye-Ang):
   XX=             -9.5826   YY=             -8.8996   ZZ=            -14.7107
   XY=             -3.0777   XZ=             -0.0000   YZ=              0.0000

 Normal termination of Gaussian 16 at Fri Aug 26 21:07:31 2022.
