 Gaussian 16, Revision A.03,
 Gaussian 16:  ES64L-G16RevA.03 25-Dec-2016

 ------------------
 #p CCSD(T)/cc-pVTZ
 ------------------

 ------------
 H2O_H2O_3936
 ------------
 Symbolic Z-matrix:
 Charge =  0 Multiplicity = 1

                         Standard orientation:
 ---------------------------------------------------------------------
 Center     Atomic      Atomic             Coordinates (Angstroms)
 Number     Number       Type             X           Y           Z
 ---------------------------------------------------------------------
      1          8           0        0.059627    2.676734   -0.000000
      2          1           0        0.058534    1.694133   -0.000000
      3          1           0       -0.869511    2.996433   -0.000000
      4          8           0        0.059627   -2.499269    0.000000
      5          1           0        0.706680   -3.238749    0.000000
      6          1           0       -0.849729   -2.871530    0.000000
 ---------------------------------------------------------------------

 SCF Done:  E(RHF) =  -152.108648360     A.U. after   10 cycles
 E2 =    -0.5258374748D+00 EUMP2 =    -0.15263448583457D+03
 CCSD(T)
 CCSD(T)= -0.15266167213D+03

 The electronic state is 1-A'.
 Alpha  occ. eigenvalues --  -20.56313 -20.54833  -1.33610  -1.32143  -0.71015
 Alpha  occ. eigenvalues --   -0.69539  -0.57110  -0.55616  -0.50730  -0.49267
 Alpha virt. eigenvalues --    0.12990   0.15206   0.19589   0.21364   0.53479
 Alpha virt. eigenvalues --    0.54942   0.56554   0.57857   0.66689   0.69114
 Alpha virt. eigenvalues --    0.78166   0.79187   0.79583   0.79934   0.82864

 Mulliken charges:
               1
     1  O   -0.514383
     2  H    0.261553
     3  H    0.252312
     4  O   -0.514879
     5  H    0.259348
     6  H    0.256049
 Sum of Mulliken charges =  -0.00000

 Dipole moment (field-independent basis, Debye):
    X=             -2.0412    Y=             -3.1353    Z=              0.0000  Tot=              3.7412
 Quadrupole moment (field-independent basis, Debye-Ang):
   XX=             -9.3624   YY=             -6.7298   ZZ=            -14.7156
   XY=             -4.6364   XZ=              0.0000   YZ=             -0.0000

 CCSD(T)=-152.6616721\RMSD=7.116e-09\PG=CS [SG(H4O2)]\\@
 Normal termination of Gaussian 16 at Sat Aug 27 00:33:56 2022.
