 Gaussian 16, Revision A.03,
 Gaussian 16:  ES64L-G16RevA.03 25-Dec-2016

 ------------------
 #p CCSD(T)/cc-pVTZ
 ------------------

 ------------
 H2O_H2O_3977
 ------------
 Symbolic Z-matrix:
 Charge =  0 Multiplicity = 1

                         Standard orientation:
 ---------------------------------------------------------------------
 Center     Atomic      Atomic             Coordinates (Angstroms)
 Number     Number       Type             X           Y           Z
 ---------------------------------------------------------------------
      1          8           0        0.088230   -2.678675    0.000000
      2          1           0        0.088076   -1.696074    0.000000
      3          1           0       -0.841213   -2.997487    0.000000
      4          8           0        0.088230    2.534351    0.000000
      5          1           0        0.216333    3.508567    0.000000
      6          1           0       -0.874875    2.339584    0.000000
 ---------------------------------------------------------------------

 SCF Done:  E(RHF) =  -152.107907571     A.U. after   10 cycles
 E2 =    -0.5258919524D+00 EUMP2 =    -0.15263379952317D+03
 CCSD(T)
 CCSD(T)= -0.15266100379D+03

 The electronic state is 1-A'.
 Alpha  occ. eigenvalues --  -20.56317 -20.55185  -1.33617  -1.32488  -0.71034
 Alpha  occ. eigenvalues --   -0.69882  -0.57086  -0.55944  -0.50729  -0.49603
 Alpha virt. eigenvalues --    0.12421   0.15036   0.19031   0.21940   0.53145
 Alpha virt. eigenvalues --    0.54979   0.56499   0.57863   0.66748   0.68802
 Alpha virt. eigenvalues --    0.78169   0.79115   0.79265   0.81280   0.82415

 Mulliken charges:
               1
     1  O   -0.510493
     2  H    0.258712
     3  H    0.251503
     4  O   -0.511479
     5  H    0.259120
     6  H    0.252638
 Sum of Mulliken charges =  -0.00000

 Dipole moment (field-independent basis, Debye):
    X=             -3.0204    Y=              2.5459    Z=              0.0000  Tot=              3.9502
 Quadrupole moment (field-independent basis, Debye-Ang):
   XX=            -10.5522   YY=             -8.5472   ZZ=            -14.7127
   XY=              2.6445   XZ=              0.0000   YZ=              0.0000

 Normal termination of Gaussian 16 at Sat Aug 27 00:47:46 2022.
