 Gaussian 16, Revision A.03,
 Gaussian 16:  ES64L-G16RevA.03 25-Dec-2016

 ------------------
 #p CCSD(T)/cc-pVTZ
 ------------------

 ------------
 H2O_H2O_3823
 ------------
 Symbolic Z-matrix:
 Charge =  0 Multiplicity = 1

                         Standard orientation:
 ---------------------------------------------------------------------
 Center     Atomic      Atomic             Coordinates (Angstroms)
 Number     Number       Type             X           Y           Z
 ---------------------------------------------------------------------
      1          8           0       -0.016601    2.619242    0.000000
      2          1           0       -0.014049    1.636644    0.000000
      3          1           0        0.912061    2.940322    0.000000
      4          8           0       -0.016601   -2.455842    0.000000
      5          1           0       -0.996928   -2.522653    0.000000
      6          1           0        0.364529   -3.361515    0.000000
 ---------------------------------------------------------------------

 SCF Done:  E(RHF) =  -152.108860713     A.U. after   10 cycles
 E2 =    -0.5258188454D+00 EUMP2 =    -0.15263467955876D+03
 CCSD(T)
 CCSD(T)= -0.15266186181D+03

 The electronic state is 1-A'.
 Alpha  occ. eigenvalues --  -20.56328 -20.54908  -1.33627  -1.32219  -0.71033
 Alpha  occ. eigenvalues --   -0.69626  -0.57134  -0.55700  -0.50748  -0.49348
 Alpha virt. eigenvalues --    0.12748   0.15286   0.19291   0.21845   0.53239
 Alpha virt. eigenvalues --    0.55195   0.56596   0.57870   0.66718   0.69094
 Alpha virt. eigenvalues --    0.78147   0.78908   0.79501   0.80672   0.82810

 Mulliken charges:
               1
     1  O   -0.516067
     2  H    0.260683
     3  H    0.254809
     4  O   -0.515947
     5  H    0.257739
     6  H    0.258783
 Sum of Mulliken charges =  -0.00000

 Dipole moment (field-independent basis, Debye):
    X=              0.5705    Y=             -2.8889    Z=              0.0000  Tot=              2.9446
 Quadrupole moment (field-independent basis, Debye-Ang):
   XX=             -9.5429   YY=             -7.4889   ZZ=            -14.7163
   XY=              6.8759   XZ=              0.0000   YZ=              0.0000

 Normal termination of Gaussian 16 at Fri Aug 26 23:53:17 2022.
