 Gaussian 16, Revision A.03,
 Gaussian 16:  ES64L-G16RevA.03 25-Dec-2016

 ------------------
 #p CCSD(T)/cc-pVTZ
 ------------------

 ------------
 H2O_H2O_1778
 ------------
 Symbolic Z-matrix:
 Charge =  0 Multiplicity = 1

                         Standard orientation:
 ---------------------------------------------------------------------
 Center     Atomic      Atomic             Coordinates (Angstroms)
 Number     Number       Type             X           Y           Z
 ---------------------------------------------------------------------
      1          8           0        0.085607   -1.804002    0.000000
      2          1           0        0.085247   -0.821401    0.000000
      3          1           0       -0.843769   -2.123009    0.000000
      4          8           0        0.085607    1.654420    0.000000
      5          1           0        0.276950    2.618211    0.000000
      6          1           0       -0.888146    1.522854    0.000000
 ---------------------------------------------------------------------

 SCF Done:  E(RHF) =  -152.110281064     A.U. after   10 cycles
 E2 =    -0.5269340307D+00 EUMP2 =    -0.15263721509439D+03
 CCSD(T)
 CCSD(T)= -0.15266430423D+03

 The electronic state is 1-A'.
 Alpha  occ. eigenvalues --  -20.57547 -20.54263  -1.34847  -1.31605  -0.72370
 Alpha  occ. eigenvalues --   -0.68951  -0.58415  -0.55013  -0.51944  -0.48724
 Alpha virt. eigenvalues --    0.11658   0.16417   0.19930   0.26621   0.50920
 Alpha virt. eigenvalues --    0.55381   0.57093   0.57773   0.68662   0.74270
 Alpha virt. eigenvalues --    0.75280   0.78056   0.80433   0.82846   0.83448

 Mulliken charges:
               1
     1  O   -0.521456
     2  H    0.269432
     3  H    0.242933
     4  O   -0.496628
     5  H    0.256822
     6  H    0.248897
 Sum of Mulliken charges =  -0.00000

 Dipole moment (field-independent basis, Debye):
    X=             -2.8777    Y=              2.8452    Z=              0.0000  Tot=              4.0468
 Quadrupole moment (field-independent basis, Debye-Ang):
   XX=            -10.4360   YY=             -8.6723   ZZ=            -14.7194
   XY=              2.6450   XZ=              0.0000   YZ=              0.0000

 Normal termination of Gaussian 16 at Sun Aug 28 01:29:22 2022.
