 Gaussian 16, Revision A.03,
 Gaussian 16:  ES64L-G16RevA.03 25-Dec-2016

 ------------------
 #p CCSD(T)/cc-pVTZ
 ------------------

 ------------
 H2O_H2O_3503
 ------------
 Symbolic Z-matrix:
 Charge =  0 Multiplicity = 1

                         Standard orientation:
 ---------------------------------------------------------------------
 Center     Atomic      Atomic             Coordinates (Angstroms)
 Number     Number       Type             X           Y           Z
 ---------------------------------------------------------------------
      1          8           0        0.085600   -2.492074    0.000000
      2          1           0        0.085342   -1.509473    0.000000
      3          1           0       -0.843810   -2.810985    0.000000
      4          8           0        0.085600    2.342474    0.000000
      5          1           0        0.277043    3.306246    0.000000
      6          1           0       -0.888168    2.211011    0.000000
 ---------------------------------------------------------------------

 SCF Done:  E(RHF) =  -152.108236628     A.U. after   10 cycles
 E2 =    -0.5259357782D+00 EUMP2 =    -0.15263417240639D+03
 CCSD(T)
 CCSD(T)= -0.15266136179D+03

 The electronic state is 1-A'.
 Alpha  occ. eigenvalues --  -20.56452 -20.55038  -1.33749  -1.32344  -0.71167
 Alpha  occ. eigenvalues --   -0.69733  -0.57227  -0.55803  -0.50862  -0.49461
 Alpha virt. eigenvalues --    0.12131   0.15340   0.19205   0.22245   0.53400
 Alpha virt. eigenvalues --    0.55008   0.56444   0.58052   0.66970   0.69055
 Alpha virt. eigenvalues --    0.78043   0.78659   0.79400   0.81063   0.82623

 Mulliken charges:
               1
     1  O   -0.511539
     2  H    0.260019
     3  H    0.250689
     4  O   -0.511504
     5  H    0.259707
     6  H    0.252628
 Sum of Mulliken charges =  -0.00000

 Dipole moment (field-independent basis, Debye):
    X=             -2.9242    Y=              2.6583    Z=              0.0000  Tot=              3.9519
 Quadrupole moment (field-independent basis, Debye-Ang):
   XX=            -10.4030   YY=             -8.3250   ZZ=            -14.7139
   XY=              2.8362   XZ=              0.0000   YZ=              0.0000

 CCSD(T)=-152.6613618\RMSD=7.212e-09\PG=CS [SG(H4O2)]\\@
 Normal termination of Gaussian 16 at Fri Aug 26 22:04:40 2022.
