 Gaussian 16, Revision A.03,
 Gaussian 16:  ES64L-G16RevA.03 25-Dec-2016

 ------------------
 #p CCSD(T)/cc-pVTZ
 ------------------

 ------------
 H2O_H2O_2933
 ------------
 Symbolic Z-matrix:
 Charge =  0 Multiplicity = 1

                         Standard orientation:
 ---------------------------------------------------------------------
 Center     Atomic      Atomic             Coordinates (Angstroms)
 Number     Number       Type             X           Y           Z
 ---------------------------------------------------------------------
      1          8           0        0.070201    2.273933   -0.000000
      2          1           0        0.069319    1.291332   -0.000000
      3          1           0       -0.859005    2.593434   -0.000000
      4          8           0        0.070201   -2.103692    0.000000
      5          1           0        0.560737   -2.955092    0.000000
      6          1           0       -0.894267   -2.291599    0.000000
 ---------------------------------------------------------------------

 SCF Done:  E(RHF) =  -152.109458005     A.U. after   10 cycles
 E2 =    -0.5260041556D+00 EUMP2 =    -0.15263546216030D+03
 CCSD(T)
 CCSD(T)= -0.15266261005D+03

 The electronic state is 1-A'.
 Alpha  occ. eigenvalues --  -20.56689 -20.54567  -1.33970  -1.31884  -0.71380
 Alpha  occ. eigenvalues --   -0.69269  -0.57493  -0.55359  -0.51093  -0.49012
 Alpha virt. eigenvalues --    0.12250   0.15882   0.19435   0.22800   0.53539
 Alpha virt. eigenvalues --    0.55308   0.56276   0.58578   0.68331   0.69335
 Alpha virt. eigenvalues --    0.77791   0.78941   0.79829   0.80040   0.83094

 Mulliken charges:
               1
     1  O   -0.516643
     2  H    0.263805
     3  H    0.249875
     4  O   -0.511806
     5  H    0.260040
     6  H    0.254729
 Sum of Mulliken charges =  -0.00000

 Dipole moment (field-independent basis, Debye):
    X=             -2.3914    Y=             -3.0703    Z=              0.0000  Tot=              3.8918
 Quadrupole moment (field-independent basis, Debye-Ang):
   XX=             -9.6862   YY=             -7.5947   ZZ=            -14.7182
   XY=             -3.6990   XZ=              0.0000   YZ=             -0.0000

 Normal termination of Gaussian 16 at Fri Aug 26 18:29:52 2022.
