 Gaussian 16, Revision A.03,
 Gaussian 16:  ES64L-G16RevA.03 25-Dec-2016

 ------------------
 #p CCSD(T)/cc-pVTZ
 ------------------

 ------------
 H2O_H2O_3856
 ------------
 Symbolic Z-matrix:
 Charge =  0 Multiplicity = 1

                         Standard orientation:
 ---------------------------------------------------------------------
 Center     Atomic      Atomic             Coordinates (Angstroms)
 Number     Number       Type             X           Y           Z
 ---------------------------------------------------------------------
      1          8           0        0.076752    2.639079   -0.000000
      2          1           0        0.076215    1.656478   -0.000000
      3          1           0       -0.852566    2.958254   -0.000000
      4          8           0        0.076752   -2.475860    0.000000
      5          1           0        0.452281   -3.383872    0.000000
      6          1           0       -0.903969   -2.536615    0.000000
 ---------------------------------------------------------------------

 SCF Done:  E(RHF) =  -152.108346507     A.U. after   10 cycles
 E2 =    -0.5258717248D+00 EUMP2 =    -0.15263421823188D+03
 CCSD(T)
 CCSD(T)= -0.15266141022D+03

 The electronic state is 1-A'.
 Alpha  occ. eigenvalues --  -20.56341 -20.54966  -1.33639  -1.32273  -0.71050
 Alpha  occ. eigenvalues --   -0.69667  -0.57125  -0.55738  -0.50755  -0.49393
 Alpha virt. eigenvalues --    0.12685   0.15177   0.19359   0.21601   0.53262
 Alpha virt. eigenvalues --    0.55029   0.56501   0.57916   0.66720   0.69043
 Alpha virt. eigenvalues --    0.78143   0.78908   0.79464   0.80624   0.82716

 Mulliken charges:
               1
     1  O   -0.512582
     2  H    0.260505
     3  H    0.251567
     4  O   -0.513264
     5  H    0.259483
     6  H    0.254291
 Sum of Mulliken charges =   0.00000

 Dipole moment (field-independent basis, Debye):
    X=             -2.6264    Y=             -2.8856    Z=              0.0000  Tot=              3.9019
 Quadrupole moment (field-independent basis, Debye-Ang):
   XX=             -9.9503   YY=             -7.5037   ZZ=            -14.7145
   XY=             -3.5602   XZ=              0.0000   YZ=             -0.0000

 CCSD(T)=-152.6614102\RMSD=7.183e-09\PG=CS [SG(H4O2)]\\@
 Normal termination of Gaussian 16 at Sat Aug 27 00:06:45 2022.
