 Gaussian 16, Revision A.03,
 Gaussian 16:  ES64L-G16RevA.03 25-Dec-2016

 ------------------
 #p CCSD(T)/cc-pVTZ
 ------------------

 ----------
 H2O_H2O_39
 ----------
 Symbolic Z-matrix:
 Charge =  0 Multiplicity = 1

                         Standard orientation:
 ---------------------------------------------------------------------
 Center     Atomic      Atomic             Coordinates (Angstroms)
 Number     Number       Type             X           Y           Z
 ---------------------------------------------------------------------
      1          8           0        0.048765    1.122609   -0.000000
      2          1           0        0.045117    0.140015   -0.000000
      3          1           0       -0.879539    1.444724   -0.000000
      4          8           0        0.048765   -0.942417    0.000000
      5          1           0        0.826089   -1.543477    0.000000
      6          1           0       -0.771902   -1.482799    0.000000
 ---------------------------------------------------------------------

 SCF Done:  E(RHF) =  -152.034579674     A.U. after   11 cycles
 E2 =    -0.5359841768D+00 EUMP2 =    -0.15257056385068D+03
 CCSD(T)
 CCSD(T)= -0.15259606517D+03

 The electronic state is 1-A'.
 Alpha  occ. eigenvalues --  -20.62210 -20.43639  -1.44272  -1.24181  -0.79743
 Alpha  occ. eigenvalues --   -0.78341  -0.58937  -0.54218  -0.43790  -0.40589
 Alpha virt. eigenvalues --    0.10244   0.16278   0.21321   0.32789   0.46982
 Alpha virt. eigenvalues --    0.51786   0.63295   0.64367   0.70365   0.70743
 Alpha virt. eigenvalues --    0.78794   0.79416   0.81692   0.82391   0.89061

 Mulliken charges:
               1
     1  O   -0.678695
     2  H    0.282675
     3  H    0.199195
     4  O   -0.296249
     5  H    0.251145
     6  H    0.241928
 Sum of Mulliken charges =  -0.00000

 Dipole moment (field-independent basis, Debye):
    X=             -1.4631    Y=             -5.1531    Z=              0.0000  Tot=              5.3568
 Quadrupole moment (field-independent basis, Debye-Ang):
   XX=             -9.1262   YY=            -10.3025   ZZ=            -14.5465
   XY=             -2.6403   XZ=              0.0000   YZ=              0.0000

 Normal termination of Gaussian 16 at Fri Aug 26 15:27:10 2022.
