 Gaussian 16, Revision A.03,
 Gaussian 16:  ES64L-G16RevA.03 25-Dec-2016

 ------------------
 #p CCSD(T)/cc-pVTZ
 ------------------

 ------------
 H2O_H2O_4334
 ------------
 Symbolic Z-matrix:
 Charge =  0 Multiplicity = 1

                         Standard orientation:
 ---------------------------------------------------------------------
 Center     Atomic      Atomic             Coordinates (Angstroms)
 Number     Number       Type             X           Y           Z
 ---------------------------------------------------------------------
      1          8           0        0.066745    2.833928   -0.000000
      2          1           0        0.065936    1.851327   -0.000000
      3          1           0       -0.862485    3.153360   -0.000000
      4          8           0        0.066745   -2.660801    0.000000
      5          1           0        0.611976   -3.478253    0.000000
      6          1           0       -0.883349   -2.911455    0.000000
 ---------------------------------------------------------------------

 SCF Done:  E(RHF) =  -152.108300266     A.U. after   10 cycles
 E2 =    -0.5258302787D+00 EUMP2 =    -0.15263413054436D+03
 CCSD(T)
 CCSD(T)= -0.15266132876D+03

 The electronic state is 1-A'.
 Alpha  occ. eigenvalues --  -20.56224 -20.54976  -1.33524  -1.32283  -0.70932
 Alpha  occ. eigenvalues --   -0.69681  -0.57012  -0.55750  -0.50642  -0.49404
 Alpha virt. eigenvalues --    0.13187   0.14958   0.19574   0.21145   0.53506
 Alpha virt. eigenvalues --    0.54894   0.56610   0.57795   0.66774   0.68819
 Alpha virt. eigenvalues --    0.78248   0.79392   0.79454   0.80354   0.82676

 Mulliken charges:
               1
     1  O   -0.512967
     2  H    0.260320
     3  H    0.252462
     4  O   -0.513883
     5  H    0.258787
     6  H    0.255281
 Sum of Mulliken charges =   0.00000

 Dipole moment (field-independent basis, Debye):
    X=             -2.2877    Y=             -3.0439    Z=              0.0000  Tot=              3.8077
 Quadrupole moment (field-independent basis, Debye-Ang):
   XX=             -9.5604   YY=             -6.7337   ZZ=            -14.7144
   XY=             -4.3731   XZ=              0.0000   YZ=             -0.0000

 Normal termination of Gaussian 16 at Sun Aug 28 01:56:04 2022.
