 Gaussian 16, Revision A.03,
 Gaussian 16:  ES64L-G16RevA.03 25-Dec-2016

 ------------------
 #p CCSD(T)/cc-pVTZ
 ------------------

 ------------
 H2O_H2O_4647
 ------------
 Symbolic Z-matrix:
 Charge =  0 Multiplicity = 1

                         Standard orientation:
 ---------------------------------------------------------------------
 Center     Atomic      Atomic             Coordinates (Angstroms)
 Number     Number       Type             X           Y           Z
 ---------------------------------------------------------------------
      1          8           0       -0.019812    2.950338    0.000000
      2          1           0       -0.017648    1.967739    0.000000
      3          1           0        0.908977    3.271050    0.000000
      4          8           0       -0.019812   -2.783211    0.000000
      5          1           0       -0.993723   -2.913611    0.000000
      6          1           0        0.419388   -3.662193    0.000000
 ---------------------------------------------------------------------

 SCF Done:  E(RHF) =  -152.108385613     A.U. after   10 cycles
 E2 =    -0.5257987904D+00 EUMP2 =    -0.15263418440313D+03
 CCSD(T)
 CCSD(T)= -0.15266138376D+03

 The electronic state is 1-A'.
 Alpha  occ. eigenvalues --  -20.56155 -20.55060  -1.33458  -1.32367  -0.70863
 Alpha  occ. eigenvalues --   -0.69773  -0.56949  -0.55839  -0.50576  -0.49490
 Alpha virt. eigenvalues --    0.13349   0.14845   0.19542   0.21115   0.53546
 Alpha virt. eigenvalues --    0.54861   0.56690   0.57763   0.66919   0.68588
 Alpha virt. eigenvalues --    0.78308   0.79368   0.79598   0.80643   0.82313

 Mulliken charges:
               1
     1  O   -0.514085
     2  H    0.259372
     3  H    0.254637
     4  O   -0.514609
     5  H    0.257076
     6  H    0.257609
 Sum of Mulliken charges =   0.00000

 Dipole moment (field-independent basis, Debye):
    X=              0.6809    Y=             -2.9289    Z=              0.0000  Tot=              3.0070
 Quadrupole moment (field-independent basis, Debye-Ang):
   XX=             -9.4477   YY=             -6.9187   ZZ=            -14.7147
   XY=              7.5006   XZ=              0.0000   YZ=              0.0000

 Normal termination of Gaussian 16 at Sun Aug 28 04:36:33 2022.
