 Gaussian 16, Revision A.03,
 Gaussian 16:  ES64L-G16RevA.03 25-Dec-2016

 ------------------
 #p CCSD(T)/cc-pVTZ
 ------------------

 ------------
 H2O_H2O_4768
 ------------
 Symbolic Z-matrix:
 Charge =  0 Multiplicity = 1

                         Standard orientation:
 ---------------------------------------------------------------------
 Center     Atomic      Atomic             Coordinates (Angstroms)
 Number     Number       Type             X           Y           Z
 ---------------------------------------------------------------------
      1          8           0        0.033745    3.005860    0.000000
      2          1           0        0.032024    2.023260    0.000000
      3          1           0       -0.895188    3.326155    0.000000
      4          8           0        0.033745   -2.828303   -0.000000
      5          1           0        0.940891   -3.205918   -0.000000
      6          1           0       -0.617655   -3.563955   -0.000000
 ---------------------------------------------------------------------

 SCF Done:  E(RHF) =  -152.108354244     A.U. after   10 cycles
 E2 =    -0.5258008557D+00 EUMP2 =    -0.15263415509987D+03
 CCSD(T)
 CCSD(T)= -0.15266135511D+03

 The electronic state is 1-A'.
 Alpha  occ. eigenvalues --  -20.56138 -20.55011  -1.33440  -1.32318  -0.70844
 Alpha  occ. eigenvalues --   -0.69721  -0.56931  -0.55788  -0.50559  -0.49440
 Alpha virt. eigenvalues --    0.13472   0.14830   0.19709   0.20963   0.53681
 Alpha virt. eigenvalues --    0.54825   0.56705   0.57778   0.66975   0.68584
 Alpha virt. eigenvalues --    0.78325   0.79418   0.79697   0.80448   0.82380

 Mulliken charges:
               1
     1  O   -0.513805
     2  H    0.259759
     3  H    0.253986
     4  O   -0.514401
     5  H    0.257548
     6  H    0.256912
 Sum of Mulliken charges =  -0.00000

 Dipole moment (field-independent basis, Debye):
    X=             -1.1584    Y=             -3.1099    Z=             -0.0000  Tot=              3.3186
 Quadrupole moment (field-independent basis, Debye-Ang):
   XX=             -9.1871   YY=             -6.2111   ZZ=            -14.7146
   XY=             -6.6662   XZ=             -0.0000   YZ=             -0.0000

 8233\MP4DQ=-152.6432791\MP4SDQ=-152.646326\CCSD=-152.6457417\CCSD(T)=-
 Normal termination of Gaussian 16 at Sun Aug 28 05:45:35 2022.
