 Gaussian 16, Revision A.03,
 Gaussian 16:  ES64L-G16RevA.03 25-Dec-2016

 ------------------
 #p CCSD(T)/cc-pVTZ
 ------------------

 ------------
 H2O_H2O_1943
 ------------
 Symbolic Z-matrix:
 Charge =  0 Multiplicity = 1

                         Standard orientation:
 ---------------------------------------------------------------------
 Center     Atomic      Atomic             Coordinates (Angstroms)
 Number     Number       Type             X           Y           Z
 ---------------------------------------------------------------------
      1          8           0        0.033843    1.878998    0.000000
      2          1           0        0.031038    0.896400    0.000000
      3          1           0       -0.894736    2.200316    0.000000
      4          8           0        0.033843   -1.701515   -0.000000
      5          1           0        0.940572   -2.080130   -0.000000
      6          1           0       -0.618369   -2.436448   -0.000000
 ---------------------------------------------------------------------

 SCF Done:  E(RHF) =  -152.112617533     A.U. after   10 cycles
 E2 =    -0.5264513401D+00 EUMP2 =    -0.15263906887319D+03
 CCSD(T)
 CCSD(T)= -0.15266612522D+03

 The electronic state is 1-A'.
 Alpha  occ. eigenvalues --  -20.57404 -20.53627  -1.34659  -1.30995  -0.72043
 Alpha  occ. eigenvalues --   -0.68443  -0.58376  -0.54448  -0.51799  -0.48151
 Alpha virt. eigenvalues --    0.12236   0.17110   0.19124   0.26573   0.51804
 Alpha virt. eigenvalues --    0.54732   0.56334   0.59018   0.69082   0.72510
 Alpha virt. eigenvalues --    0.76036   0.77620   0.80794   0.83405   0.84414

 Mulliken charges:
               1
     1  O   -0.532090
     2  H    0.269635
     3  H    0.250588
     4  O   -0.508800
     5  H    0.262301
     6  H    0.258365
 Sum of Mulliken charges =  -0.00000

 Dipole moment (field-independent basis, Debye):
    X=             -1.1453    Y=             -3.3529    Z=             -0.0000  Tot=              3.5431
 Quadrupole moment (field-independent basis, Debye-Ang):
   XX=             -9.1876   YY=             -7.9650   ZZ=            -14.7301
   XY=             -4.3577   XZ=             -0.0000   YZ=             -0.0000

 Normal termination of Gaussian 16 at Sun Aug 28 02:57:52 2022.
