 Gaussian 16, Revision A.03,
 Gaussian 16:  ES64L-G16RevA.03 25-Dec-2016

 ------------------
 #p CCSD(T)/cc-pVTZ
 ------------------

 -----------
 H2O_H2O_118
 -----------
 Symbolic Z-matrix:
 Charge =  0 Multiplicity = 1

                         Standard orientation:
 ---------------------------------------------------------------------
 Center     Atomic      Atomic             Coordinates (Angstroms)
 Number     Number       Type             X           Y           Z
 ---------------------------------------------------------------------
      1          8           0        0.034017    1.150985   -0.000000
      2          1           0        0.029290    0.168395   -0.000000
      3          1           0       -0.893933    1.474119   -0.000000
      4          8           0        0.034017   -0.973635    0.000000
      5          1           0        0.940003   -1.354023    0.000000
      6          1           0       -0.619630   -1.707291    0.000000
 ---------------------------------------------------------------------

 SCF Done:  E(RHF) =  -152.052537695     A.U. after   11 cycles
 E2 =    -0.5352269551D+00 EUMP2 =    -0.15258776465054D+03
 CCSD(T)
 CCSD(T)= -0.15261341095D+03

 The electronic state is 1-A'.
 Alpha  occ. eigenvalues --  -20.61783 -20.44670  -1.42963  -1.24735  -0.79481
 Alpha  occ. eigenvalues --   -0.75934  -0.58139  -0.55377  -0.44876  -0.41302
 Alpha virt. eigenvalues --    0.10534   0.16804   0.20901   0.33400   0.46721
 Alpha virt. eigenvalues --    0.52154   0.61788   0.67514   0.70277   0.71000
 Alpha virt. eigenvalues --    0.77766   0.78942   0.80961   0.83208   0.86944

 Mulliken charges:
               1
     1  O   -0.671812
     2  H    0.290424
     3  H    0.212722
     4  O   -0.329977
     5  H    0.261218
     6  H    0.237425
 Sum of Mulliken charges =  -0.00000

 Dipole moment (field-independent basis, Debye):
    X=             -1.0353    Y=             -4.9327    Z=              0.0000  Tot=              5.0402
 Quadrupole moment (field-independent basis, Debye-Ang):
   XX=             -9.1090   YY=            -10.1170   ZZ=            -14.5736
   XY=             -2.7336   XZ=              0.0000   YZ=             -0.0000

 Normal termination of Gaussian 16 at Fri Aug 26 15:58:45 2022.
