 Gaussian 16, Revision A.03,
 Gaussian 16:  ES64L-G16RevA.03 25-Dec-2016

 ------------------
 #p CCSD(T)/cc-pVTZ
 ------------------

 ------------
 H2O_H2O_4096
 ------------
 Symbolic Z-matrix:
 Charge =  0 Multiplicity = 1

                         Standard orientation:
 ---------------------------------------------------------------------
 Center     Atomic      Atomic             Coordinates (Angstroms)
 Number     Number       Type             X           Y           Z
 ---------------------------------------------------------------------
      1          8           0       -0.023176    2.732736    0.000000
      2          1           0       -0.020941    1.750137    0.000000
      3          1           0        0.905589    3.053516    0.000000
      4          8           0       -0.023176   -2.562331    0.000000
      5          1           0       -0.986459   -2.756220    0.000000
      6          1           0        0.472634   -3.410671    0.000000
 ---------------------------------------------------------------------

 SCF Done:  E(RHF) =  -152.108709375     A.U. after   10 cycles
 E2 =    -0.5258060102D+00 EUMP2 =    -0.15263451538539D+03
 CCSD(T)
 CCSD(T)= -0.15266170366D+03

 The electronic state is 1-A'.
 Alpha  occ. eigenvalues --  -20.56262 -20.54916  -1.33562  -1.32226  -0.70966
 Alpha  occ. eigenvalues --   -0.69631  -0.57065  -0.55703  -0.50683  -0.49352
 Alpha virt. eigenvalues --    0.13044   0.15134   0.19480   0.21430   0.53384
 Alpha virt. eigenvalues --    0.55026   0.56624   0.57831   0.66688   0.68969
 Alpha virt. eigenvalues --    0.78208   0.79175   0.79498   0.80414   0.82777

 Mulliken charges:
               1
     1  O   -0.515405
     2  H    0.260693
     3  H    0.254375
     4  O   -0.515768
     5  H    0.257918
     6  H    0.258186
 Sum of Mulliken charges =  -0.00000

 Dipole moment (field-independent basis, Debye):
    X=              0.7952    Y=             -3.0027    Z=              0.0000  Tot=              3.1062
 Quadrupole moment (field-independent basis, Debye-Ang):
   XX=             -9.3617   YY=             -6.9964   ZZ=            -14.7158
   XY=              6.7348   XZ=              0.0000   YZ=              0.0000

 Normal termination of Gaussian 16 at Sat Aug 27 23:27:56 2022.
