 Gaussian 16, Revision A.03,
 Gaussian 16:  ES64L-G16RevA.03 25-Dec-2016

 ------------------
 #p CCSD(T)/cc-pVTZ
 ------------------

 ----------
 H2O_H2O_53
 ----------
 Symbolic Z-matrix:
 Charge =  0 Multiplicity = 1

                         Standard orientation:
 ---------------------------------------------------------------------
 Center     Atomic      Atomic             Coordinates (Angstroms)
 Number     Number       Type             X           Y           Z
 ---------------------------------------------------------------------
      1          8           0        0.085625   -1.115918    0.000000
      2          1           0        0.085027   -0.133317    0.000000
      3          1           0       -0.843673   -1.435151    0.000000
      4          8           0        0.085625    0.966378    0.000000
      5          1           0        0.276735    1.930215    0.000000
      6          1           0       -0.888096    0.834576    0.000000
 ---------------------------------------------------------------------

 SCF Done:  E(RHF) =  -152.026594932     A.U. after   11 cycles
 E2 =    -0.5387664248D+00 EUMP2 =    -0.15256536135676D+03
 CCSD(T)
 CCSD(T)= -0.15259087658D+03

 The electronic state is 1-A'.
 Alpha  occ. eigenvalues --  -20.61807 -20.46297  -1.44503  -1.25972  -0.83588
 Alpha  occ. eigenvalues --   -0.72268  -0.58463  -0.55713  -0.46826  -0.42680
 Alpha virt. eigenvalues --    0.10505   0.15748   0.21797   0.31569   0.49496
 Alpha virt. eigenvalues --    0.50842   0.60175   0.65894   0.70690   0.72291
 Alpha virt. eigenvalues --    0.75464   0.78770   0.80729   0.86169   0.87066

 Mulliken charges:
               1
     1  O   -0.620316
     2  H    0.257712
     3  H    0.186218
     4  O   -0.290358
     5  H    0.227323
     6  H    0.239420
 Sum of Mulliken charges =  -0.00000

 Dipole moment (field-independent basis, Debye):
    X=             -2.6269    Y=              4.3435    Z=              0.0000  Tot=              5.0760
 Quadrupole moment (field-independent basis, Debye-Ang):
   XX=            -10.3460   YY=            -10.0179   ZZ=            -14.5095
   XY=              2.2363   XZ=              0.0000   YZ=              0.0000

 Normal termination of Gaussian 16 at Fri Aug 26 15:32:52 2022.
