 Gaussian 16, Revision A.03,
 Gaussian 16:  ES64L-G16RevA.03 25-Dec-2016

 ------------------
 #p CCSD(T)/cc-pVTZ
 ------------------

 ------------
 H2O_H2O_4428
 ------------
 Symbolic Z-matrix:
 Charge =  0 Multiplicity = 1

                         Standard orientation:
 ---------------------------------------------------------------------
 Center     Atomic      Atomic             Coordinates (Angstroms)
 Number     Number       Type             X           Y           Z
 ---------------------------------------------------------------------
      1          8           0        0.085597   -2.861039    0.000000
      2          1           0        0.085373   -1.878437    0.000000
      3          1           0       -0.843823   -3.179917    0.000000
      4          8           0        0.085597    2.711433    0.000000
      5          1           0        0.277074    3.675198    0.000000
      6          1           0       -0.888175    2.580003    0.000000
 ---------------------------------------------------------------------

 SCF Done:  E(RHF) =  -152.107866951     A.U. after   10 cycles
 E2 =    -0.5258607350D+00 EUMP2 =    -0.15263372768588D+03
 CCSD(T)
 CCSD(T)= -0.15266093636D+03

 The electronic state is 1-A'.
 Alpha  occ. eigenvalues --  -20.56217 -20.55202  -1.33519  -1.32506  -0.70932
 Alpha  occ. eigenvalues --   -0.69902  -0.56987  -0.55962  -0.50631  -0.49621
 Alpha virt. eigenvalues --    0.12927   0.14811   0.19171   0.21423   0.53296
 Alpha virt. eigenvalues --    0.54874   0.56567   0.57738   0.66864   0.68590
 Alpha virt. eigenvalues --    0.78259   0.79247   0.79501   0.81058   0.82085

 Mulliken charges:
               1
     1  O   -0.510682
     2  H    0.258463
     3  H    0.252119
     4  O   -0.511721
     5  H    0.258492
     6  H    0.253329
 Sum of Mulliken charges =  -0.00000

 Dipole moment (field-independent basis, Debye):
    X=             -2.9347    Y=              2.6270    Z=              0.0000  Tot=              3.9387
 Quadrupole moment (field-independent basis, Debye-Ang):
   XX=            -10.3973   YY=             -8.1379   ZZ=            -14.7127
   XY=              2.9341   XZ=              0.0000   YZ=              0.0000

 Normal termination of Gaussian 16 at Sun Aug 28 02:46:40 2022.
