 Gaussian 16, Revision A.03,
 Gaussian 16:  ES64L-G16RevA.03 25-Dec-2016

 ------------------
 #p CCSD(T)/cc-pVTZ
 ------------------

 ------------
 H2O_H2O_4800
 ------------
 Symbolic Z-matrix:
 Charge =  0 Multiplicity = 1

                         Standard orientation:
 ---------------------------------------------------------------------
 Center     Atomic      Atomic             Coordinates (Angstroms)
 Number     Number       Type             X           Y           Z
 ---------------------------------------------------------------------
      1          8           0        0.092949   -3.001483    0.000000
      2          1           0        0.092949   -2.018881    0.000000
      3          1           0       -0.836544   -3.320149    0.000000
      4          8           0        0.092949    2.868696    0.000000
      5          1           0        0.092949    3.851297    0.000000
      6          1           0       -0.836544    2.550029    0.000000
 ---------------------------------------------------------------------

 SCF Done:  E(RHF) =  -152.107588659     A.U. after   10 cycles
 E2 =    -0.5258700515D+00 EUMP2 =    -0.15263345871055D+03
 CCSD(T)
 CCSD(T)= -0.15266067522D+03

 The electronic state is 1-A'.
 Alpha  occ. eigenvalues --  -20.56162 -20.55378  -1.33464  -1.32679  -0.70877
 Alpha  occ. eigenvalues --   -0.70077  -0.56921  -0.56130  -0.50574  -0.49791
 Alpha virt. eigenvalues --    0.12993   0.14596   0.18972   0.21415   0.53385
 Alpha virt. eigenvalues --    0.54701   0.56584   0.57574   0.67054   0.68290
 Alpha virt. eigenvalues --    0.78315   0.79084   0.79672   0.81000   0.81659

 Mulliken charges:
               1
     1  O   -0.509403
     2  H    0.256920
     3  H    0.252460
     4  O   -0.510258
     5  H    0.257715
     6  H    0.252566
 Sum of Mulliken charges =  -0.00000

 Dipole moment (field-independent basis, Debye):
    X=             -3.1901    Y=              2.3246    Z=              0.0000  Tot=              3.9472
 Quadrupole moment (field-independent basis, Debye-Ang):
   XX=            -10.8442   YY=             -9.2943   ZZ=            -14.7117
   XY=              2.1592   XZ=              0.0000   YZ=              0.0000

 Normal termination of Gaussian 16 at Sun Aug 28 05:58:19 2022.
