 Gaussian 16, Revision A.03,
 Gaussian 16:  ES64L-G16RevA.03 25-Dec-2016

 ------------------
 #p CCSD(T)/cc-pVTZ
 ------------------

 ------------
 H2O_H2O_3931
 ------------
 Symbolic Z-matrix:
 Charge =  0 Multiplicity = 1

                         Standard orientation:
 ---------------------------------------------------------------------
 Center     Atomic      Atomic             Coordinates (Angstroms)
 Number     Number       Type             X           Y           Z
 ---------------------------------------------------------------------
      1          8           0        0.076752    2.668996   -0.000000
      2          1           0        0.076221    1.686394   -0.000000
      3          1           0       -0.852569    2.988164   -0.000000
      4          8           0        0.076752   -2.505775    0.000000
      5          1           0        0.452287   -3.413783    0.000000
      6          1           0       -0.903969   -2.566537    0.000000
 ---------------------------------------------------------------------

 SCF Done:  E(RHF) =  -152.108303543     A.U. after   10 cycles
 E2 =    -0.5258659716D+00 EUMP2 =    -0.15263416951494D+03
 CCSD(T)
 CCSD(T)= -0.15266136351D+03

 The electronic state is 1-A'.
 Alpha  occ. eigenvalues --  -20.56321 -20.54983  -1.33620  -1.32290  -0.71031
 Alpha  occ. eigenvalues --   -0.69684  -0.57104  -0.55755  -0.50736  -0.49410
 Alpha virt. eigenvalues --    0.12744   0.15132   0.19362   0.21540   0.53265
 Alpha virt. eigenvalues --    0.55014   0.56515   0.57890   0.66708   0.69000
 Alpha virt. eigenvalues --    0.78161   0.78973   0.79448   0.80636   0.82696

 Mulliken charges:
               1
     1  O   -0.512467
     2  H    0.260358
     3  H    0.251677
     4  O   -0.513259
     5  H    0.259383
     6  H    0.254308
 Sum of Mulliken charges =  -0.00000

 Dipole moment (field-independent basis, Debye):
    X=             -2.6271    Y=             -2.8826    Z=              0.0000  Tot=              3.9002
 Quadrupole moment (field-independent basis, Debye-Ang):
   XX=             -9.9500   YY=             -7.4740   ZZ=            -14.7143
   XY=             -3.5772   XZ=              0.0000   YZ=             -0.0000

 Normal termination of Gaussian 16 at Sat Aug 27 00:32:15 2022.
