 Gaussian 16, Revision A.03,
 Gaussian 16:  ES64L-G16RevA.03 25-Dec-2016

 ------------------
 #p CCSD(T)/cc-pVTZ
 ------------------

 ----------
 H2O_H2O_52
 ----------
 Symbolic Z-matrix:
 Charge =  0 Multiplicity = 1

                         Standard orientation:
 ---------------------------------------------------------------------
 Center     Atomic      Atomic             Coordinates (Angstroms)
 Number     Number       Type             X           Y           Z
 ---------------------------------------------------------------------
      1          8           0        0.088247   -1.113061    0.000000
      2          1           0        0.087862   -0.130459    0.000000
      3          1           0       -0.841121   -1.432091    0.000000
      4          8           0        0.088247    0.968778    0.000000
      5          1           0        0.216121    1.943024    0.000000
      6          1           0       -0.874812    0.773784    0.000000
 ---------------------------------------------------------------------

 SCF Done:  E(RHF) =  -152.023208449     A.U. after   11 cycles
 E2 =    -0.5391812454D+00 EUMP2 =    -0.15256238969410D+03
 CCSD(T)
 CCSD(T)= -0.15258789874D+03

 The electronic state is 1-A'.
 Alpha  occ. eigenvalues --  -20.61742 -20.46615  -1.44664  -1.26215  -0.83991
 Alpha  occ. eigenvalues --   -0.71652  -0.58430  -0.55958  -0.47194  -0.42957
 Alpha virt. eigenvalues --    0.10562   0.15730   0.21876   0.31470   0.49407
 Alpha virt. eigenvalues --    0.50646   0.60141   0.66529   0.70702   0.72400
 Alpha virt. eigenvalues --    0.75139   0.78690   0.80352   0.86085   0.86710

 Mulliken charges:
               1
     1  O   -0.613103
     2  H    0.253959
     3  H    0.184704
     4  O   -0.291682
     5  H    0.226576
     6  H    0.239545
 Sum of Mulliken charges =  -0.00000

 Dipole moment (field-independent basis, Debye):
    X=             -2.7168    Y=              4.2234    Z=              0.0000  Tot=              5.0217
 Quadrupole moment (field-independent basis, Debye-Ang):
   XX=            -10.4929   YY=            -10.0202   ZZ=            -14.5029
   XY=              2.1290   XZ=              0.0000   YZ=              0.0000

 Normal termination of Gaussian 16 at Fri Aug 26 15:32:28 2022.
