 Gaussian 16, Revision A.03,
 Gaussian 16:  ES64L-G16RevA.03 25-Dec-2016

 ------------------
 #p CCSD(T)/cc-pVTZ
 ------------------

 ------------
 H2O_H2O_3781
 ------------
 Symbolic Z-matrix:
 Charge =  0 Multiplicity = 1

                         Standard orientation:
 ---------------------------------------------------------------------
 Center     Atomic      Atomic             Coordinates (Angstroms)
 Number     Number       Type             X           Y           Z
 ---------------------------------------------------------------------
      1          8           0        0.076753    2.609163    0.000000
      2          1           0        0.076209    1.626562    0.000000
      3          1           0       -0.852564    2.928344    0.000000
      4          8           0        0.076753   -2.445945   -0.000000
      5          1           0        0.452275   -3.353958   -0.000000
      6          1           0       -0.903969   -2.506694   -0.000000
 ---------------------------------------------------------------------

 SCF Done:  E(RHF) =  -152.108392536     A.U. after   10 cycles
 E2 =    -0.5258781353D+00 EUMP2 =    -0.15263427067153D+03
 CCSD(T)
 CCSD(T)= -0.15266146050D+03

 The electronic state is 1-A'.
 Alpha  occ. eigenvalues --  -20.56362 -20.54948  -1.33659  -1.32255  -0.71071
 Alpha  occ. eigenvalues --   -0.69648  -0.57146  -0.55721  -0.50776  -0.49376
 Alpha virt. eigenvalues --    0.12626   0.15224   0.19358   0.21665   0.53267
 Alpha virt. eigenvalues --    0.55043   0.56487   0.57944   0.66745   0.69083
 Alpha virt. eigenvalues --    0.78124   0.78847   0.79480   0.80611   0.82735

 Mulliken charges:
               1
     1  O   -0.512706
     2  H    0.260656
     3  H    0.251450
     4  O   -0.513246
     5  H    0.259576
     6  H    0.254270
 Sum of Mulliken charges =  -0.00000

 Dipole moment (field-independent basis, Debye):
    X=             -2.6256    Y=             -2.8888    Z=             -0.0000  Tot=              3.9037
 Quadrupole moment (field-independent basis, Debye-Ang):
   XX=             -9.9507   YY=             -7.5334   ZZ=            -14.7146
   XY=             -3.5431   XZ=             -0.0000   YZ=             -0.0000

 CCSD(T)=-152.6614605\RMSD=7.176e-09\PG=CS [SG(H4O2)]\\@
 Normal termination of Gaussian 16 at Fri Aug 26 23:38:15 2022.
