 Gaussian 16, Revision A.03,
 Gaussian 16:  ES64L-G16RevA.03 25-Dec-2016

 ------------------
 #p CCSD(T)/cc-pVTZ
 ------------------

 ------------
 H2O_H2O_4208
 ------------
 Symbolic Z-matrix:
 Charge =  0 Multiplicity = 1

                         Standard orientation:
 ---------------------------------------------------------------------
 Center     Atomic      Atomic             Coordinates (Angstroms)
 Number     Number       Type             X           Y           Z
 ---------------------------------------------------------------------
      1          8           0        0.070186    2.782513    0.000000
      2          1           0        0.069471    1.799912    0.000000
      3          1           0       -0.859074    3.101857   -0.000000
      4          8           0        0.070186   -2.612249    0.000000
      5          1           0        0.560868   -3.463565    0.000000
      6          1           0       -0.894248   -2.800319   -0.000000
 ---------------------------------------------------------------------

 SCF Done:  E(RHF) =  -152.108303494     A.U. after   10 cycles
 E2 =    -0.5258392775D+00 EUMP2 =    -0.15263414277122D+03
 CCSD(T)
 CCSD(T)= -0.15266133981D+03

 The electronic state is 1-A'.
 Alpha  occ. eigenvalues --  -20.56252 -20.54976  -1.33552  -1.32282  -0.70960
 Alpha  occ. eigenvalues --   -0.69679  -0.57039  -0.55749  -0.50669  -0.49403
 Alpha virt. eigenvalues --    0.13066   0.15007   0.19510   0.21244   0.53423
 Alpha virt. eigenvalues --    0.54930   0.56581   0.57814   0.66732   0.68882
 Alpha virt. eigenvalues --    0.78223   0.79256   0.79455   0.80421   0.82693

 Mulliken charges:
               1
     1  O   -0.512839
     2  H    0.260369
     3  H    0.252224
     4  O   -0.513762
     5  H    0.258995
     6  H    0.255013
 Sum of Mulliken charges =  -0.00000

 Dipole moment (field-independent basis, Debye):
    X=             -2.4047    Y=             -2.9974    Z=             -0.0000  Tot=              3.8428
 Quadrupole moment (field-independent basis, Debye-Ang):
   XX=             -9.6797   YY=             -6.9614   ZZ=            -14.7144
   XY=             -4.1031   XZ=              0.0000   YZ=             -0.0000

 Normal termination of Gaussian 16 at Sun Aug 28 00:50:06 2022.
