 Gaussian 16, Revision A.03,
 Gaussian 16:  ES64L-G16RevA.03 25-Dec-2016

 ------------------
 #p CCSD(T)/cc-pVTZ
 ------------------

 ------------
 H2O_H2O_4152
 ------------
 Symbolic Z-matrix:
 Charge =  0 Multiplicity = 1

                         Standard orientation:
 ---------------------------------------------------------------------
 Center     Atomic      Atomic             Coordinates (Angstroms)
 Number     Number       Type             X           Y           Z
 ---------------------------------------------------------------------
      1          8           0        0.088230   -2.748479    0.000000
      2          1           0        0.088080   -1.765877    0.000000
      3          1           0       -0.841215   -3.067287    0.000000
      4          8           0        0.088230    2.604154    0.000000
      5          1           0        0.216337    3.578370    0.000000
      6          1           0       -0.874876    2.409391    0.000000
 ---------------------------------------------------------------------

 SCF Done:  E(RHF) =  -152.107854913     A.U. after   10 cycles
 E2 =    -0.5258800844D+00 EUMP2 =    -0.15263373499780D+03
 CCSD(T)
 CCSD(T)= -0.15266094216D+03

 The electronic state is 1-A'.
 Alpha  occ. eigenvalues --  -20.56276 -20.55211  -1.33577  -1.32514  -0.70992
 Alpha  occ. eigenvalues --   -0.69909  -0.57044  -0.55969  -0.50689  -0.49629
 Alpha virt. eigenvalues --    0.12586   0.14939   0.19030   0.21779   0.53163
 Alpha virt. eigenvalues --    0.54942   0.56520   0.57808   0.66774   0.68708
 Alpha virt. eigenvalues --    0.78206   0.79240   0.79300   0.81280   0.82275

 Mulliken charges:
               1
     1  O   -0.510396
     2  H    0.258459
     3  H    0.251753
     4  O   -0.511462
     5  H    0.258860
     6  H    0.252786
 Sum of Mulliken charges =  -0.00000

 Dipole moment (field-independent basis, Debye):
    X=             -3.0223    Y=              2.5408    Z=              0.0000  Tot=              3.9484
 Quadrupole moment (field-independent basis, Debye-Ang):
   XX=            -10.5512   YY=             -8.5249   ZZ=            -14.7126
   XY=              2.6567   XZ=              0.0000   YZ=              0.0000

 Normal termination of Gaussian 16 at Sun Aug 28 00:11:02 2022.
