 Gaussian 16, Revision A.03,
 Gaussian 16:  ES64L-G16RevA.03 25-Dec-2016

 ------------------
 #p CCSD(T)/cc-pVTZ
 ------------------

 ------------
 H2O_H2O_1890
 ------------
 Symbolic Z-matrix:
 Charge =  0 Multiplicity = 1

                         Standard orientation:
 ---------------------------------------------------------------------
 Center     Atomic      Atomic             Coordinates (Angstroms)
 Number     Number       Type             X           Y           Z
 ---------------------------------------------------------------------
      1          8           0        0.044904    1.860611   -0.000000
      2          1           0        0.042599    0.878013   -0.000000
      3          1           0       -0.883839    2.181458   -0.000000
      4          8           0        0.044904   -1.680257    0.000000
      5          1           0        0.860625   -2.228077    0.000000
      6          1           0       -0.737852   -2.274226    0.000000
 ---------------------------------------------------------------------

 SCF Done:  E(RHF) =  -152.112749456     A.U. after   10 cycles
 E2 =    -0.5265291809D+00 EUMP2 =    -0.15263927863675D+03
 CCSD(T)
 CCSD(T)= -0.15266632932D+03

 The electronic state is 1-A'.
 Alpha  occ. eigenvalues --  -20.57474 -20.53524  -1.34725  -1.30898  -0.72099
 Alpha  occ. eigenvalues --   -0.68354  -0.58454  -0.54341  -0.51866  -0.48052
 Alpha virt. eigenvalues --    0.12195   0.17147   0.19113   0.26831   0.51285
 Alpha virt. eigenvalues --    0.54853   0.56389   0.59059   0.69074   0.72390
 Alpha virt. eigenvalues --    0.75865   0.77272   0.80895   0.83359   0.84483

 Mulliken charges:
               1
     1  O   -0.532032
     2  H    0.270704
     3  H    0.248600
     4  O   -0.507918
     5  H    0.262798
     6  H    0.257848
 Sum of Mulliken charges =  -0.00000

 Dipole moment (field-independent basis, Debye):
    X=             -1.5161    Y=             -3.4203    Z=              0.0000  Tot=              3.7413
 Quadrupole moment (field-independent basis, Debye-Ang):
   XX=             -9.1608   YY=             -7.9506   ZZ=            -14.7309
   XY=             -4.0496   XZ=              0.0000   YZ=             -0.0000

 Normal termination of Gaussian 16 at Sun Aug 28 02:27:25 2022.
