 Gaussian 16, Revision A.03,
 Gaussian 16:  ES64L-G16RevA.03 25-Dec-2016

 ------------------
 #p CCSD(T)/cc-pVTZ
 ------------------

 ------------
 H2O_H2O_1009
 ------------
 Symbolic Z-matrix:
 Charge =  0 Multiplicity = 1

                         Standard orientation:
 ---------------------------------------------------------------------
 Center     Atomic      Atomic             Coordinates (Angstroms)
 Number     Number       Type             X           Y           Z
 ---------------------------------------------------------------------
      1          8           0        0.066812    1.507611    0.000000
      2          1           0        0.065247    0.525011    0.000000
      3          1           0       -0.862173    1.827756    0.000000
      4          8           0        0.066812   -1.334586   -0.000000
      5          1           0        0.611414   -2.152457   -0.000000
      6          1           0       -0.883474   -1.584511   -0.000000
 ---------------------------------------------------------------------

 SCF Done:  E(RHF) =  -152.112100345     A.U. after   10 cycles
 E2 =    -0.5288081412D+00 EUMP2 =    -0.15264090848576D+03
 CCSD(T)
 CCSD(T)= -0.15266776727D+03

 The electronic state is 1-A'.
 Alpha  occ. eigenvalues --  -20.58806 -20.51945  -1.36328  -1.29599  -0.73692
 Alpha  occ. eigenvalues --   -0.68153  -0.59658  -0.53357  -0.52648  -0.46695
 Alpha virt. eigenvalues --    0.11679   0.17321   0.19487   0.31629   0.48281
 Alpha virt. eigenvalues --    0.54593   0.58557   0.59517   0.69809   0.72689
 Alpha virt. eigenvalues --    0.73317   0.76847   0.81920   0.82540   0.84434

 Mulliken charges:
               1
     1  O   -0.559462
     2  H    0.295445
     3  H    0.235384
     4  O   -0.477781
     5  H    0.254442
     6  H    0.251973
 Sum of Mulliken charges =  -0.00000

 Dipole moment (field-independent basis, Debye):
    X=             -2.2008    Y=             -3.6354    Z=             -0.0000  Tot=              4.2497
 Quadrupole moment (field-independent basis, Debye-Ang):
   XX=             -9.5843   YY=             -8.7700   ZZ=            -14.7189
   XY=             -3.1330   XZ=             -0.0000   YZ=             -0.0000

 CCSD(T)=-152.6677673\RMSD=7.786e-09\PG=CS [SG(H4O2)]\\@
 Normal termination of Gaussian 16 at Fri Aug 26 21:53:03 2022.
