 Gaussian 16, Revision A.03,
 Gaussian 16:  ES64L-G16RevA.03 25-Dec-2016

 ------------------
 #p CCSD(T)/cc-pVTZ
 ------------------

 ----------
 H2O_H2O_87
 ----------
 Symbolic Z-matrix:
 Charge =  0 Multiplicity = 1

                         Standard orientation:
 ---------------------------------------------------------------------
 Center     Atomic      Atomic             Coordinates (Angstroms)
 Number     Number       Type             X           Y           Z
 ---------------------------------------------------------------------
      1          8           0        0.056135    1.141754    0.000000
      2          1           0        0.053154    0.159157    0.000000
      3          1           0       -0.872387    1.463239    0.000000
      4          8           0        0.056135   -0.963028   -0.000000
      5          1           0        0.748828   -1.659936   -0.000000
      6          1           0       -0.827753   -1.392268   -0.000000
 ---------------------------------------------------------------------

 SCF Done:  E(RHF) =  -152.046744845     A.U. after   11 cycles
 E2 =    -0.5357804572D+00 EUMP2 =    -0.15258252530229D+03
 CCSD(T)
 CCSD(T)= -0.15260812164D+03

 The electronic state is 1-A'.
 Alpha  occ. eigenvalues --  -20.61979 -20.44505  -1.43419  -1.24673  -0.79405
 Alpha  occ. eigenvalues --   -0.77053  -0.58430  -0.54781  -0.44777  -0.41183
 Alpha virt. eigenvalues --    0.10366   0.16310   0.21222   0.32727   0.47564
 Alpha virt. eigenvalues --    0.51956   0.62830   0.63766   0.70790   0.71129
 Alpha virt. eigenvalues --    0.79221   0.79303   0.81474   0.82618   0.87872

 Mulliken charges:
               1
     1  O   -0.663726
     2  H    0.289769
     3  H    0.199855
     4  O   -0.315371
     5  H    0.245717
     6  H    0.243757
 Sum of Mulliken charges =  -0.00000

 Dipole moment (field-independent basis, Debye):
    X=             -1.6992    Y=             -5.0006    Z=             -0.0000  Tot=              5.2814
 Quadrupole moment (field-independent basis, Debye-Ang):
   XX=             -9.2433   YY=            -10.1744   ZZ=            -14.5620
   XY=             -2.6771   XZ=             -0.0000   YZ=             -0.0000

 Normal termination of Gaussian 16 at Fri Aug 26 15:46:17 2022.
