 Gaussian 16, Revision A.03,
 Gaussian 16:  ES64L-G16RevA.03 25-Dec-2016

 ------------------
 #p CCSD(T)/cc-pVTZ
 ------------------

 ------------
 H2O_H2O_2665
 ------------
 Symbolic Z-matrix:
 Charge =  0 Multiplicity = 1

                         Standard orientation:
 ---------------------------------------------------------------------
 Center     Atomic      Atomic             Coordinates (Angstroms)
 Number     Number       Type             X           Y           Z
 ---------------------------------------------------------------------
      1          8           0        0.044873    2.169756   -0.000000
      2          1           0        0.042910    1.187157   -0.000000
      3          1           0       -0.883982    2.490279   -0.000000
      4          8           0        0.044873   -1.989371    0.000000
      5          1           0        0.860785   -2.536906    0.000000
      6          1           0       -0.737676   -2.583612    0.000000
 ---------------------------------------------------------------------

 SCF Done:  E(RHF) =  -152.110573891     A.U. after   10 cycles
 E2 =    -0.5260279427D+00 EUMP2 =    -0.15263660183344D+03
 CCSD(T)
 CCSD(T)= -0.15266372037D+03

 The electronic state is 1-A'.
 Alpha  occ. eigenvalues --  -20.56837 -20.54230  -1.34104  -1.31558  -0.71501
 Alpha  occ. eigenvalues --   -0.68953  -0.57682  -0.55046  -0.51238  -0.48699
 Alpha virt. eigenvalues --    0.12397   0.16280   0.19369   0.23601   0.52871
 Alpha virt. eigenvalues --    0.55600   0.56317   0.58908   0.69066   0.69919
 Alpha virt. eigenvalues --    0.77572   0.78905   0.80073   0.80132   0.83527

 Mulliken charges:
               1
     1  O   -0.521970
     2  H    0.265911
     3  H    0.251135
     4  O   -0.512490
     5  H    0.260401
     6  H    0.257013
 Sum of Mulliken charges =  -0.00000

 Dipole moment (field-independent basis, Debye):
    X=             -1.5267    Y=             -3.2862    Z=              0.0000  Tot=              3.6235
 Quadrupole moment (field-independent basis, Debye-Ang):
   XX=             -9.1576   YY=             -7.4029   ZZ=            -14.7220
   XY=             -4.5683   XZ=              0.0000   YZ=             -0.0000

 CCSD(T)=-152.6637204\RMSD=6.714e-09\PG=CS [SG(H4O2)]\\@
 Normal termination of Gaussian 16 at Fri Aug 26 16:24:46 2022.
