 Gaussian 16, Revision A.03,
 Gaussian 16:  ES64L-G16RevA.03 25-Dec-2016

 ------------------
 #p CCSD(T)/cc-pVTZ
 ------------------

 -----------
 H2O_H2O_647
 -----------
 Symbolic Z-matrix:
 Charge =  0 Multiplicity = 1

                         Standard orientation:
 ---------------------------------------------------------------------
 Center     Atomic      Atomic             Coordinates (Angstroms)
 Number     Number       Type             X           Y           Z
 ---------------------------------------------------------------------
      1          8           0       -0.020043    1.354782    0.000000
      2          1           0       -0.015164    0.372193    0.000000
      3          1           0        0.907856    1.678060    0.000000
      4          8           0       -0.020043   -1.187765    0.000000
      5          1           0       -0.993589   -1.320856    0.000000
      6          1           0        0.421585   -2.065531    0.000000
 ---------------------------------------------------------------------

 SCF Done:  E(RHF) =  -152.105139800     A.U. after   10 cycles
 E2 =    -0.5307275835D+00 EUMP2 =    -0.15263586738388D+03
 CCSD(T)
 CCSD(T)= -0.15266242981D+03

 The electronic state is 1-A'.
 Alpha  occ. eigenvalues --  -20.59648 -20.50129  -1.37818  -1.28264  -0.75468
 Alpha  occ. eigenvalues --   -0.68820  -0.59689  -0.54567  -0.50672  -0.45300
 Alpha virt. eigenvalues --    0.11652   0.18172   0.19281   0.33667   0.47886
 Alpha virt. eigenvalues --    0.53833   0.57853   0.67485   0.68254   0.72218
 Alpha virt. eigenvalues --    0.73957   0.76836   0.80014   0.83828   0.83974

 Mulliken charges:
               1
     1  O   -0.603111
     2  H    0.299556
     3  H    0.242617
     4  O   -0.437093
     5  H    0.260003
     6  H    0.238027
 Sum of Mulliken charges =  -0.00000

 Dipole moment (field-independent basis, Debye):
    X=              0.6597    Y=             -3.8523    Z=              0.0000  Tot=              3.9084
 Quadrupole moment (field-independent basis, Debye-Ang):
   XX=             -9.4116   YY=             -9.2054   ZZ=            -14.6854
   XY=              3.4374   XZ=              0.0000   YZ=              0.0000

 Normal termination of Gaussian 16 at Fri Aug 26 19:36:43 2022.
