 Gaussian 16, Revision A.03,
 Gaussian 16:  ES64L-G16RevA.03 25-Dec-2016

 ------------------
 #p CCSD(T)/cc-pVTZ
 ------------------

 ------------
 H2O_H2O_1359
 ------------
 Symbolic Z-matrix:
 Charge =  0 Multiplicity = 1

                         Standard orientation:
 ---------------------------------------------------------------------
 Center     Atomic      Atomic             Coordinates (Angstroms)
 Number     Number       Type             X           Y           Z
 ---------------------------------------------------------------------
      1          8           0        0.066799    1.647227    0.000000
      2          1           0        0.065375    0.664627    0.000000
      3          1           0       -0.862231    1.967240    0.000000
      4          8           0        0.066799   -1.474183   -0.000000
      5          1           0        0.611519   -2.291977   -0.000000
      6          1           0       -0.883451   -1.724243   -0.000000
 ---------------------------------------------------------------------

 SCF Done:  E(RHF) =  -152.113034586     A.U. after   10 cycles
 E2 =    -0.5275786829D+00 EUMP2 =    -0.15264061326882D+03
 CCSD(T)
 CCSD(T)= -0.15266759604D+03

 The electronic state is 1-A'.
 Alpha  occ. eigenvalues --  -20.58156 -20.52919  -1.35488  -1.30385  -0.72882
 Alpha  occ. eigenvalues --   -0.68099  -0.59212  -0.53673  -0.52591  -0.47516
 Alpha virt. eigenvalues --    0.11855   0.17222   0.19335   0.29567   0.49110
 Alpha virt. eigenvalues --    0.54992   0.57056   0.59044   0.69769   0.73130
 Alpha virt. eigenvalues --    0.73732   0.76560   0.81630   0.82707   0.84497

 Mulliken charges:
               1
     1  O   -0.541134
     2  H    0.281625
     3  H    0.240900
     4  O   -0.495803
     5  H    0.259568
     6  H    0.254844
 Sum of Mulliken charges =  -0.00000

 Dipole moment (field-independent basis, Debye):
    X=             -2.2282    Y=             -3.4442    Z=             -0.0000  Tot=              4.1021
 Quadrupole moment (field-independent basis, Debye-Ang):
   XX=             -9.5842   YY=             -8.4595   ZZ=            -14.7296
   XY=             -3.2776   XZ=             -0.0000   YZ=              0.0000

 Normal termination of Gaussian 16 at Sat Aug 27 00:06:07 2022.
