 Gaussian 16, Revision A.03,
 Gaussian 16:  ES64L-G16RevA.03 25-Dec-2016

 ------------------
 #p CCSD(T)/cc-pVTZ
 ------------------

 ------------
 H2O_H2O_2704
 ------------
 Symbolic Z-matrix:
 Charge =  0 Multiplicity = 1

                         Standard orientation:
 ---------------------------------------------------------------------
 Center     Atomic      Atomic             Coordinates (Angstroms)
 Number     Number       Type             X           Y           Z
 ---------------------------------------------------------------------
      1          8           0        0.082806   -2.175642    0.000000
      2          1           0        0.082396   -1.193040    0.000000
      3          1           0       -0.846554   -2.494696    0.000000
      4          8           0        0.082806    2.021129    0.000000
      5          1           0        0.336727    2.970355    0.000000
      6          1           0       -0.897464    1.953481    0.000000
 ---------------------------------------------------------------------

 SCF Done:  E(RHF) =  -152.109134956     A.U. after   10 cycles
 E2 =    -0.5261314356D+00 EUMP2 =    -0.15263526639130D+03
 CCSD(T)
 CCSD(T)= -0.15266241554D+03

 The electronic state is 1-A'.
 Alpha  occ. eigenvalues --  -20.56808 -20.54724  -1.34091  -1.32036  -0.71519
 Alpha  occ. eigenvalues --   -0.69412  -0.57598  -0.55498  -0.51208  -0.49159
 Alpha virt. eigenvalues --    0.11855   0.15903   0.19518   0.23416   0.53991
 Alpha virt. eigenvalues --    0.55159   0.56387   0.58318   0.68660   0.69713
 Alpha virt. eigenvalues --    0.77606   0.78951   0.79716   0.80642   0.82960

 Mulliken charges:
               1
     1  O   -0.514992
     2  H    0.263305
     3  H    0.248439
     4  O   -0.508315
     5  H    0.259539
     6  H    0.252024
 Sum of Mulliken charges =  -0.00000

 Dipole moment (field-independent basis, Debye):
    X=             -2.8148    Y=              2.8022    Z=              0.0000  Tot=              3.9719
 Quadrupole moment (field-independent basis, Debye-Ang):
   XX=            -10.2595   YY=             -8.2836   ZZ=            -14.7166
   XY=              2.9410   XZ=              0.0000   YZ=              0.0000

 Normal termination of Gaussian 16 at Fri Aug 26 16:41:46 2022.
