 Gaussian 16, Revision A.03,
 Gaussian 16:  ES64L-G16RevA.03 25-Dec-2016

 ------------------
 #p CCSD(T)/cc-pVTZ
 ------------------

 ------------
 H2O_H2O_4677
 ------------
 Symbolic Z-matrix:
 Charge =  0 Multiplicity = 1

                         Standard orientation:
 ---------------------------------------------------------------------
 Center     Atomic      Atomic             Coordinates (Angstroms)
 Number     Number       Type             X           Y           Z
 ---------------------------------------------------------------------
      1          8           0        0.088229   -2.957890    0.000000
      2          1           0        0.088090   -1.975289    0.000000
      3          1           0       -0.841219   -3.276688    0.000000
      4          8           0        0.088229    2.813564    0.000000
      5          1           0        0.216347    3.787778    0.000000
      6          1           0       -0.874879    2.618811    0.000000
 ---------------------------------------------------------------------

 SCF Done:  E(RHF) =  -152.107743281     A.U. after   10 cycles
 E2 =    -0.5258603552D+00 EUMP2 =    -0.15263360363651D+03
 CCSD(T)
 CCSD(T)= -0.15266081622D+03

 The electronic state is 1-A'.
 Alpha  occ. eigenvalues --  -20.56176 -20.55277  -1.33478  -1.32579  -0.70891
 Alpha  occ. eigenvalues --   -0.69977  -0.56941  -0.56033  -0.50590  -0.49693
 Alpha virt. eigenvalues --    0.13052   0.14679   0.19140   0.21318   0.53381
 Alpha virt. eigenvalues --    0.54779   0.56592   0.57652   0.66989   0.68419
 Alpha virt. eigenvalues --    0.78299   0.79178   0.79673   0.81025   0.81734

 Mulliken charges:
               1
     1  O   -0.510172
     2  H    0.257776
     3  H    0.252351
     4  O   -0.511112
     5  H    0.258045
     6  H    0.253112
 Sum of Mulliken charges =  -0.00000

 Dipole moment (field-independent basis, Debye):
    X=             -3.0270    Y=              2.5290    Z=              0.0000  Tot=              3.9445
 Quadrupole moment (field-independent basis, Debye-Ang):
   XX=            -10.5491   YY=             -8.4539   ZZ=            -14.7123
   XY=              2.6935   XZ=              0.0000   YZ=              0.0000

 Normal termination of Gaussian 16 at Sun Aug 28 04:59:50 2022.
