 Gaussian 16, Revision A.03,
 Gaussian 16:  ES64L-G16RevA.03 25-Dec-2016

 ------------------
 #p CCSD(T)/cc-pVTZ
 ------------------

 ------------
 H2O_H2O_2114
 ------------
 Symbolic Z-matrix:
 Charge =  0 Multiplicity = 1

                         Standard orientation:
 ---------------------------------------------------------------------
 Center     Atomic      Atomic             Coordinates (Angstroms)
 Number     Number       Type             X           Y           Z
 ---------------------------------------------------------------------
      1          8           0        0.048616    1.950357    0.000000
      2          1           0        0.046591    0.967758    0.000000
      3          1           0       -0.880219    2.270938    0.000000
      4          8           0        0.048616   -1.770004   -0.000000
      5          1           0        0.826931   -2.369779   -0.000000
      6          1           0       -0.771157   -2.311741   -0.000000
 ---------------------------------------------------------------------

 SCF Done:  E(RHF) =  -152.111967532     A.U. after   10 cycles
 E2 =    -0.5263279363D+00 EUMP2 =    -0.15263829546874D+03
 CCSD(T)
 CCSD(T)= -0.15266536981D+03

 The electronic state is 1-A'.
 Alpha  occ. eigenvalues --  -20.57255 -20.53788  -1.34507  -1.31140  -0.71892
 Alpha  occ. eigenvalues --   -0.68556  -0.58173  -0.54607  -0.51646  -0.48289
 Alpha virt. eigenvalues --    0.12238   0.16860   0.19207   0.25710   0.51848
 Alpha virt. eigenvalues --    0.55219   0.56392   0.58979   0.69041   0.72147
 Alpha virt. eigenvalues --    0.76579   0.77815   0.80607   0.83497   0.83941

 Mulliken charges:
               1
     1  O   -0.527717
     2  H    0.268728
     3  H    0.249016
     4  O   -0.508479
     5  H    0.261579
     6  H    0.256873
 Sum of Mulliken charges =  -0.00000

 Dipole moment (field-independent basis, Debye):
    X=             -1.6457    Y=             -3.3715    Z=             -0.0000  Tot=              3.7517
 Quadrupole moment (field-independent basis, Debye-Ang):
   XX=             -9.1862   YY=             -7.7842   ZZ=            -14.7273
   XY=             -4.1022   XZ=             -0.0000   YZ=              0.0000

 Normal termination of Gaussian 16 at Sun Aug 28 04:29:48 2022.
