 Gaussian 16, Revision A.03,
 Gaussian 16:  ES64L-G16RevA.03 25-Dec-2016

 ------------------
 #p CCSD(T)/cc-pVTZ
 ------------------

 -----------
 H2O_H2O_375
 -----------
 Symbolic Z-matrix:
 Charge =  0 Multiplicity = 1

                         Standard orientation:
 ---------------------------------------------------------------------
 Center     Atomic      Atomic             Coordinates (Angstroms)
 Number     Number       Type             X           Y           Z
 ---------------------------------------------------------------------
      1          8           0        0.092949   -1.236450    0.000000
      2          1           0        0.092949   -0.253849    0.000000
      3          1           0       -0.836544   -1.555117    0.000000
      4          8           0        0.092949    1.103663    0.000000
      5          1           0        0.092950    2.086266    0.000000
      6          1           0       -0.836544    0.784997    0.000000
 ---------------------------------------------------------------------

 SCF Done:  E(RHF) =  -152.075582428     A.U. after   11 cycles
 E2 =    -0.5352405964D+00 EUMP2 =    -0.15261082302475D+03
 CCSD(T)
 CCSD(T)= -0.15263710870D+03

 The electronic state is 1-A'.
 Alpha  occ. eigenvalues --  -20.60392 -20.50547  -1.40171  -1.28891  -0.79897
 Alpha  occ. eigenvalues --   -0.68150  -0.59136  -0.55819  -0.51322  -0.45820
 Alpha virt. eigenvalues --    0.11139   0.16229   0.21403   0.32172   0.48807
 Alpha virt. eigenvalues --    0.51225   0.59233   0.66547   0.71158   0.72145
 Alpha virt. eigenvalues --    0.74532   0.76510   0.79079   0.82355   0.84249

 Mulliken charges:
               1
     1  O   -0.567034
     2  H    0.274982
     3  H    0.205783
     4  O   -0.371237
     5  H    0.227981
     6  H    0.229524
 Sum of Mulliken charges =   0.00000

 Dipole moment (field-independent basis, Debye):
    X=             -2.9655    Y=              3.4090    Z=              0.0000  Tot=              4.5183
 Quadrupole moment (field-independent basis, Debye-Ang):
   XX=            -10.8569   YY=             -9.6301   ZZ=            -14.5971
   XY=              1.9788   XZ=              0.0000   YZ=              0.0000

 Normal termination of Gaussian 16 at Fri Aug 26 17:47:40 2022.
