 Gaussian 16, Revision A.03,
 Gaussian 16:  ES64L-G16RevA.03 25-Dec-2016

 ------------------
 #p CCSD(T)/cc-pVTZ
 ------------------

 ------------
 H2O_H2O_4343
 ------------
 Symbolic Z-matrix:
 Charge =  0 Multiplicity = 1

                         Standard orientation:
 ---------------------------------------------------------------------
 Center     Atomic      Atomic             Coordinates (Angstroms)
 Number     Number       Type             X           Y           Z
 ---------------------------------------------------------------------
      1          8           0        0.033755    2.836334    0.000000
      2          1           0        0.031927    1.853734    0.000000
      3          1           0       -0.895144    3.156729    0.000000
      4          8           0        0.033755   -2.658784   -0.000000
      5          1           0        0.940859   -3.036498   -0.000000
      6          1           0       -0.617726   -3.394366   -0.000000
 ---------------------------------------------------------------------

 SCF Done:  E(RHF) =  -152.108567797     A.U. after   10 cycles
 E2 =    -0.5258026500D+00 EUMP2 =    -0.15263437044666D+03
 CCSD(T)
 CCSD(T)= -0.15266156355D+03

 The electronic state is 1-A'.
 Alpha  occ. eigenvalues --  -20.56211 -20.54920  -1.33512  -1.32228  -0.70916
 Alpha  occ. eigenvalues --   -0.69631  -0.57012  -0.55703  -0.50632  -0.49353
 Alpha virt. eigenvalues --    0.13272   0.15016   0.19649   0.21155   0.53582
 Alpha virt. eigenvalues --    0.54897   0.56652   0.57810   0.66757   0.68851
 Alpha virt. eigenvalues --    0.78255   0.79499   0.79500   0.80164   0.82745

 Mulliken charges:
               1
     1  O   -0.514706
     2  H    0.260669
     3  H    0.253841
     4  O   -0.515306
     5  H    0.258112
     6  H    0.257390
 Sum of Mulliken charges =   0.00000

 Dipole moment (field-independent basis, Debye):
    X=             -1.1576    Y=             -3.1210    Z=             -0.0000  Tot=              3.3288
 Quadrupole moment (field-independent basis, Debye-Ang):
   XX=             -9.1867   YY=             -6.4722   ZZ=            -14.7153
   XY=             -6.3198   XZ=             -0.0000   YZ=              0.0000

 Normal termination of Gaussian 16 at Sun Aug 28 01:59:15 2022.
