 Gaussian 16, Revision A.03,
 Gaussian 16:  ES64L-G16RevA.03 25-Dec-2016

 ------------------
 #p CCSD(T)/cc-pVTZ
 ------------------

 ------------
 H2O_H2O_4461
 ------------
 Symbolic Z-matrix:
 Charge =  0 Multiplicity = 1

                         Standard orientation:
 ---------------------------------------------------------------------
 Center     Atomic      Atomic             Coordinates (Angstroms)
 Number     Number       Type             X           Y           Z
 ---------------------------------------------------------------------
      1          8           0        0.059619    2.886149   -0.000000
      2          1           0        0.058609    1.903548   -0.000000
      3          1           0       -0.869545    3.205771    0.000000
      4          8           0        0.059619   -2.708675   -0.000000
      5          1           0        0.706733   -3.448100   -0.000000
      6          1           0       -0.849706   -3.081011    0.000000
 ---------------------------------------------------------------------

 SCF Done:  E(RHF) =  -152.108335724     A.U. after   10 cycles
 E2 =    -0.5258192419D+00 EUMP2 =    -0.15263415496579D+03
 CCSD(T)
 CCSD(T)= -0.15266135338D+03

 The electronic state is 1-A'.
 Alpha  occ. eigenvalues --  -20.56196 -20.54963  -1.33497  -1.32270  -0.70903
 Alpha  occ. eigenvalues --   -0.69669  -0.56987  -0.55738  -0.50615  -0.49392
 Alpha virt. eigenvalues --    0.13310   0.14925   0.19655   0.21060   0.53606
 Alpha virt. eigenvalues --    0.54859   0.56643   0.57790   0.66824   0.68767
 Alpha virt. eigenvalues --    0.78272   0.79465   0.79560   0.80237   0.82666

 Mulliken charges:
               1
     1  O   -0.513309
     2  H    0.260359
     3  H    0.252810
     4  O   -0.514157
     5  H    0.258534
     6  H    0.255764
 Sum of Mulliken charges =  -0.00000

 Dipole moment (field-independent basis, Debye):
    X=             -2.0443    Y=             -3.1166    Z=              0.0000  Tot=              3.7273
 Quadrupole moment (field-independent basis, Debye-Ang):
   XX=             -9.3617   YY=             -6.4116   ZZ=            -14.7145
   XY=             -4.8787   XZ=             -0.0000   YZ=              0.0000

 Normal termination of Gaussian 16 at Sun Aug 28 03:08:22 2022.
