 Gaussian 16, Revision A.03,
 Gaussian 16:  ES64L-G16RevA.03 25-Dec-2016

 ------------------
 #p CCSD(T)/cc-pVTZ
 ------------------

 ------------
 H2O_H2O_3557
 ------------
 Symbolic Z-matrix:
 Charge =  0 Multiplicity = 1

                         Standard orientation:
 ---------------------------------------------------------------------
 Center     Atomic      Atomic             Coordinates (Angstroms)
 Number     Number       Type             X           Y           Z
 ---------------------------------------------------------------------
      1          8           0        0.073531    2.521443    0.000000
      2          1           0        0.072856    1.538842    0.000000
      3          1           0       -0.855742    2.840748    0.000000
      4          8           0        0.073531   -2.354494    0.000000
      5          1           0        0.507519   -3.236061    0.000000
      6          1           0       -0.901135   -2.479124    0.000000
 ---------------------------------------------------------------------

 SCF Done:  E(RHF) =  -152.108649322     A.U. after   10 cycles
 E2 =    -0.5258947437D+00 EUMP2 =    -0.15263454406620D+03
 CCSD(T)
 CCSD(T)= -0.15266172414D+03

 The electronic state is 1-A'.
 Alpha  occ. eigenvalues --  -20.56430 -20.54844  -1.33724  -1.32154  -0.71135
 Alpha  occ. eigenvalues --   -0.69545  -0.57220  -0.55623  -0.50843  -0.49276
 Alpha virt. eigenvalues --    0.12532   0.15390   0.19412   0.21825   0.53349
 Alpha virt. eigenvalues --    0.55075   0.56447   0.58049   0.66913   0.69215
 Alpha virt. eigenvalues --    0.78062   0.78735   0.79574   0.80391   0.82840

 Mulliken charges:
               1
     1  O   -0.513656
     2  H    0.261484
     3  H    0.251178
     4  O   -0.513457
     5  H    0.259832
     6  H    0.254618
 Sum of Mulliken charges =  -0.00000

 Dipole moment (field-independent basis, Debye):
    X=             -2.5131    Y=             -2.9664    Z=             -0.0000  Tot=              3.8878
 Quadrupole moment (field-independent basis, Debye-Ang):
   XX=             -9.8126   YY=             -7.4415   ZZ=            -14.7156
   XY=             -3.6976   XZ=             -0.0000   YZ=             -0.0000

 Normal termination of Gaussian 16 at Fri Aug 26 22:22:33 2022.
