 Gaussian 16, Revision A.03,
 Gaussian 16:  ES64L-G16RevA.03 25-Dec-2016

 ------------------
 #p CCSD(T)/cc-pVTZ
 ------------------

 ------------
 H2O_H2O_3962
 ------------
 Symbolic Z-matrix:
 Charge =  0 Multiplicity = 1

                         Standard orientation:
 ---------------------------------------------------------------------
 Center     Atomic      Atomic             Coordinates (Angstroms)
 Number     Number       Type             X           Y           Z
 ---------------------------------------------------------------------
      1          8           0        0.055974    2.687502    0.000000
      2          1           0        0.054766    1.704901    0.000000
      3          1           0       -0.873127    3.007310    0.000000
      4          8           0        0.055974   -2.508573    0.000000
      5          1           0        0.749924   -3.204231    0.000000
      6          1           0       -0.827138   -2.939407    0.000000
 ---------------------------------------------------------------------

 SCF Done:  E(RHF) =  -152.108679261     A.U. after   10 cycles
 E2 =    -0.5258315222D+00 EUMP2 =    -0.15263451078280D+03
 CCSD(T)
 CCSD(T)= -0.15266169681D+03

 The electronic state is 1-A'.
 Alpha  occ. eigenvalues --  -20.56305 -20.54823  -1.33602  -1.32133  -0.71007
 Alpha  occ. eigenvalues --   -0.69531  -0.57104  -0.55607  -0.50722  -0.49258
 Alpha virt. eigenvalues --    0.13032   0.15202   0.19614   0.21339   0.53516
 Alpha virt. eigenvalues --    0.54925   0.56566   0.57847   0.66684   0.69111
 Alpha virt. eigenvalues --    0.78173   0.79289   0.79591   0.79821   0.82874

 Mulliken charges:
               1
     1  O   -0.514618
     2  H    0.261619
     3  H    0.252502
     4  O   -0.515097
     5  H    0.259263
     6  H    0.256332
 Sum of Mulliken charges =  -0.00000

 Dipole moment (field-independent basis, Debye):
    X=             -1.9163    Y=             -3.1601    Z=              0.0000  Tot=              3.6958
 Quadrupole moment (field-independent basis, Debye-Ang):
   XX=             -9.2855   YY=             -6.6406   ZZ=            -14.7158
   XY=             -4.8477   XZ=              0.0000   YZ=              0.0000

 Normal termination of Gaussian 16 at Sat Aug 27 00:42:35 2022.
