 Gaussian 16, Revision A.03,
 Gaussian 16:  ES64L-G16RevA.03 25-Dec-2016

 ------------------
 #p CCSD(T)/cc-pVTZ
 ------------------

 ------------
 H2O_H2O_2449
 ------------
 Symbolic Z-matrix:
 Charge =  0 Multiplicity = 1

                         Standard orientation:
 ---------------------------------------------------------------------
 Center     Atomic      Atomic             Coordinates (Angstroms)
 Number     Number       Type             X           Y           Z
 ---------------------------------------------------------------------
      1          8           0       -0.013553    2.068536    0.000000
      2          1           0       -0.010164    1.085940    0.000000
      3          1           0        0.914836    2.390405    0.000000
      4          8           0       -0.013553   -1.909285    0.000000
      5          1           0       -0.996149   -1.912673    0.000000
      6          1           0        0.308317   -2.837674    0.000000
 ---------------------------------------------------------------------

 SCF Done:  E(RHF) =  -152.110713092     A.U. after   10 cycles
 E2 =    -0.5261040449D+00 EUMP2 =    -0.15263681713689D+03
 CCSD(T)
 CCSD(T)= -0.15266393125D+03

 The electronic state is 1-A'.
 Alpha  occ. eigenvalues --  -20.56931 -20.54400  -1.34211  -1.31729  -0.71630
 Alpha  occ. eigenvalues --   -0.69140  -0.57794  -0.55216  -0.51340  -0.48875
 Alpha virt. eigenvalues --    0.12161   0.16395   0.19258   0.24636   0.54009
 Alpha virt. eigenvalues --    0.55246   0.56110   0.58569   0.68642   0.71107
 Alpha virt. eigenvalues --    0.77280   0.79330   0.80010   0.81000   0.83685

 Mulliken charges:
               1
     1  O   -0.524749
     2  H    0.264635
     3  H    0.254797
     4  O   -0.512104
     5  H    0.259057
     6  H    0.258364
 Sum of Mulliken charges =  -0.00000

 Dipole moment (field-independent basis, Debye):
    X=              0.4679    Y=             -2.9181    Z=              0.0000  Tot=              2.9554
 Quadrupole moment (field-independent basis, Debye-Ang):
   XX=             -9.6492   YY=             -8.1780   ZZ=            -14.7221
   XY=              5.5839   XZ=              0.0000   YZ=              0.0000

 Normal termination of Gaussian 16 at Sun Aug 28 07:22:24 2022.
