 Gaussian 16, Revision A.03,
 Gaussian 16:  ES64L-G16RevA.03 25-Dec-2016

 ------------------
 #p CCSD(T)/cc-pVTZ
 ------------------

 ------------
 H2O_H2O_1316
 ------------
 Symbolic Z-matrix:
 Charge =  0 Multiplicity = 1

                         Standard orientation:
 ---------------------------------------------------------------------
 Center     Atomic      Atomic             Coordinates (Angstroms)
 Number     Number       Type             X           Y           Z
 ---------------------------------------------------------------------
      1          8           0        0.041224    1.630985    0.000000
      2          1           0        0.038370    0.648388    0.000000
      3          1           0       -0.887339    1.952350   -0.000000
      4          8           0        0.041224   -1.451137    0.000000
      5          1           0        0.890751   -1.944907    0.000000
      6          1           0       -0.701368   -2.094614   -0.000000
 ---------------------------------------------------------------------

 SCF Done:  E(RHF) =  -152.114257735     A.U. after   10 cycles
 E2 =    -0.5275517007D+00 EUMP2 =    -0.15264180943582D+03
 CCSD(T)
 CCSD(T)= -0.15266876502D+03

 The electronic state is 1-A'.
 Alpha  occ. eigenvalues --  -20.58237 -20.52495  -1.35568  -1.30007  -0.72874
 Alpha  occ. eigenvalues --   -0.67908  -0.59379  -0.53259  -0.52685  -0.47152
 Alpha virt. eigenvalues --    0.12021   0.17920   0.18851   0.30179   0.49489
 Alpha virt. eigenvalues --    0.54604   0.55949   0.60369   0.68818   0.71823
 Alpha virt. eigenvalues --    0.73612   0.77030   0.81922   0.82835   0.84924

 Mulliken charges:
               1
     1  O   -0.550861
     2  H    0.284103
     3  H    0.245473
     4  O   -0.503786
     5  H    0.266160
     6  H    0.258911
 Sum of Mulliken charges =  -0.00000

 Dipole moment (field-independent basis, Debye):
    X=             -1.3764    Y=             -3.6071    Z=             -0.0000  Tot=              3.8607
 Quadrupole moment (field-independent basis, Debye-Ang):
   XX=             -9.1501   YY=             -8.4421   ZZ=            -14.7349
   XY=             -3.7135   XZ=             -0.0000   YZ=             -0.0000

 Normal termination of Gaussian 16 at Fri Aug 26 23:48:16 2022.
