 Gaussian 16, Revision A.03,
 Gaussian 16:  ES64L-G16RevA.03 25-Dec-2016

 ------------------
 #p CCSD(T)/cc-pVTZ
 ------------------

 ------------
 H2O_H2O_4174
 ------------
 Symbolic Z-matrix:
 Charge =  0 Multiplicity = 1

                         Standard orientation:
 ---------------------------------------------------------------------
 Center     Atomic      Atomic             Coordinates (Angstroms)
 Number     Number       Type             X           Y           Z
 ---------------------------------------------------------------------
      1          8           0       -0.013482    2.756608    0.000000
      2          1           0       -0.010964    1.774010    0.000000
      3          1           0        0.915192    3.077655    0.000000
      4          8           0       -0.013482   -2.597334    0.000000
      5          1           0       -0.996081   -2.599851    0.000000
      6          1           0        0.307565   -3.526007    0.000000
 ---------------------------------------------------------------------

 SCF Done:  E(RHF) =  -152.108578282     A.U. after   10 cycles
 E2 =    -0.5258053040D+00 EUMP2 =    -0.15263438358594D+03
 CCSD(T)
 CCSD(T)= -0.15266157634D+03

 The electronic state is 1-A'.
 Alpha  occ. eigenvalues --  -20.56242 -20.55029  -1.33545  -1.32337  -0.70952
 Alpha  occ. eigenvalues --   -0.69745  -0.57042  -0.55814  -0.50664  -0.49463
 Alpha virt. eigenvalues --    0.12949   0.15061   0.19265   0.21616   0.53263
 Alpha virt. eigenvalues --    0.55058   0.56638   0.57813   0.66716   0.68843
 Alpha virt. eigenvalues --    0.78225   0.79244   0.79392   0.80848   0.82622

 Mulliken charges:
               1
     1  O   -0.514974
     2  H    0.259690
     3  H    0.255042
     4  O   -0.515352
     5  H    0.257095
     6  H    0.258499
 Sum of Mulliken charges =  -0.00000

 Dipole moment (field-independent basis, Debye):
    X=              0.4642    Y=             -2.8027    Z=              0.0000  Tot=              2.8409
 Quadrupole moment (field-independent basis, Debye-Ang):
   XX=             -9.6481   YY=             -7.5845   ZZ=            -14.7152
   XY=              7.4668   XZ=              0.0000   YZ=              0.0000

 Normal termination of Gaussian 16 at Sun Aug 28 00:25:56 2022.
