 Gaussian 16, Revision A.03,
 Gaussian 16:  ES64L-G16RevA.03 25-Dec-2016

 ------------------
 #p CCSD(T)/cc-pVTZ
 ------------------

 ------------
 H2O_H2O_3563
 ------------
 Symbolic Z-matrix:
 Charge =  0 Multiplicity = 1

                         Standard orientation:
 ---------------------------------------------------------------------
 Center     Atomic      Atomic             Coordinates (Angstroms)
 Number     Number       Type             X           Y           Z
 ---------------------------------------------------------------------
      1          8           0        0.052289    2.528481    0.000000
      2          1           0        0.050873    1.545880    0.000000
      3          1           0       -0.876745    2.848486    0.000000
      4          8           0        0.052289   -2.348579   -0.000000
      5          1           0        0.790113   -2.997516   -0.000000
      6          1           0       -0.800859   -2.836068   -0.000000
 ---------------------------------------------------------------------

 SCF Done:  E(RHF) =  -152.109080742     A.U. after   10 cycles
 E2 =    -0.5258580591D+00 EUMP2 =    -0.15263493880081D+03
 CCSD(T)
 CCSD(T)= -0.15266210961D+03

 The electronic state is 1-A'.
 Alpha  occ. eigenvalues --  -20.56422 -20.54682  -1.33713  -1.31996  -0.71117
 Alpha  occ. eigenvalues --   -0.69391  -0.57229  -0.55475  -0.50837  -0.49124
 Alpha virt. eigenvalues --    0.12792   0.15479   0.19568   0.21716   0.53433
 Alpha virt. eigenvalues --    0.55047   0.56488   0.58000   0.66942   0.69311
 Alpha virt. eigenvalues --    0.78066   0.79096   0.79532   0.79716   0.83015

 Mulliken charges:
               1
     1  O   -0.516083
     2  H    0.262704
     3  H    0.252221
     4  O   -0.515323
     5  H    0.259719
     6  H    0.256763
 Sum of Mulliken charges =  -0.00000

 Dipole moment (field-independent basis, Debye):
    X=             -1.7875    Y=             -3.1981    Z=             -0.0000  Tot=              3.6638
 Quadrupole moment (field-independent basis, Debye-Ang):
   XX=             -9.2256   YY=             -6.8445   ZZ=            -14.7172
   XY=             -4.8195   XZ=              0.0000   YZ=              0.0000

 Normal termination of Gaussian 16 at Fri Aug 26 22:24:35 2022.
