 Gaussian 16, Revision A.03,
 Gaussian 16:  ES64L-G16RevA.03 25-Dec-2016

 ------------------
 #p CCSD(T)/cc-pVTZ
 ------------------

 ------------
 H2O_H2O_1187
 ------------
 Symbolic Z-matrix:
 Charge =  0 Multiplicity = 1

                         Standard orientation:
 ---------------------------------------------------------------------
 Center     Atomic      Atomic             Coordinates (Angstroms)
 Number     Number       Type             X           Y           Z
 ---------------------------------------------------------------------
      1          8           0        0.056055    1.580567    0.000000
      2          1           0        0.053951    0.597968    0.000000
      3          1           0       -0.872753    1.901223    0.000000
      4          8           0        0.056055   -1.401741   -0.000000
      5          1           0        0.749370   -2.098032   -0.000000
      6          1           0       -0.827450   -1.831770   -0.000000
 ---------------------------------------------------------------------

 SCF Done:  E(RHF) =  -152.113752815     A.U. after   10 cycles
 E2 =    -0.5280103116D+00 EUMP2 =    -0.15264176312710D+03
 CCSD(T)
 CCSD(T)= -0.15266868523D+03

 The electronic state is 1-A'.
 Alpha  occ. eigenvalues --  -20.58470 -20.52249  -1.35855  -1.29812  -0.73145
 Alpha  occ. eigenvalues --   -0.67960  -0.59529  -0.52988  -0.52948  -0.46939
 Alpha virt. eigenvalues --    0.11867   0.17665   0.19109   0.30846   0.48749
 Alpha virt. eigenvalues --    0.54821   0.56794   0.59826   0.69630   0.71811
 Alpha virt. eigenvalues --    0.73189   0.76930   0.82156   0.82617   0.84854

 Mulliken charges:
               1
     1  O   -0.553659
     2  H    0.289592
     3  H    0.240627
     4  O   -0.497621
     5  H    0.263800
     6  H    0.257261
 Sum of Mulliken charges =  -0.00000

 Dipole moment (field-independent basis, Debye):
    X=             -1.8609    Y=             -3.6489    Z=             -0.0000  Tot=              4.0960
 Quadrupole moment (field-independent basis, Debye-Ang):
   XX=             -9.2961   YY=             -8.5694   ZZ=            -14.7309
   XY=             -3.4080   XZ=             -0.0000   YZ=             -0.0000

 Normal termination of Gaussian 16 at Fri Aug 26 22:58:58 2022.
