 Gaussian 16, Revision A.03,
 Gaussian 16:  ES64L-G16RevA.03 25-Dec-2016

 ------------------
 #p CCSD(T)/cc-pVTZ
 ------------------

 -----------
 H2O_H2O_740
 -----------
 Symbolic Z-matrix:
 Charge =  0 Multiplicity = 1

                         Standard orientation:
 ---------------------------------------------------------------------
 Center     Atomic      Atomic             Coordinates (Angstroms)
 Number     Number       Type             X           Y           Z
 ---------------------------------------------------------------------
      1          8           0        0.044978    1.401867   -0.000000
      2          1           0        0.041866    0.419271   -0.000000
      3          1           0       -0.883501    1.723476    0.000000
      4          8           0        0.044978   -1.221587   -0.000000
      5          1           0        0.860249   -1.770076   -0.000000
      6          1           0       -0.738265   -1.814913    0.000000
 ---------------------------------------------------------------------

 SCF Done:  E(RHF) =  -152.109555580     A.U. after   10 cycles
 E2 =    -0.5299851965D+00 EUMP2 =    -0.15263954077654D+03
 CCSD(T)
 CCSD(T)= -0.15266618554D+03

 The electronic state is 1-A'.
 Alpha  occ. eigenvalues --  -20.59496 -20.50273  -1.37347  -1.28295  -0.74311
 Alpha  occ. eigenvalues --   -0.69206  -0.59457  -0.54262  -0.50908  -0.45340
 Alpha virt. eigenvalues --    0.11581   0.17959   0.19296   0.33118   0.47795
 Alpha virt. eigenvalues --    0.54206   0.58882   0.62503   0.69530   0.72176
 Alpha virt. eigenvalues --    0.72419   0.78055   0.81874   0.82885   0.84463

 Mulliken charges:
               1
     1  O   -0.591849
     2  H    0.310053
     3  H    0.234689
     4  O   -0.471231
     5  H    0.263994
     6  H    0.254344
 Sum of Mulliken charges =  -0.00000

 Dipole moment (field-independent basis, Debye):
    X=             -1.4633    Y=             -4.0296    Z=              0.0000  Tot=              4.2871
 Quadrupole moment (field-independent basis, Debye-Ang):
   XX=             -9.1447   YY=             -9.0938   ZZ=            -14.7064
   XY=             -3.2379   XZ=              0.0000   YZ=              0.0000

 Normal termination of Gaussian 16 at Fri Aug 26 20:12:59 2022.
