 Gaussian 16, Revision A.03,
 Gaussian 16:  ES64L-G16RevA.03 25-Dec-2016

 ------------------
 #p CCSD(T)/cc-pVTZ
 ------------------

 ------------
 H2O_H2O_2423
 ------------
 Symbolic Z-matrix:
 Charge =  0 Multiplicity = 1

                         Standard orientation:
 ---------------------------------------------------------------------
 Center     Atomic      Atomic             Coordinates (Angstroms)
 Number     Number       Type             X           Y           Z
 ---------------------------------------------------------------------
      1          8           0       -0.016661    2.060804    0.000000
      2          1           0       -0.013388    1.078208    0.000000
      3          1           0        0.911766    2.382564    0.000000
      4          8           0       -0.016661   -1.897428    0.000000
      5          1           0       -0.996939   -1.964958    0.000000
      6          1           0        0.365133   -2.802823    0.000000
 ---------------------------------------------------------------------

 SCF Done:  E(RHF) =  -152.110893869     A.U. after   10 cycles
 E2 =    -0.5261136867D+00 EUMP2 =    -0.15263700755562D+03
 CCSD(T)
 CCSD(T)= -0.15266411610D+03

 The electronic state is 1-A'.
 Alpha  occ. eigenvalues --  -20.56957 -20.54314  -1.34233  -1.31645  -0.71646
 Alpha  occ. eigenvalues --   -0.69056  -0.57826  -0.55133  -0.51364  -0.48792
 Alpha virt. eigenvalues --    0.12205   0.16453   0.19257   0.24652   0.53764
 Alpha virt. eigenvalues --    0.55296   0.56167   0.58578   0.68735   0.71176
 Alpha virt. eigenvalues --    0.77240   0.79224   0.80088   0.81314   0.83679

 Mulliken charges:
               1
     1  O   -0.525249
     2  H    0.265191
     3  H    0.254267
     4  O   -0.511949
     5  H    0.259556
     6  H    0.258183
 Sum of Mulliken charges =   0.00000

 Dipole moment (field-independent basis, Debye):
    X=              0.5720    Y=             -2.9990    Z=              0.0000  Tot=              3.0531
 Quadrupole moment (field-independent basis, Debye-Ang):
   XX=             -9.5439   YY=             -8.0557   ZZ=            -14.7228
   XY=              5.4062   XZ=              0.0000   YZ=              0.0000

 Normal termination of Gaussian 16 at Sun Aug 28 07:12:01 2022.
