 Gaussian 16, Revision A.03,
 Gaussian 16:  ES64L-G16RevA.03 25-Dec-2016

 ------------------
 #p CCSD(T)/cc-pVTZ
 ------------------

 ------------
 H2O_H2O_3077
 ------------
 Symbolic Z-matrix:
 Charge =  0 Multiplicity = 1

                         Standard orientation:
 ---------------------------------------------------------------------
 Center     Atomic      Atomic             Coordinates (Angstroms)
 Number     Number       Type             X           Y           Z
 ---------------------------------------------------------------------
      1          8           0        0.088232   -2.319683    0.000000
      2          1           0        0.088053   -1.337082    0.000000
      3          1           0       -0.841203   -2.638518    0.000000
      4          8           0        0.088232    2.175364    0.000000
      5          1           0        0.216311    3.149583    0.000000
      6          1           0       -0.874869    1.980572    0.000000
 ---------------------------------------------------------------------

 SCF Done:  E(RHF) =  -152.108375622     A.U. after   10 cycles
 E2 =    -0.5260338471D+00 EUMP2 =    -0.15263440946937D+03
 CCSD(T)
 CCSD(T)= -0.15266158713D+03

 The electronic state is 1-A'.
 Alpha  occ. eigenvalues --  -20.56617 -20.55006  -1.33910  -1.32312  -0.71337
 Alpha  occ. eigenvalues --   -0.69693  -0.57389  -0.55768  -0.51022  -0.49428
 Alpha virt. eigenvalues --    0.11769   0.15580   0.19356   0.22904   0.54158
 Alpha virt. eigenvalues --    0.54729   0.56439   0.58177   0.67799   0.69047
 Alpha virt. eigenvalues --    0.77873   0.78532   0.79440   0.81035   0.82671

 Mulliken charges:
               1
     1  O   -0.511837
     2  H    0.260766
     3  H    0.249541
     4  O   -0.509513
     5  H    0.259760
     6  H    0.251283
 Sum of Mulliken charges =   0.00000

 Dipole moment (field-independent basis, Debye):
    X=             -3.0064    Y=              2.5866    Z=              0.0000  Tot=              3.9660
 Quadrupole moment (field-independent basis, Debye-Ang):
   XX=            -10.5611   YY=             -8.6534   ZZ=            -14.7141
   XY=              2.5816   XZ=              0.0000   YZ=              0.0000

 Normal termination of Gaussian 16 at Fri Aug 26 19:38:36 2022.
