 Gaussian 16, Revision A.03,
 Gaussian 16:  ES64L-G16RevA.03 25-Dec-2016

 ------------------
 #p CCSD(T)/cc-pVTZ
 ------------------

 -----------
 H2O_H2O_500
 -----------
 Symbolic Z-matrix:
 Charge =  0 Multiplicity = 1

                         Standard orientation:
 ---------------------------------------------------------------------
 Center     Atomic      Atomic             Coordinates (Angstroms)
 Number     Number       Type             X           Y           Z
 ---------------------------------------------------------------------
      1          8           0        0.092949   -1.286310    0.000000
      2          1           0        0.092949   -0.303709    0.000000
      3          1           0       -0.836544   -1.604977    0.000000
      4          8           0        0.092949    1.153523    0.000000
      5          1           0        0.092949    2.136125    0.000000
      6          1           0       -0.836544    0.834857    0.000000
 ---------------------------------------------------------------------

 SCF Done:  E(RHF) =  -152.086953071     A.U. after   11 cycles
 E2 =    -0.5337333921D+00 EUMP2 =    -0.15262068646325D+03
 CCSD(T)
 CCSD(T)= -0.15264719354D+03

 The electronic state is 1-A'.
 Alpha  occ. eigenvalues --  -20.59976 -20.51441  -1.39010  -1.29516  -0.78468
 Alpha  occ. eigenvalues --   -0.67818  -0.59609  -0.55110  -0.52203  -0.46478
 Alpha virt. eigenvalues --    0.11247   0.16313   0.21228   0.32172   0.48528
 Alpha virt. eigenvalues --    0.51576   0.59033   0.65576   0.70801   0.71062
 Alpha virt. eigenvalues --    0.73871   0.77357   0.78832   0.82409   0.83615

 Mulliken charges:
               1
     1  O   -0.558964
     2  H    0.281538
     3  H    0.212660
     4  O   -0.393019
     5  H    0.230372
     6  H    0.227414
 Sum of Mulliken charges =  -0.00000

 Dipole moment (field-independent basis, Debye):
    X=             -2.9897    Y=              3.2439    Z=              0.0000  Tot=              4.4114
 Quadrupole moment (field-independent basis, Debye-Ang):
   XX=            -10.8754   YY=             -9.5108   ZZ=            -14.6249
   XY=              2.0074   XZ=              0.0000   YZ=              0.0000

 Normal termination of Gaussian 16 at Fri Aug 26 18:40:40 2022.
