 Gaussian 16, Revision A.03,
 Gaussian 16:  ES64L-G16RevA.03 25-Dec-2016

 ------------------
 #p CCSD(T)/cc-pVTZ
 ------------------

 ------------
 H2O_H2O_2944
 ------------
 Symbolic Z-matrix:
 Charge =  0 Multiplicity = 1

                         Standard orientation:
 ---------------------------------------------------------------------
 Center     Atomic      Atomic             Coordinates (Angstroms)
 Number     Number       Type             X           Y           Z
 ---------------------------------------------------------------------
      1          8           0        0.030196    2.276851    0.000000
      2          1           0        0.027762    1.294253    0.000000
      3          1           0       -0.898505    2.597819   -0.000000
      4          8           0        0.030196   -2.101249    0.000000
      5          1           0        0.959866   -2.419399    0.000000
      6          1           0       -0.572259   -2.877493   -0.000000
 ---------------------------------------------------------------------

 SCF Done:  E(RHF) =  -152.110065117     A.U. after   10 cycles
 E2 =    -0.5259353566D+00 EUMP2 =    -0.15263600047365D+03
 CCSD(T)
 CCSD(T)= -0.15266313777D+03

 The electronic state is 1-A'.
 Alpha  occ. eigenvalues --  -20.56669 -20.54444  -1.33947  -1.31766  -0.71348
 Alpha  occ. eigenvalues --   -0.69167  -0.57500  -0.55258  -0.51078  -0.48905
 Alpha virt. eigenvalues --    0.12451   0.16010   0.19386   0.22934   0.53321
 Alpha virt. eigenvalues --    0.55538   0.56421   0.58494   0.68448   0.69348
 Alpha virt. eigenvalues --    0.77804   0.78997   0.79845   0.79924   0.83266

 Mulliken charges:
               1
     1  O   -0.520566
     2  H    0.264310
     3  H    0.253088
     4  O   -0.514670
     5  H    0.259736
     6  H    0.258103
 Sum of Mulliken charges =  -0.00000

 Dipole moment (field-independent basis, Debye):
    X=             -1.0305    Y=             -3.1673    Z=              0.0000  Tot=              3.3307
 Quadrupole moment (field-independent basis, Debye-Ang):
   XX=             -9.2294   YY=             -7.3849   ZZ=            -14.7204
   XY=             -5.3245   XZ=              0.0000   YZ=             -0.0000

 Normal termination of Gaussian 16 at Fri Aug 26 18:36:58 2022.
