 Gaussian 16, Revision A.03,
 Gaussian 16:  ES64L-G16RevA.03 25-Dec-2016

 ------------------
 #p CCSD(T)/cc-pVTZ
 ------------------

 ------------
 H2O_H2O_1673
 ------------
 Symbolic Z-matrix:
 Charge =  0 Multiplicity = 1

                         Standard orientation:
 ---------------------------------------------------------------------
 Center     Atomic      Atomic             Coordinates (Angstroms)
 Number     Number       Type             X           Y           Z
 ---------------------------------------------------------------------
      1          8           0       -0.016709    1.761638    0.000000
      2          1           0       -0.012854    0.779044    0.000000
      3          1           0        0.911526    2.083949    0.000000
      4          8           0       -0.016709   -1.598281    0.000000
      5          1           0       -0.996947   -1.666394    0.000000
      6          1           0        0.365622   -2.503450    0.000000
 ---------------------------------------------------------------------

 SCF Done:  E(RHF) =  -152.112830599     A.U. after   10 cycles
 E2 =    -0.5267858076D+00 EUMP2 =    -0.15263961640620D+03
 CCSD(T)
 CCSD(T)= -0.15266665542D+03

 The electronic state is 1-A'.
 Alpha  occ. eigenvalues --  -20.57650 -20.53570  -1.34946  -1.30967  -0.72399
 Alpha  occ. eigenvalues --   -0.68444  -0.58706  -0.54366  -0.52068  -0.48122
 Alpha virt. eigenvalues --    0.12178   0.17311   0.19181   0.27943   0.51486
 Alpha virt. eigenvalues --    0.54353   0.55838   0.59988   0.68882   0.73786
 Alpha virt. eigenvalues --    0.74912   0.77650   0.80984   0.83048   0.84253

 Mulliken charges:
               1
     1  O   -0.538359
     2  H    0.271187
     3  H    0.253459
     4  O   -0.505042
     5  H    0.262608
     6  H    0.256147
 Sum of Mulliken charges =  -0.00000

 Dipole moment (field-independent basis, Debye):
    X=              0.5719    Y=             -3.1472    Z=              0.0000  Tot=              3.1987
 Quadrupole moment (field-independent basis, Debye-Ang):
   XX=             -9.5444   YY=             -8.4041   ZZ=            -14.7298
   XY=              4.6156   XZ=              0.0000   YZ=              0.0000

 Normal termination of Gaussian 16 at Sun Aug 28 00:29:18 2022.
