 Gaussian 16, Revision A.03,
 Gaussian 16:  ES64L-G16RevA.03 25-Dec-2016

 ------------------
 #p CCSD(T)/cc-pVTZ
 ------------------

 ----------
 H2O_H2O_22
 ----------
 Symbolic Z-matrix:
 Charge =  0 Multiplicity = 1

                         Standard orientation:
 ---------------------------------------------------------------------
 Center     Atomic      Atomic             Coordinates (Angstroms)
 Number     Number       Type             X           Y           Z
 ---------------------------------------------------------------------
      1          8           0        0.020144   -1.105463    0.000000
      2          1           0        0.014075   -0.122881    0.000000
      3          1           0       -0.907363   -1.429865    0.000000
      4          8           0        0.020144    0.938495    0.000000
      5          1           0        0.993529    1.072765    0.000000
      6          1           0       -0.422546    1.815725    0.000000
 ---------------------------------------------------------------------

 SCF Done:  E(RHF) =  -152.023306377     A.U. after   11 cycles
 E2 =    -0.5368125352D+00 EUMP2 =    -0.15256011891203D+03
 CCSD(T)
 CCSD(T)= -0.15258551327D+03

 The electronic state is 1-A'.
 Alpha  occ. eigenvalues --  -20.62046 -20.43843  -1.44870  -1.24322  -0.82896
 Alpha  occ. eigenvalues --   -0.74788  -0.58987  -0.55068  -0.43795  -0.40835
 Alpha virt. eigenvalues --    0.10479   0.16749   0.21061   0.33269   0.47378
 Alpha virt. eigenvalues --    0.51426   0.60434   0.69175   0.70211   0.71339
 Alpha virt. eigenvalues --    0.76157   0.77021   0.81142   0.85168   0.88631

 Mulliken charges:
               1
     1  O   -0.691679
     2  H    0.264620
     3  H    0.217490
     4  O   -0.287013
     5  H    0.267742
     6  H    0.228840
 Sum of Mulliken charges =  -0.00000

 Dipole moment (field-independent basis, Debye):
    X=             -0.5950    Y=              4.8936    Z=              0.0000  Tot=              4.9297
 Quadrupole moment (field-independent basis, Debye-Ang):
   XX=             -9.3041   YY=            -10.2234   ZZ=            -14.5245
   XY=              2.7344   XZ=              0.0000   YZ=              0.0000

 Normal termination of Gaussian 16 at Fri Aug 26 15:20:07 2022.
