 Gaussian 16, Revision A.03,
 Gaussian 16:  ES64L-G16RevA.03 25-Dec-2016

 ------------------
 #p CCSD(T)/cc-pVTZ
 ------------------

 ------------
 H2O_H2O_3648
 ------------
 Symbolic Z-matrix:
 Charge =  0 Multiplicity = 1

                         Standard orientation:
 ---------------------------------------------------------------------
 Center     Atomic      Atomic             Coordinates (Angstroms)
 Number     Number       Type             X           Y           Z
 ---------------------------------------------------------------------
      1          8           0       -0.016607    2.549437    0.000000
      2          1           0       -0.013982    1.566839    0.000000
      3          1           0        0.912032    2.870585    0.000000
      4          8           0       -0.016607   -2.386039    0.000000
      5          1           0       -0.996929   -2.452924    0.000000
      6          1           0        0.364589   -3.291686    0.000000
 ---------------------------------------------------------------------

 SCF Done:  E(RHF) =  -152.109012567     A.U. after   10 cycles
 E2 =    -0.5258312637D+00 EUMP2 =    -0.15263484383071D+03
 CCSD(T)
 CCSD(T)= -0.15266202012D+03

 The electronic state is 1-A'.
 Alpha  occ. eigenvalues --  -20.56378 -20.54859  -1.33676  -1.32172  -0.71082
 Alpha  occ. eigenvalues --   -0.69578  -0.57188  -0.55655  -0.50798  -0.49302
 Alpha virt. eigenvalues --    0.12624   0.15405   0.19273   0.22040   0.53263
 Alpha virt. eigenvalues --    0.55277   0.56571   0.57911   0.66824   0.69187
 Alpha virt. eigenvalues --    0.78100   0.78780   0.79544   0.80651   0.82870

 Mulliken charges:
               1
     1  O   -0.516661
     2  H    0.261045
     3  H    0.254791
     4  O   -0.516023
     5  H    0.257925
     6  H    0.258924
 Sum of Mulliken charges =  -0.00000

 Dipole moment (field-independent basis, Debye):
    X=              0.5706    Y=             -2.8968    Z=              0.0000  Tot=              2.9525
 Quadrupole moment (field-independent basis, Debye-Ang):
   XX=             -9.5428   YY=             -7.5589   ZZ=            -14.7168
   XY=              6.6922   XZ=              0.0000   YZ=              0.0000

 CCSD(T)=-152.6620201\RMSD=7.030e-09\PG=CS [SG(H4O2)]\\@
 Normal termination of Gaussian 16 at Fri Aug 26 22:52:43 2022.
