 Gaussian 16, Revision A.03,
 Gaussian 16:  ES64L-G16RevA.03 25-Dec-2016

 ------------------
 #p CCSD(T)/cc-pVTZ
 ------------------

 ------------
 H2O_H2O_1445
 ------------
 Symbolic Z-matrix:
 Charge =  0 Multiplicity = 1

                         Standard orientation:
 ---------------------------------------------------------------------
 Center     Atomic      Atomic             Coordinates (Angstroms)
 Number     Number       Type             X           Y           Z
 ---------------------------------------------------------------------
      1          8           0        0.026749    1.677219    0.000000
      2          1           0        0.023212    0.694624    0.000000
      3          1           0       -0.901591    1.999229   -0.000000
      4          8           0        0.026749   -1.504051    0.000000
      5          1           0        0.974949   -1.761782    0.000000
      6          1           0       -0.524561   -2.317416   -0.000000
 ---------------------------------------------------------------------

 SCF Done:  E(RHF) =  -152.113853415     A.U. after   10 cycles
 E2 =    -0.5272039737D+00 EUMP2 =    -0.15264105738861D+03
 CCSD(T)
 CCSD(T)= -0.15266804717D+03

 The electronic state is 1-A'.
 Alpha  occ. eigenvalues --  -20.57995 -20.52935  -1.35309  -1.30395  -0.72698
 Alpha  occ. eigenvalues --   -0.68057  -0.59144  -0.53712  -0.52430  -0.47548
 Alpha virt. eigenvalues --    0.12127   0.17759   0.18939   0.29329   0.50342
 Alpha virt. eigenvalues --    0.54326   0.55890   0.60575   0.68820   0.72992
 Alpha virt. eigenvalues --    0.74046   0.77087   0.81562   0.82891   0.84539

 Mulliken charges:
               1
     1  O   -0.546483
     2  H    0.278029
     3  H    0.250011
     4  O   -0.502682
     5  H    0.264621
     6  H    0.256505
 Sum of Mulliken charges =  -0.00000

 Dipole moment (field-independent basis, Debye):
    X=             -0.9009    Y=             -3.4186    Z=             -0.0000  Tot=              3.5353
 Quadrupole moment (field-independent basis, Debye-Ang):
   XX=             -9.2877   YY=             -8.3986   ZZ=            -14.7336
   XY=             -4.0937   XZ=              0.0000   YZ=             -0.0000

 Normal termination of Gaussian 16 at Sat Aug 27 00:37:44 2022.
