 Gaussian 16, Revision A.03,
 Gaussian 16:  ES64L-G16RevA.03 25-Dec-2016

 ------------------
 #p CCSD(T)/cc-pVTZ
 ------------------

 ------------
 H2O_H2O_3522
 ------------
 Symbolic Z-matrix:
 Charge =  0 Multiplicity = 1

                         Standard orientation:
 ---------------------------------------------------------------------
 Center     Atomic      Atomic             Coordinates (Angstroms)
 Number     Number       Type             X           Y           Z
 ---------------------------------------------------------------------
      1          8           0       -0.019846    2.501594    0.000000
      2          1           0       -0.017281    1.518996    0.000000
      3          1           0        0.908812    2.822686    0.000000
      4          8           0       -0.019846   -2.334483    0.000000
      5          1           0       -0.993703   -2.465281    0.000000
      6          1           0        0.419713   -3.213286    0.000000
 ---------------------------------------------------------------------

 SCF Done:  E(RHF) =  -152.109178300     A.U. after   10 cycles
 E2 =    -0.5258423152D+00 EUMP2 =    -0.15263502061548D+03
 CCSD(T)
 CCSD(T)= -0.15266219063D+03

 The electronic state is 1-A'.
 Alpha  occ. eigenvalues --  -20.56420 -20.54782  -1.33715  -1.32096  -0.71120
 Alpha  occ. eigenvalues --   -0.69501  -0.57233  -0.55580  -0.50839  -0.49227
 Alpha virt. eigenvalues --    0.12603   0.15505   0.19332   0.22095   0.53321
 Alpha virt. eigenvalues --    0.55307   0.56545   0.57965   0.66967   0.69262
 Alpha virt. eigenvalues --    0.78062   0.78737   0.79615   0.80454   0.82944

 Mulliken charges:
               1
     1  O   -0.517253
     2  H    0.261670
     3  H    0.254481
     4  O   -0.516078
     5  H    0.258355
     6  H    0.258826
 Sum of Mulliken charges =   0.00000

 Dipole moment (field-independent basis, Debye):
    X=              0.6806    Y=             -2.9701    Z=              0.0000  Tot=              3.0471
 Quadrupole moment (field-independent basis, Debye-Ang):
   XX=             -9.4466   YY=             -7.4348   ZZ=            -14.7174
   XY=              6.3695   XZ=              0.0000   YZ=              0.0000

 Normal termination of Gaussian 16 at Fri Aug 26 22:11:02 2022.
