 Gaussian 16, Revision A.03,
 Gaussian 16:  ES64L-G16RevA.03 25-Dec-2016

 ------------------
 #p CCSD(T)/cc-pVTZ
 ------------------

 -----------
 H2O_H2O_207
 -----------
 Symbolic Z-matrix:
 Charge =  0 Multiplicity = 1

                         Standard orientation:
 ---------------------------------------------------------------------
 Center     Atomic      Atomic             Coordinates (Angstroms)
 Number     Number       Type             X           Y           Z
 ---------------------------------------------------------------------
      1          8           0        0.073601   -1.185143    0.000000
      2          1           0        0.072106   -0.202543    0.000000
      3          1           0       -0.855406   -1.505223    0.000000
      4          8           0        0.073601    1.018316    0.000000
      5          1           0        0.506853    1.900245    0.000000
      6          1           0       -0.901168    1.142134    0.000000
 ---------------------------------------------------------------------

 SCF Done:  E(RHF) =  -152.066846778     A.U. after   11 cycles
 E2 =    -0.5355142197D+00 EUMP2 =    -0.15260236099738D+03
 CCSD(T)
 CCSD(T)= -0.15262822295D+03

 The electronic state is 1-A'.
 Alpha  occ. eigenvalues --  -20.61326 -20.46946  -1.41711  -1.26216  -0.79563
 Alpha  occ. eigenvalues --   -0.72882  -0.57230  -0.56508  -0.47465  -0.42960
 Alpha virt. eigenvalues --    0.10680   0.16307   0.21063   0.32587   0.48935
 Alpha virt. eigenvalues --    0.52151   0.60186   0.64510   0.71554   0.72233
 Alpha virt. eigenvalues --    0.77650   0.78067   0.80731   0.84617   0.85165

 Mulliken charges:
               1
     1  O   -0.624171
     2  H    0.288782
     3  H    0.202691
     4  O   -0.341340
     5  H    0.234339
     6  H    0.239699
 Sum of Mulliken charges =  -0.00000

 Dipole moment (field-independent basis, Debye):
    X=             -2.2777    Y=              4.4553    Z=              0.0000  Tot=              5.0038
 Quadrupole moment (field-independent basis, Debye-Ang):
   XX=             -9.7952   YY=             -9.8115   ZZ=            -14.5857
   XY=              2.6248   XZ=              0.0000   YZ=              0.0000

 Normal termination of Gaussian 16 at Fri Aug 26 16:36:20 2022.
