 Gaussian 16, Revision A.03,
 Gaussian 16:  ES64L-G16RevA.03 25-Dec-2016

 ------------------
 #p CCSD(T)/cc-pVTZ
 ------------------

 ------------
 H2O_H2O_2176
 ------------
 Symbolic Z-matrix:
 Charge =  0 Multiplicity = 1

                         Standard orientation:
 ---------------------------------------------------------------------
 Center     Atomic      Atomic             Coordinates (Angstroms)
 Number     Number       Type             X           Y           Z
 ---------------------------------------------------------------------
      1          8           0        0.090686   -1.957644    0.000000
      2          1           0        0.090584   -0.975043    0.000000
      3          1           0       -0.838774   -2.276407    0.000000
      4          8           0        0.090686    1.818939    0.000000
      5          1           0        0.154849    2.799444    0.000000
      6          1           0       -0.857633    1.561648    0.000000
 ---------------------------------------------------------------------

 SCF Done:  E(RHF) =  -152.109025925     A.U. after   10 cycles
 E2 =    -0.5265273037D+00 EUMP2 =    -0.15263555322915D+03
 CCSD(T)
 CCSD(T)= -0.15266268987D+03

 The electronic state is 1-A'.
 Alpha  occ. eigenvalues --  -20.57159 -20.54799  -1.34450  -1.32109  -0.71942
 Alpha  occ. eigenvalues --   -0.69447  -0.57948  -0.55545  -0.51551  -0.49223
 Alpha virt. eigenvalues --    0.11515   0.16064   0.19991   0.24955   0.52641
 Alpha virt. eigenvalues --    0.55780   0.56749   0.57498   0.68289   0.72874
 Alpha virt. eigenvalues --    0.76637   0.79250   0.79814   0.80740   0.83195

 Mulliken charges:
               1
     1  O   -0.514817
     2  H    0.264723
     3  H    0.245556
     4  O   -0.501457
     5  H    0.258791
     6  H    0.247203
 Sum of Mulliken charges =  -0.00000

 Dipole moment (field-independent basis, Debye):
    X=             -3.0642    Y=              2.5665    Z=              0.0000  Tot=              3.9970
 Quadrupole moment (field-independent basis, Debye-Ang):
   XX=            -10.7309   YY=             -8.9487   ZZ=            -14.7151
   XY=              2.3299   XZ=              0.0000   YZ=              0.0000

 Normal termination of Gaussian 16 at Sun Aug 28 05:07:55 2022.
