 Gaussian 16, Revision A.03,
 Gaussian 16:  ES64L-G16RevA.03 25-Dec-2016

 ------------------
 #p CCSD(T)/cc-pVTZ
 ------------------

 ------------
 H2O_H2O_3098
 ------------
 Symbolic Z-matrix:
 Charge =  0 Multiplicity = 1

                         Standard orientation:
 ---------------------------------------------------------------------
 Center     Atomic      Atomic             Coordinates (Angstroms)
 Number     Number       Type             X           Y           Z
 ---------------------------------------------------------------------
      1          8           0       -0.016628    2.330052    0.000000
      2          1           0       -0.013748    1.347454    0.000000
      3          1           0        0.911927    2.651442    0.000000
      4          8           0       -0.016628   -2.166662    0.000000
      5          1           0       -0.996933   -2.233801    0.000000
      6          1           0        0.364805   -3.072209    0.000000
 ---------------------------------------------------------------------

 SCF Done:  E(RHF) =  -152.109649026     A.U. after   10 cycles
 E2 =    -0.5259021375D+00 EUMP2 =    -0.15263555116349D+03
 CCSD(T)
 CCSD(T)= -0.15266270299D+03

 The electronic state is 1-A'.
 Alpha  occ. eigenvalues --  -20.56581 -20.54669  -1.33869  -1.31986  -0.71277
 Alpha  occ. eigenvalues --   -0.69393  -0.57403  -0.55476  -0.50996  -0.49122
 Alpha virt. eigenvalues --    0.12329   0.15825   0.19259   0.22882   0.53628
 Alpha virt. eigenvalues --    0.55529   0.56445   0.58195   0.67816   0.69341
 Alpha virt. eigenvalues --    0.77897   0.78726   0.79716   0.80569   0.83093

 Mulliken charges:
               1
     1  O   -0.519383
     2  H    0.262549
     3  H    0.254646
     4  O   -0.515285
     5  H    0.258530
     6  H    0.258943
 Sum of Mulliken charges =  -0.00000

 Dipole moment (field-independent basis, Debye):
    X=              0.5711    Y=             -2.9305    Z=              0.0000  Tot=              2.9856
 Quadrupole moment (field-independent basis, Debye-Ang):
   XX=             -9.5429   YY=             -7.7787   ZZ=            -14.7189
   XY=              6.1147   XZ=              0.0000   YZ=              0.0000

 Normal termination of Gaussian 16 at Fri Aug 26 19:45:27 2022.
