 Gaussian 16, Revision A.03,
 Gaussian 16:  ES64L-G16RevA.03 25-Dec-2016

 ------------------
 #p CCSD(T)/cc-pVTZ
 ------------------

 ------------
 H2O_H2O_1667
 ------------
 Symbolic Z-matrix:
 Charge =  0 Multiplicity = 1

                         Standard orientation:
 ---------------------------------------------------------------------
 Center     Atomic      Atomic             Coordinates (Angstroms)
 Number     Number       Type             X           Y           Z
 ---------------------------------------------------------------------
      1          8           0        0.037512    1.770081    0.000000
      2          1           0        0.034709    0.787484    0.000000
      3          1           0       -0.891068    2.091398    0.000000
      4          8           0        0.037512   -1.591172   -0.000000
      5          1           0        0.917537   -2.028278   -0.000000
      6          1           0       -0.661369   -2.281876   -0.000000
 ---------------------------------------------------------------------

 SCF Done:  E(RHF) =  -152.113518620     A.U. after   10 cycles
 E2 =    -0.5268081157D+00 EUMP2 =    -0.15264032673610D+03
 CCSD(T)
 CCSD(T)= -0.15266734918D+03

 The electronic state is 1-A'.
 Alpha  occ. eigenvalues --  -20.57722 -20.53219  -1.34988  -1.30627  -0.72351
 Alpha  occ. eigenvalues --   -0.68165  -0.58784  -0.54025  -0.52126  -0.47783
 Alpha virt. eigenvalues --    0.12160   0.17468   0.19005   0.28061   0.50806
 Alpha virt. eigenvalues --    0.54452   0.56178   0.59500   0.69000   0.72371
 Alpha virt. eigenvalues --    0.74992   0.77038   0.81228   0.83191   0.84672

 Mulliken charges:
               1
     1  O   -0.538189
     2  H    0.273806
     3  H    0.248801
     4  O   -0.507562
     5  H    0.264123
     6  H    0.259021
 Sum of Mulliken charges =  -0.00000

 Dipole moment (field-independent basis, Debye):
    X=             -1.2633    Y=             -3.4536    Z=             -0.0000  Tot=              3.6774
 Quadrupole moment (field-independent basis, Debye-Ang):
   XX=             -9.1613   YY=             -8.1479   ZZ=            -14.7340
   XY=             -4.0495   XZ=             -0.0000   YZ=             -0.0000

 Normal termination of Gaussian 16 at Sun Aug 28 00:27:02 2022.
