 Gaussian 16, Revision A.03,
 Gaussian 16:  ES64L-G16RevA.03 25-Dec-2016

 ------------------
 #p CCSD(T)/cc-pVTZ
 ------------------

 ------------
 H2O_H2O_1128
 ------------
 Symbolic Z-matrix:
 Charge =  0 Multiplicity = 1

                         Standard orientation:
 ---------------------------------------------------------------------
 Center     Atomic      Atomic             Coordinates (Angstroms)
 Number     Number       Type             X           Y           Z
 ---------------------------------------------------------------------
      1          8           0        0.085612   -1.544726    0.000000
      2          1           0        0.085188   -0.562125    0.000000
      3          1           0       -0.843743   -1.863794    0.000000
      4          8           0        0.085612    1.395156    0.000000
      5          1           0        0.276892    2.358959    0.000000
      6          1           0       -0.888133    1.263526    0.000000
 ---------------------------------------------------------------------

 SCF Done:  E(RHF) =  -152.109597687     A.U. after   10 cycles
 E2 =    -0.5286990770D+00 EUMP2 =    -0.15263829676404D+03
 CCSD(T)
 CCSD(T)= -0.15266526961D+03

 The electronic state is 1-A'.
 Alpha  occ. eigenvalues --  -20.58484 -20.53263  -1.35989  -1.30760  -0.73811
 Alpha  occ. eigenvalues --   -0.68289  -0.59407  -0.53974  -0.52986  -0.47845
 Alpha virt. eigenvalues --    0.11547   0.16614   0.20178   0.30230   0.48659
 Alpha virt. eigenvalues --    0.54078   0.58236   0.59455   0.68731   0.72556
 Alpha virt. eigenvalues --    0.74503   0.77482   0.81152   0.81755   0.83544

 Mulliken charges:
               1
     1  O   -0.537903
     2  H    0.283232
     3  H    0.234423
     4  O   -0.460424
     5  H    0.239114
     6  H    0.241558
 Sum of Mulliken charges =  -0.00000

 Dipole moment (field-independent basis, Debye):
    X=             -2.8307    Y=              3.0743    Z=              0.0000  Tot=              4.1790
 Quadrupole moment (field-independent basis, Debye-Ang):
   XX=            -10.4505   YY=             -8.9014   ZZ=            -14.7074
   XY=              2.5513   XZ=              0.0000   YZ=              0.0000

 Normal termination of Gaussian 16 at Fri Aug 26 22:37:48 2022.
