 Gaussian 16, Revision A.03,
 Gaussian 16:  ES64L-G16RevA.03 25-Dec-2016

 ------------------
 #p CCSD(T)/cc-pVTZ
 ------------------

 ------------
 H2O_H2O_3496
 ------------
 Symbolic Z-matrix:
 Charge =  0 Multiplicity = 1

                         Standard orientation:
 ---------------------------------------------------------------------
 Center     Atomic      Atomic             Coordinates (Angstroms)
 Number     Number       Type             X           Y           Z
 ---------------------------------------------------------------------
      1          8           0       -0.023196    2.493405    0.000000
      2          1           0       -0.020738    1.510807    0.000000
      3          1           0        0.905497    2.814395    0.000000
      4          8           0       -0.023196   -2.323011    0.000000
      5          1           0       -0.986434   -2.517117    0.000000
      6          1           0        0.472806   -3.171237    0.000000
 ---------------------------------------------------------------------

 SCF Done:  E(RHF) =  -152.109239742     A.U. after   10 cycles
 E2 =    -0.5258450587D+00 EUMP2 =    -0.15263508480104D+03
 CCSD(T)
 CCSD(T)= -0.15266225257D+03

 The electronic state is 1-A'.
 Alpha  occ. eigenvalues --  -20.56431 -20.54739  -1.33725  -1.32053  -0.71129
 Alpha  occ. eigenvalues --   -0.69457  -0.57246  -0.55538  -0.50849  -0.49185
 Alpha virt. eigenvalues --    0.12640   0.15534   0.19389   0.22045   0.53338
 Alpha virt. eigenvalues --    0.55285   0.56535   0.57988   0.67012   0.69288
 Alpha virt. eigenvalues --    0.78052   0.78760   0.79655   0.80274   0.82979

 Mulliken charges:
               1
     1  O   -0.517423
     2  H    0.262037
     3  H    0.254184
     4  O   -0.516103
     5  H    0.258646
     6  H    0.258659
 Sum of Mulliken charges =  -0.00000

 Dipole moment (field-independent basis, Debye):
    X=              0.7946    Y=             -3.0307    Z=              0.0000  Tot=              3.1332
 Quadrupole moment (field-independent basis, Debye-Ang):
   XX=             -9.3613   YY=             -7.2972   ZZ=            -14.7177
   XY=              6.1588   XZ=              0.0000   YZ=              0.0000

 CCSD(T)=-152.6622526\RMSD=6.983e-09\PG=CS [SG(H4O2)]\\@
 Normal termination of Gaussian 16 at Fri Aug 26 22:01:14 2022.
