 Gaussian 16, Revision A.03,
 Gaussian 16:  ES64L-G16RevA.03 25-Dec-2016

 ------------------
 #p CCSD(T)/cc-pVTZ
 ------------------

 ------------
 H2O_H2O_3709
 ------------
 Symbolic Z-matrix:
 Charge =  0 Multiplicity = 1

                         Standard orientation:
 ---------------------------------------------------------------------
 Center     Atomic      Atomic             Coordinates (Angstroms)
 Number     Number       Type             X           Y           Z
 ---------------------------------------------------------------------
      1          8           0        0.066752    2.584625    0.000000
      2          1           0        0.065862    1.602024    0.000000
      3          1           0       -0.862452    2.904133   -0.000000
      4          8           0        0.066752   -2.411508    0.000000
      5          1           0        0.611916   -3.229005    0.000000
      6          1           0       -0.883362   -2.662085   -0.000000
 ---------------------------------------------------------------------

 SCF Done:  E(RHF) =  -152.108696235     A.U. after   10 cycles
 E2 =    -0.5258650826D+00 EUMP2 =    -0.15263456131764D+03
 CCSD(T)
 CCSD(T)= -0.15266174300D+03

 The electronic state is 1-A'.
 Alpha  occ. eigenvalues --  -20.56380 -20.54816  -1.33675  -1.32127  -0.71082
 Alpha  occ. eigenvalues --   -0.69520  -0.57174  -0.55598  -0.50794  -0.49251
 Alpha virt. eigenvalues --    0.12757   0.15323   0.19502   0.21592   0.53373
 Alpha virt. eigenvalues --    0.55026   0.56492   0.57952   0.66784   0.69202
 Alpha virt. eigenvalues --    0.78107   0.78894   0.79598   0.80119   0.82877

 Mulliken charges:
               1
     1  O   -0.514203
     2  H    0.261696
     3  H    0.251709
     4  O   -0.514328
     5  H    0.259693
     6  H    0.255432
 Sum of Mulliken charges =  -0.00000

 Dipole moment (field-independent basis, Debye):
    X=             -2.2830    Y=             -3.0687    Z=             -0.0000  Tot=              3.8248
 Quadrupole moment (field-independent basis, Debye-Ang):
   XX=             -9.5620   YY=             -7.0718   ZZ=            -14.7158
   XY=             -4.1456   XZ=              0.0000   YZ=             -0.0000

 Normal termination of Gaussian 16 at Fri Aug 26 23:14:17 2022.
