 Gaussian 16, Revision A.03,
 Gaussian 16:  ES64L-G16RevA.03 25-Dec-2016

 ------------------
 #p CCSD(T)/cc-pVTZ
 ------------------

 ------------
 H2O_H2O_3610
 ------------
 Symbolic Z-matrix:
 Charge =  0 Multiplicity = 1

                         Standard orientation:
 ---------------------------------------------------------------------
 Center     Atomic      Atomic             Coordinates (Angstroms)
 Number     Number       Type             X           Y           Z
 ---------------------------------------------------------------------
      1          8           0        0.063228    2.546042    0.000000
      2          1           0        0.062202    1.563441    0.000000
      3          1           0       -0.865932    2.865679    0.000000
      4          8           0        0.063228   -2.370523    0.000000
      5          1           0        0.660584   -3.150697    0.000000
      6          1           0       -0.868507   -2.682575    0.000000
 ---------------------------------------------------------------------

 SCF Done:  E(RHF) =  -152.108855206     A.U. after   10 cycles
 E2 =    -0.5258688844D+00 EUMP2 =    -0.15263472409011D+03
 CCSD(T)
 CCSD(T)= -0.15266190051D+03

 The electronic state is 1-A'.
 Alpha  occ. eigenvalues --  -20.56410 -20.54756  -1.33703  -1.32068  -0.71109
 Alpha  occ. eigenvalues --   -0.69462  -0.57209  -0.55542  -0.50824  -0.49194
 Alpha virt. eigenvalues --    0.12735   0.15407   0.19523   0.21674   0.53397
 Alpha virt. eigenvalues --    0.55041   0.56476   0.57995   0.66873   0.69263
 Alpha virt. eigenvalues --    0.78079   0.78899   0.79651   0.79932   0.82937

 Mulliken charges:
               1
     1  O   -0.514876
     2  H    0.262158
     3  H    0.251716
     4  O   -0.514579
     5  H    0.259791
     6  H    0.255790
 Sum of Mulliken charges =  -0.00000

 Dipole moment (field-independent basis, Debye):
    X=             -2.1617    Y=             -3.1170    Z=             -0.0000  Tot=              3.7932
 Quadrupole moment (field-independent basis, Debye-Ang):
   XX=             -9.4556   YY=             -7.0137   ZZ=            -14.7164
   XY=             -4.3001   XZ=             -0.0000   YZ=             -0.0000

 Normal termination of Gaussian 16 at Fri Aug 26 22:40:06 2022.
