 Gaussian 16, Revision A.03,
 Gaussian 16:  ES64L-G16RevA.03 25-Dec-2016

 ------------------
 #p CCSD(T)/cc-pVTZ
 ------------------

 ------------
 H2O_H2O_1629
 ------------
 Symbolic Z-matrix:
 Charge =  0 Multiplicity = 1

                         Standard orientation:
 ---------------------------------------------------------------------
 Center     Atomic      Atomic             Coordinates (Angstroms)
 Number     Number       Type             X           Y           Z
 ---------------------------------------------------------------------
      1          8           0        0.082814   -1.746839    0.000000
      2          1           0        0.082299   -0.764238    0.000000
      3          1           0       -0.846511   -2.065993    0.000000
      4          8           0        0.082814    1.592344    0.000000
      5          1           0        0.336633    2.541599    0.000000
      6          1           0       -0.897449    1.524592    0.000000
 ---------------------------------------------------------------------

 SCF Done:  E(RHF) =  -152.110882929     A.U. after   10 cycles
 E2 =    -0.5271486938D+00 EUMP2 =    -0.15263803162270D+03
 CCSD(T)
 CCSD(T)= -0.15266509592D+03

 The electronic state is 1-A'.
 Alpha  occ. eigenvalues --  -20.57730 -20.53965  -1.35040  -1.31331  -0.72566
 Alpha  occ. eigenvalues --   -0.68713  -0.58646  -0.54714  -0.52135  -0.48452
 Alpha virt. eigenvalues --    0.11702   0.16574   0.19842   0.27467   0.50249
 Alpha virt. eigenvalues --    0.55230   0.57243   0.58032   0.68970   0.74438
 Alpha virt. eigenvalues --    0.74684   0.77597   0.80743   0.82713   0.83681

 Mulliken charges:
               1
     1  O   -0.525592
     2  H    0.272310
     3  H    0.241784
     4  O   -0.493695
     5  H    0.255327
     6  H    0.249867
 Sum of Mulliken charges =   0.00000

 Dipole moment (field-independent basis, Debye):
    X=             -2.7769    Y=              2.9789    Z=              0.0000  Tot=              4.0725
 Quadrupole moment (field-independent basis, Debye-Ang):
   XX=            -10.2843   YY=             -8.6026   ZZ=            -14.7213
   XY=              2.7761   XZ=              0.0000   YZ=              0.0000

 Normal termination of Gaussian 16 at Sun Aug 28 00:04:41 2022.
