 Gaussian 16, Revision A.03,
 Gaussian 16:  ES64L-G16RevA.03 25-Dec-2016

 ------------------
 #p CCSD(T)/cc-pVTZ
 ------------------

 ------------
 H2O_H2O_4942
 ------------
 Symbolic Z-matrix:
 Charge =  0 Multiplicity = 1

                         Standard orientation:
 ---------------------------------------------------------------------
 Center     Atomic      Atomic             Coordinates (Angstroms)
 Number     Number       Type             X           Y           Z
 ---------------------------------------------------------------------
      1          8           0        0.037400    3.076448    0.000000
      2          1           0        0.035823    2.093848    0.000000
      3          1           0       -0.891580    3.396606   -0.000000
      4          8           0        0.037400   -2.897446    0.000000
      5          1           0        0.917970   -3.333454    0.000000
      6          1           0       -0.660619   -3.589020   -0.000000
 ---------------------------------------------------------------------

 SCF Done:  E(RHF) =  -152.108277863     A.U. after   10 cycles
 E2 =    -0.5258031624D+00 EUMP2 =    -0.15263408102582D+03
 CCSD(T)
 CCSD(T)= -0.15266128309D+03

 The electronic state is 1-A'.
 Alpha  occ. eigenvalues --  -20.56113 -20.55035  -1.33416  -1.32341  -0.70820
 Alpha  occ. eigenvalues --   -0.69744  -0.56903  -0.55810  -0.50534  -0.49463
 Alpha virt. eigenvalues --    0.13537   0.14773   0.19741   0.20898   0.53723
 Alpha virt. eigenvalues --    0.54800   0.56724   0.57764   0.67063   0.68503
 Alpha virt. eigenvalues --    0.78349   0.79397   0.79751   0.80527   0.82200

 Mulliken charges:
               1
     1  O   -0.513421
     2  H    0.259494
     3  H    0.253891
     4  O   -0.513993
     5  H    0.257447
     6  H    0.256582
 Sum of Mulliken charges =  -0.00000

 Dipole moment (field-independent basis, Debye):
    X=             -1.2842    Y=             -3.1317    Z=             -0.0000  Tot=              3.3848
 Quadrupole moment (field-independent basis, Debye-Ang):
   XX=             -9.1599   YY=             -6.0129   ZZ=            -14.7144
   XY=             -6.5651   XZ=              0.0000   YZ=             -0.0000

 Normal termination of Gaussian 16 at Sun Aug 28 07:08:56 2022.
