 Gaussian 16, Revision A.03,
 Gaussian 16:  ES64L-G16RevA.03 25-Dec-2016

 ------------------
 #p CCSD(T)/cc-pVTZ
 ------------------

 ------------
 H2O_H2O_1318
 ------------
 Symbolic Z-matrix:
 Charge =  0 Multiplicity = 1

                         Standard orientation:
 ---------------------------------------------------------------------
 Center     Atomic      Atomic             Coordinates (Angstroms)
 Number     Number       Type             X           Y           Z
 ---------------------------------------------------------------------
      1          8           0        0.033884    1.629685    0.000000
      2          1           0        0.030626    0.647089    0.000000
      3          1           0       -0.894547    1.951432    0.000000
      4          8           0        0.033884   -1.452233   -0.000000
      5          1           0        0.940438   -1.831267   -0.000000
      6          1           0       -0.618666   -2.186865   -0.000000
 ---------------------------------------------------------------------

 SCF Done:  E(RHF) =  -152.114207387     A.U. after   10 cycles
 E2 =    -0.5275248009D+00 EUMP2 =    -0.15264173218748D+03
 CCSD(T)
 CCSD(T)= -0.15266868906D+03

 The electronic state is 1-A'.
 Alpha  occ. eigenvalues --  -20.58218 -20.52544  -1.35556  -1.30055  -0.72889
 Alpha  occ. eigenvalues --   -0.67923  -0.59380  -0.53306  -0.52670  -0.47202
 Alpha virt. eigenvalues --    0.12057   0.17984   0.18815   0.30155   0.49691
 Alpha virt. eigenvalues --    0.54486   0.55877   0.60779   0.68673   0.72279
 Alpha virt. eigenvalues --    0.73601   0.77076   0.81892   0.82795   0.84778

 Mulliken charges:
               1
     1  O   -0.551771
     2  H    0.283228
     3  H    0.247284
     4  O   -0.502126
     5  H    0.265751
     6  H    0.257636
 Sum of Mulliken charges =  -0.00000

 Dipole moment (field-independent basis, Debye):
    X=             -1.1335    Y=             -3.5591    Z=             -0.0000  Tot=              3.7352
 Quadrupole moment (field-independent basis, Debye-Ang):
   XX=             -9.1847   YY=             -8.4609   ZZ=            -14.7343
   XY=             -3.8356   XZ=             -0.0000   YZ=             -0.0000

 CCSD(T)=-152.6686891\RMSD=6.573e-09\PG=CS [SG(H4O2)]\\@
 Normal termination of Gaussian 16 at Fri Aug 26 23:49:12 2022.
