 Gaussian 16, Revision A.03,
 Gaussian 16:  ES64L-G16RevA.03 25-Dec-2016

 ------------------
 #p CCSD(T)/cc-pVTZ
 ------------------

 ------------
 H2O_H2O_1224
 ------------
 Symbolic Z-matrix:
 Charge =  0 Multiplicity = 1

                         Standard orientation:
 ---------------------------------------------------------------------
 Center     Atomic      Atomic             Coordinates (Angstroms)
 Number     Number       Type             X           Y           Z
 ---------------------------------------------------------------------
      1          8           0        0.013642   -1.579899    0.000000
      2          1           0        0.009150   -0.597308    0.000000
      3          1           0       -0.914384   -1.902812    0.000000
      4          8           0        0.013642    1.420679    0.000000
      5          1           0        0.996233    1.425172    0.000000
      6          1           0       -0.309271    2.348706    0.000000
 ---------------------------------------------------------------------

 SCF Done:  E(RHF) =  -152.112831374     A.U. after   10 cycles
 E2 =    -0.5278386738D+00 EUMP2 =    -0.15264067004825D+03
 CCSD(T)
 CCSD(T)= -0.15266762707D+03

 The electronic state is 1-A'.
 Alpha  occ. eigenvalues --  -20.58283 -20.52811  -1.35718  -1.30337  -0.73326
 Alpha  occ. eigenvalues --   -0.68021  -0.59516  -0.53531  -0.52783  -0.47478
 Alpha virt. eigenvalues --    0.12096   0.17816   0.19124   0.30644   0.49822
 Alpha virt. eigenvalues --    0.54666   0.55491   0.62049   0.68569   0.73077
 Alpha virt. eigenvalues --    0.74458   0.76614   0.81713   0.82143   0.84277

 Mulliken charges:
               1
     1  O   -0.556288
     2  H    0.281060
     3  H    0.252930
     4  O   -0.482700
     5  H    0.261796
     6  H    0.243202
 Sum of Mulliken charges =  -0.00000

 Dipole moment (field-independent basis, Debye):
    X=             -0.4693    Y=              3.2378    Z=              0.0000  Tot=              3.2716
 Quadrupole moment (field-independent basis, Debye-Ang):
   XX=             -9.6435   YY=             -8.7299   ZZ=            -14.7236
   XY=              4.2395   XZ=              0.0000   YZ=              0.0000

 Normal termination of Gaussian 16 at Fri Aug 26 23:13:49 2022.
