 Gaussian 16, Revision A.03,
 Gaussian 16:  ES64L-G16RevA.03 25-Dec-2016

 ------------------
 #p CCSD(T)/cc-pVTZ
 ------------------

 ------------
 H2O_H2O_1482
 ------------
 Symbolic Z-matrix:
 Charge =  0 Multiplicity = 1

                         Standard orientation:
 ---------------------------------------------------------------------
 Center     Atomic      Atomic             Coordinates (Angstroms)
 Number     Number       Type             X           Y           Z
 ---------------------------------------------------------------------
      1          8           0        0.073561    1.693746    0.000000
      2          1           0        0.072538    0.711145    0.000000
      3          1           0       -0.855600    2.013381   -0.000000
      4          8           0        0.073561   -1.526849    0.000000
      5          1           0        0.507236   -2.408570    0.000000
      6          1           0       -0.901150   -1.651135   -0.000000
 ---------------------------------------------------------------------

 SCF Done:  E(RHF) =  -152.112243945     A.U. after   10 cycles
 E2 =    -0.5273383113D+00 EUMP2 =    -0.15263958225668D+03
 CCSD(T)
 CCSD(T)= -0.15266660153D+03

 The electronic state is 1-A'.
 Alpha  occ. eigenvalues --  -20.57953 -20.53368  -1.35268  -1.30784  -0.72720
 Alpha  occ. eigenvalues --   -0.68316  -0.58960  -0.54125  -0.52371  -0.47913
 Alpha virt. eigenvalues --    0.11819   0.16940   0.19514   0.28618   0.49533
 Alpha virt. eigenvalues --    0.55128   0.57106   0.58633   0.69624   0.73861
 Alpha virt. eigenvalues --    0.74171   0.76850   0.81251   0.82755   0.84154

 Mulliken charges:
               1
     1  O   -0.533843
     2  H    0.276947
     3  H    0.241319
     4  O   -0.494813
     5  H    0.257280
     6  H    0.253110
 Sum of Mulliken charges =  -0.00000

 Dipole moment (field-independent basis, Debye):
    X=             -2.4606    Y=             -3.2718    Z=             -0.0000  Tot=              4.0938
 Quadrupole moment (field-independent basis, Debye-Ang):
   XX=             -9.8405   YY=             -8.4497   ZZ=            -14.7269
   XY=             -3.1250   XZ=              0.0000   YZ=             -0.0000

 Normal termination of Gaussian 16 at Sat Aug 27 00:51:18 2022.
