 Gaussian 16, Revision A.03,
 Gaussian 16:  ES64L-G16RevA.03 25-Dec-2016

 ------------------
 #p CCSD(T)/cc-pVTZ
 ------------------

 -----------
 H2O_H2O_274
 -----------
 Symbolic Z-matrix:
 Charge =  0 Multiplicity = 1

                         Standard orientation:
 ---------------------------------------------------------------------
 Center     Atomic      Atomic             Coordinates (Angstroms)
 Number     Number       Type             X           Y           Z
 ---------------------------------------------------------------------
      1          8           0       -0.013765   -1.200950   -0.000000
      2          1           0       -0.007755   -0.218367   -0.000000
      3          1           0        0.913762   -1.525296   -0.000000
      4          8           0       -0.013765    1.041773    0.000000
      5          1           0       -0.996349    1.047782    0.000000
      6          1           0        0.310580    1.969300    0.000000
 ---------------------------------------------------------------------

 SCF Done:  E(RHF) =  -152.074000478     A.U. after   11 cycles
 E2 =    -0.5344142115D+00 EUMP2 =    -0.15260841468966D+03
 CCSD(T)
 CCSD(T)= -0.15263436540D+03

 The electronic state is 1-A'.
 Alpha  occ. eigenvalues --  -20.60888 -20.47362  -1.41002  -1.26454  -0.79578
 Alpha  occ. eigenvalues --   -0.70703  -0.58074  -0.56680  -0.47658  -0.43315
 Alpha virt. eigenvalues --    0.11176   0.17600   0.20186   0.34075   0.47809
 Alpha virt. eigenvalues --    0.52225   0.59369   0.68780   0.71774   0.72736
 Alpha virt. eigenvalues --    0.76140   0.77144   0.78032   0.84239   0.85280

 Mulliken charges:
               1
     1  O   -0.646180
     2  H    0.284456
     3  H    0.235307
     4  O   -0.363754
     5  H    0.261022
     6  H    0.229148
 Sum of Mulliken charges =  -0.00000

 Dipole moment (field-independent basis, Debye):
    X=              0.4336    Y=              4.2126    Z=              0.0000  Tot=              4.2349
 Quadrupole moment (field-independent basis, Debye-Ang):
   XX=             -9.5452   YY=             -9.7214   ZZ=            -14.6045
   XY=             -3.1488   XZ=             -0.0000   YZ=              0.0000

 Normal termination of Gaussian 16 at Fri Aug 26 17:05:43 2022.
