 Gaussian 16, Revision A.03,
 Gaussian 16:  ES64L-G16RevA.03 25-Dec-2016

 ------------------
 #p CCSD(T)/cc-pVTZ
 ------------------

 ------------
 H2O_H2O_1914
 ------------
 Symbolic Z-matrix:
 Charge =  0 Multiplicity = 1

                         Standard orientation:
 ---------------------------------------------------------------------
 Center     Atomic      Atomic             Coordinates (Angstroms)
 Number     Number       Type             X           Y           Z
 ---------------------------------------------------------------------
      1          8           0        0.048624    1.870577   -0.000000
      2          1           0        0.046509    0.887978   -0.000000
      3          1           0       -0.880181    2.191244   -0.000000
      4          8           0        0.048624   -1.690233    0.000000
      5          1           0        0.826886   -2.290079    0.000000
      6          1           0       -0.771199   -2.231895    0.000000
 ---------------------------------------------------------------------

 SCF Done:  E(RHF) =  -152.112601070     A.U. after   10 cycles
 E2 =    -0.5265133630D+00 EUMP2 =    -0.15263911443287D+03
 CCSD(T)
 CCSD(T)= -0.15266616870D+03

 The electronic state is 1-A'.
 Alpha  occ. eigenvalues --  -20.57451 -20.53565  -1.34702  -1.30934  -0.72078
 Alpha  occ. eigenvalues --   -0.68381  -0.58419  -0.54379  -0.51841  -0.48086
 Alpha virt. eigenvalues --    0.12184   0.17089   0.19138   0.26686   0.51276
 Alpha virt. eigenvalues --    0.54962   0.56383   0.59025   0.69062   0.72381
 Alpha virt. eigenvalues --    0.75952   0.77327   0.80855   0.83369   0.84408

 Mulliken charges:
               1
     1  O   -0.530986
     2  H    0.270454
     3  H    0.248156
     4  O   -0.507655
     5  H    0.262638
     6  H    0.257393
 Sum of Mulliken charges =  -0.00000

 Dipole moment (field-independent basis, Debye):
    X=             -1.6418    Y=             -3.4141    Z=              0.0000  Tot=              3.7884
 Quadrupole moment (field-independent basis, Debye-Ang):
   XX=             -9.1875   YY=             -7.9324   ZZ=            -14.7302
   XY=             -3.9780   XZ=              0.0000   YZ=             -0.0000

 Normal termination of Gaussian 16 at Sun Aug 28 02:45:56 2022.
