 Gaussian 16, Revision A.03,
 Gaussian 16:  ES64L-G16RevA.03 25-Dec-2016

 ------------------
 #p CCSD(T)/cc-pVTZ
 ------------------

 -----------
 H2O_H2O_119
 -----------
 Symbolic Z-matrix:
 Charge =  0 Multiplicity = 1

                         Standard orientation:
 ---------------------------------------------------------------------
 Center     Atomic      Atomic             Coordinates (Angstroms)
 Number     Number       Type             X           Y           Z
 ---------------------------------------------------------------------
      1          8           0        0.030426    1.149951   -0.000000
      2          1           0        0.025412    0.167362   -0.000000
      3          1           0       -0.897428    1.473356   -0.000000
      4          8           0        0.030426   -0.974508    0.000000
      5          1           0        0.959258   -1.295099    0.000000
      6          1           0       -0.574065   -1.749165    0.000000
 ---------------------------------------------------------------------

 SCF Done:  E(RHF) =  -152.052077433     A.U. after   11 cycles
 E2 =    -0.5353060797D+00 EUMP2 =    -0.15258738351276D+03
 CCSD(T)
 CCSD(T)= -0.15261302577D+03

 The electronic state is 1-A'.
 Alpha  occ. eigenvalues --  -20.61747 -20.44758  -1.42972  -1.24792  -0.79893
 Alpha  occ. eigenvalues --   -0.75368  -0.58111  -0.55529  -0.44943  -0.41376
 Alpha virt. eigenvalues --    0.10574   0.16870   0.20860   0.33468   0.46816
 Alpha virt. eigenvalues --    0.52124   0.61357   0.68091   0.70389   0.71013
 Alpha virt. eigenvalues --    0.77362   0.78554   0.80863   0.83652   0.86895

 Mulliken charges:
               1
     1  O   -0.672427
     2  H    0.288466
     3  H    0.215192
     4  O   -0.329300
     5  H    0.262459
     6  H    0.235609
 Sum of Mulliken charges =  -0.00000

 Dipole moment (field-independent basis, Debye):
    X=             -0.9264    Y=             -4.8872    Z=              0.0000  Tot=              4.9743
 Quadrupole moment (field-independent basis, Debye-Ang):
   XX=             -9.1434   YY=            -10.0969   ZZ=            -14.5718
   XY=             -2.7505   XZ=              0.0000   YZ=              0.0000

 Normal termination of Gaussian 16 at Fri Aug 26 15:59:09 2022.
