 Gaussian 16, Revision A.03,
 Gaussian 16:  ES64L-G16RevA.03 25-Dec-2016

 ------------------
 #p CCSD(T)/cc-pVTZ
 ------------------

 ------------
 H2O_H2O_1302
 ------------
 Symbolic Z-matrix:
 Charge =  0 Multiplicity = 1

                         Standard orientation:
 ---------------------------------------------------------------------
 Center     Atomic      Atomic             Coordinates (Angstroms)
 Number     Number       Type             X           Y           Z
 ---------------------------------------------------------------------
      1          8           0        0.088238   -1.611669    0.000000
      2          1           0        0.087978   -0.629067    0.000000
      3          1           0       -0.841171   -1.930581    0.000000
      4          8           0        0.088238    1.467364    0.000000
      5          1           0        0.216236    2.441593    0.000000
      6          1           0       -0.874846    1.272492    0.000000
 ---------------------------------------------------------------------

 SCF Done:  E(RHF) =  -152.109669178     A.U. after   10 cycles
 E2 =    -0.5281181943D+00 EUMP2 =    -0.15263778737192D+03
 CCSD(T)
 CCSD(T)= -0.15266482342D+03

 The electronic state is 1-A'.
 Alpha  occ. eigenvalues --  -20.58168 -20.53816  -1.35587  -1.31233  -0.73366
 Alpha  occ. eigenvalues --   -0.68561  -0.59088  -0.54534  -0.52619  -0.48328
 Alpha virt. eigenvalues --    0.11550   0.16492   0.20262   0.29083   0.49167
 Alpha virt. eigenvalues --    0.54264   0.57956   0.58728   0.68372   0.73071
 Alpha virt. eigenvalues --    0.74529   0.77629   0.81060   0.81666   0.83466

 Mulliken charges:
               1
     1  O   -0.529283
     2  H    0.277844
     3  H    0.237089
     4  O   -0.471828
     5  H    0.243853
     6  H    0.242325
 Sum of Mulliken charges =   0.00000

 Dipole moment (field-independent basis, Debye):
    X=             -2.9331    Y=              2.8860    Z=              0.0000  Tot=              4.1148
 Quadrupole moment (field-independent basis, Debye-Ang):
   XX=            -10.6034   YY=             -8.9203   ZZ=            -14.7108
   XY=              2.4309   XZ=              0.0000   YZ=              0.0000

 Normal termination of Gaussian 16 at Fri Aug 26 23:42:38 2022.
