 Gaussian 16, Revision A.03,
 Gaussian 16:  ES64L-G16RevA.03 25-Dec-2016

 ------------------
 #p CCSD(T)/cc-pVTZ
 ------------------

 ------------
 H2O_H2O_3667
 ------------
 Symbolic Z-matrix:
 Charge =  0 Multiplicity = 1

                         Standard orientation:
 ---------------------------------------------------------------------
 Center     Atomic      Atomic             Coordinates (Angstroms)
 Number     Number       Type             X           Y           Z
 ---------------------------------------------------------------------
      1          8           0        0.037430    2.567868   -0.000000
      2          1           0        0.035529    1.585269   -0.000000
      3          1           0       -0.891445    2.888332   -0.000000
      4          8           0        0.037430   -2.388890    0.000000
      5          1           0        0.917856   -2.825188    0.000000
      6          1           0       -0.660816   -3.080236    0.000000
 ---------------------------------------------------------------------

 SCF Done:  E(RHF) =  -152.109089426     A.U. after   10 cycles
 E2 =    -0.5258347208D+00 EUMP2 =    -0.15263492414633D+03
 CCSD(T)
 CCSD(T)= -0.15266209721D+03

 The electronic state is 1-A'.
 Alpha  occ. eigenvalues --  -20.56383 -20.54716  -1.33676  -1.32029  -0.71078
 Alpha  occ. eigenvalues --   -0.69429  -0.57193  -0.55511  -0.50800  -0.49159
 Alpha virt. eigenvalues --    0.12866   0.15425   0.19565   0.21650   0.53436
 Alpha virt. eigenvalues --    0.55061   0.56539   0.57924   0.66830   0.69270
 Alpha virt. eigenvalues --    0.78100   0.79062   0.79682   0.79724   0.82989

 Mulliken charges:
               1
     1  O   -0.516563
     2  H    0.262378
     3  H    0.253240
     4  O   -0.516020
     5  H    0.259189
     6  H    0.257776
 Sum of Mulliken charges =  -0.00000

 Dipole moment (field-independent basis, Debye):
    X=             -1.2806    Y=             -3.1753    Z=              0.0000  Tot=              3.4238
 Quadrupole moment (field-independent basis, Debye-Ang):
   XX=             -9.1590   YY=             -6.8169   ZZ=            -14.7172
   XY=             -5.5894   XZ=              0.0000   YZ=              0.0000

 Normal termination of Gaussian 16 at Fri Aug 26 22:58:57 2022.
