 Gaussian 16, Revision A.03,
 Gaussian 16:  ES64L-G16RevA.03 25-Dec-2016

 ------------------
 #p CCSD(T)/cc-pVTZ
 ------------------

 ------------
 H2O_H2O_1112
 ------------
 Symbolic Z-matrix:
 Charge =  0 Multiplicity = 1

                         Standard orientation:
 ---------------------------------------------------------------------
 Center     Atomic      Atomic             Coordinates (Angstroms)
 Number     Number       Type             X           Y           Z
 ---------------------------------------------------------------------
      1          8           0        0.056059    1.550649   -0.000000
      2          1           0        0.053912    0.568050   -0.000000
      3          1           0       -0.872736    1.871346   -0.000000
      4          8           0        0.056059   -1.371828    0.000000
      5          1           0        0.749344   -2.068148    0.000000
      6          1           0       -0.827465   -1.801817    0.000000
 ---------------------------------------------------------------------

 SCF Done:  E(RHF) =  -152.113557052     A.U. after   10 cycles
 E2 =    -0.5282728847D+00 EUMP2 =    -0.15264182993707D+03
 CCSD(T)
 CCSD(T)= -0.15266872352D+03

 The electronic state is 1-A'.
 Alpha  occ. eigenvalues --  -20.58615 -20.52019  -1.36041  -1.29628  -0.73307
 Alpha  occ. eigenvalues --   -0.68004  -0.59616  -0.53119  -0.52745  -0.46746
 Alpha virt. eigenvalues --    0.11825   0.17698   0.19137   0.31284   0.48558
 Alpha virt. eigenvalues --    0.54763   0.57077   0.59984   0.69696   0.71795
 Alpha virt. eigenvalues --    0.72982   0.77054   0.82322   0.82511   0.84825

 Mulliken charges:
               1
     1  O   -0.558098
     2  H    0.293000
     3  H    0.239490
     4  O   -0.494691
     5  H    0.263425
     6  H    0.256874
 Sum of Mulliken charges =  -0.00000

 Dipole moment (field-independent basis, Debye):
    X=             -1.8559    Y=             -3.6929    Z=              0.0000  Tot=              4.1330
 Quadrupole moment (field-independent basis, Debye-Ang):
   XX=             -9.2953   YY=             -8.6457   ZZ=            -14.7287
   XY=             -3.3659   XZ=              0.0000   YZ=              0.0000

 Normal termination of Gaussian 16 at Fri Aug 26 22:32:15 2022.
