 Gaussian 16, Revision A.03,
 Gaussian 16:  ES64L-G16RevA.03 25-Dec-2016

 ------------------
 #p CCSD(T)/cc-pVTZ
 ------------------

 -----------
 H2O_H2O_750
 -----------
 Symbolic Z-matrix:
 Charge =  0 Multiplicity = 1

                         Standard orientation:
 ---------------------------------------------------------------------
 Center     Atomic      Atomic             Coordinates (Angstroms)
 Number     Number       Type             X           Y           Z
 ---------------------------------------------------------------------
      1          8           0        0.092949   -1.386030    0.000000
      2          1           0        0.092949   -0.403428    0.000000
      3          1           0       -0.836544   -1.704696    0.000000
      4          8           0        0.092949    1.253243    0.000000
      5          1           0        0.092949    2.235844    0.000000
      6          1           0       -0.836544    0.934576    0.000000
 ---------------------------------------------------------------------

 SCF Done:  E(RHF) =  -152.099877666     A.U. after   10 cycles
 E2 =    -0.5313511704D+00 EUMP2 =    -0.15263122883669D+03
 CCSD(T)
 CCSD(T)= -0.15265803881D+03

 The electronic state is 1-A'.
 Alpha  occ. eigenvalues --  -20.59261 -20.52753  -1.37397  -1.30469  -0.76270
 Alpha  occ. eigenvalues --   -0.67820  -0.59818  -0.54020  -0.53482  -0.47483
 Alpha virt. eigenvalues --    0.11387   0.16384   0.20967   0.31619   0.48142
 Alpha virt. eigenvalues --    0.52280   0.58651   0.63047   0.68878   0.71087
 Alpha virt. eigenvalues --    0.73738   0.78517   0.78828   0.82520   0.82674

 Mulliken charges:
               1
     1  O   -0.544629
     2  H    0.286086
     3  H    0.223178
     4  O   -0.425958
     5  H    0.234641
     6  H    0.226681
 Sum of Mulliken charges =  -0.00000

 Dipole moment (field-independent basis, Debye):
    X=             -3.0292    Y=              2.9850    Z=              0.0000  Tot=              4.2529
 Quadrupole moment (field-independent basis, Debye-Ang):
   XX=            -10.8968   YY=             -9.3368   ZZ=            -14.6646
   XY=              2.0512   XZ=              0.0000   YZ=              0.0000

 Normal termination of Gaussian 16 at Fri Aug 26 20:16:41 2022.
