 Gaussian 16, Revision A.03,
 Gaussian 16:  ES64L-G16RevA.03 25-Dec-2016

 ------------------
 #p CCSD(T)/cc-pVTZ
 ------------------

 ------------
 H2O_H2O_2974
 ------------
 Symbolic Z-matrix:
 Charge =  0 Multiplicity = 1

                         Standard orientation:
 ---------------------------------------------------------------------
 Center     Atomic      Atomic             Coordinates (Angstroms)
 Number     Number       Type             X           Y           Z
 ---------------------------------------------------------------------
      1          8           0       -0.013526    2.277949    0.000000
      2          1           0       -0.010461    1.295353    0.000000
      3          1           0        0.914968    2.599514    0.000000
      4          8           0       -0.013526   -2.118690    0.000000
      5          1           0       -0.996123   -2.121756    0.000000
      6          1           0        0.308038   -3.047184    0.000000
 ---------------------------------------------------------------------

 SCF Done:  E(RHF) =  -152.109753794     A.U. after   10 cycles
 E2 =    -0.5259288677D+00 EUMP2 =    -0.15263568266155D+03
 CCSD(T)
 CCSD(T)= -0.15266283032D+03

 The electronic state is 1-A'.
 Alpha  occ. eigenvalues --  -20.56633 -20.54671  -1.33922  -1.31989  -0.71332
 Alpha  occ. eigenvalues --   -0.69398  -0.57459  -0.55479  -0.51048  -0.49126
 Alpha virt. eigenvalues --    0.12224   0.15911   0.19220   0.23250   0.53844
 Alpha virt. eigenvalues --    0.55572   0.56370   0.58248   0.68126   0.69372
 Alpha virt. eigenvalues --    0.77830   0.78741   0.79716   0.80723   0.83150

 Mulliken charges:
               1
     1  O   -0.520084
     2  H    0.262594
     3  H    0.254974
     4  O   -0.514789
     5  H    0.258294
     6  H    0.259012
 Sum of Mulliken charges =   0.00000

 Dipole moment (field-independent basis, Debye):
    X=              0.4663    Y=             -2.8647    Z=              0.0000  Tot=              2.9024
 Quadrupole moment (field-independent basis, Debye-Ang):
   XX=             -9.6482   YY=             -7.9946   ZZ=            -14.7191
   XY=              6.1567   XZ=              0.0000   YZ=              0.0000

 Normal termination of Gaussian 16 at Fri Aug 26 18:54:21 2022.
