 Gaussian 16, Revision A.03,
 Gaussian 16:  ES64L-G16RevA.03 25-Dec-2016

 ------------------
 #p CCSD(T)/cc-pVTZ
 ------------------

 ------------
 H2O_H2O_3256
 ------------
 Symbolic Z-matrix:
 Charge =  0 Multiplicity = 1

                         Standard orientation:
 ---------------------------------------------------------------------
 Center     Atomic      Atomic             Coordinates (Angstroms)
 Number     Number       Type             X           Y           Z
 ---------------------------------------------------------------------
      1          8           0        0.076757    2.399749   -0.000000
      2          1           0        0.076164    1.417147   -0.000000
      3          1           0       -0.852544    2.718976   -0.000000
      4          8           0        0.076757   -2.236538    0.000000
      5          1           0        0.452235   -3.144570    0.000000
      6          1           0       -0.903968   -2.297238    0.000000
 ---------------------------------------------------------------------

 SCF Done:  E(RHF) =  -152.108811899     A.U. after   10 cycles
 E2 =    -0.5259493646D+00 EUMP2 =    -0.15263476126364D+03
 CCSD(T)
 CCSD(T)= -0.15266193155D+03

 The electronic state is 1-A'.
 Alpha  occ. eigenvalues --  -20.56542 -20.54797  -1.33832  -1.32107  -0.71246
 Alpha  occ. eigenvalues --   -0.69495  -0.57331  -0.55576  -0.50950  -0.49230
 Alpha virt. eigenvalues --    0.12261   0.15580   0.19393   0.22266   0.53566
 Alpha virt. eigenvalues --    0.55090   0.56385   0.58250   0.67389   0.69254
 Alpha virt. eigenvalues --    0.77955   0.78668   0.79619   0.80485   0.82869

 Mulliken charges:
               1
     1  O   -0.513968
     2  H    0.261942
     3  H    0.250408
     4  O   -0.512329
     5  H    0.259962
     6  H    0.253984
 Sum of Mulliken charges =  -0.00000

 Dipole moment (field-independent basis, Debye):
    X=             -2.6193    Y=             -2.9172    Z=              0.0000  Tot=              3.9205
 Quadrupole moment (field-independent basis, Debye-Ang):
   XX=             -9.9544   YY=             -7.7396   ZZ=            -14.7160
   XY=             -3.4240   XZ=              0.0000   YZ=             -0.0000

 Normal termination of Gaussian 16 at Fri Aug 26 20:40:14 2022.
