 Gaussian 16, Revision A.03,
 Gaussian 16:  ES64L-G16RevA.03 25-Dec-2016

 ------------------
 #p CCSD(T)/cc-pVTZ
 ------------------

 ------------
 H2O_H2O_2762
 ------------
 Symbolic Z-matrix:
 Charge =  0 Multiplicity = 1

                         Standard orientation:
 ---------------------------------------------------------------------
 Center     Atomic      Atomic             Coordinates (Angstroms)
 Number     Number       Type             X           Y           Z
 ---------------------------------------------------------------------
      1          8           0        0.055998    2.208834   -0.000000
      2          1           0        0.054518    1.226233   -0.000000
      3          1           0       -0.873013    2.528900   -0.000000
      4          8           0        0.055998   -2.029936    0.000000
      5          1           0        0.749755   -2.725786    0.000000
      6          1           0       -0.827234   -2.460526    0.000000
 ---------------------------------------------------------------------

 SCF Done:  E(RHF) =  -152.110180461     A.U. after   10 cycles
 E2 =    -0.5260172026D+00 EUMP2 =    -0.15263619766408D+03
 CCSD(T)
 CCSD(T)= -0.15266332624D+03

 The electronic state is 1-A'.
 Alpha  occ. eigenvalues --  -20.56783 -20.54330  -1.34054  -1.31654  -0.71455
 Alpha  occ. eigenvalues --   -0.69043  -0.57611  -0.55138  -0.51185  -0.48790
 Alpha virt. eigenvalues --    0.12372   0.16138   0.19407   0.23261   0.53044
 Alpha virt. eigenvalues --    0.55578   0.56224   0.58853   0.68959   0.69527
 Alpha virt. eigenvalues --    0.77664   0.79029   0.79768   0.80042   0.83379

 Mulliken charges:
               1
     1  O   -0.519952
     2  H    0.265353
     3  H    0.250389
     4  O   -0.512288
     5  H    0.260283
     6  H    0.256215
 Sum of Mulliken charges =  -0.00000

 Dipole moment (field-independent basis, Debye):
    X=             -1.9060    Y=             -3.2471    Z=              0.0000  Tot=              3.7652
 Quadrupole moment (field-independent basis, Debye-Ang):
   XX=             -9.2884   YY=             -7.3880   ZZ=            -14.7207
   XY=             -4.2333   XZ=              0.0000   YZ=             -0.0000

 Normal termination of Gaussian 16 at Fri Aug 26 17:08:28 2022.
