 Gaussian 16, Revision A.03,
 Gaussian 16:  ES64L-G16RevA.03 25-Dec-2016

 ------------------
 #p CCSD(T)/cc-pVTZ
 ------------------

 ------------
 H2O_H2O_1879
 ------------
 Symbolic Z-matrix:
 Charge =  0 Multiplicity = 1

                         Standard orientation:
 ---------------------------------------------------------------------
 Center     Atomic      Atomic             Coordinates (Angstroms)
 Number     Number       Type             X           Y           Z
 ---------------------------------------------------------------------
      1          8           0        0.082812   -1.846561    0.000000
      2          1           0        0.082325   -0.863960    0.000000
      3          1           0       -0.846523   -2.165688    0.000000
      4          8           0        0.082812    1.692061    0.000000
      5          1           0        0.336658    2.641308    0.000000
      6          1           0       -0.897452    1.624339    0.000000
 ---------------------------------------------------------------------

 SCF Done:  E(RHF) =  -152.110501457     A.U. after   10 cycles
 E2 =    -0.5267548874D+00 EUMP2 =    -0.15263725634442D+03
 CCSD(T)
 CCSD(T)= -0.15266434616D+03

 The electronic state is 1-A'.
 Alpha  occ. eigenvalues --  -20.57448 -20.54226  -1.34735  -1.31565  -0.72216
 Alpha  occ. eigenvalues --   -0.68929  -0.58315  -0.54987  -0.51842  -0.48690
 Alpha virt. eigenvalues --    0.11735   0.16447   0.19773   0.26221   0.51258
 Alpha virt. eigenvalues --    0.55559   0.56748   0.57890   0.68825   0.73749
 Alpha virt. eigenvalues --    0.75724   0.78344   0.80396   0.83080   0.83370

 Mulliken charges:
               1
     1  O   -0.521331
     2  H    0.268407
     3  H    0.243974
     4  O   -0.500032
     5  H    0.258428
     6  H    0.250553
 Sum of Mulliken charges =  -0.00000

 Dipole moment (field-independent basis, Debye):
    X=             -2.7895    Y=              2.9189    Z=              0.0000  Tot=              4.0374
 Quadrupole moment (field-independent basis, Debye-Ang):
   XX=            -10.2778   YY=             -8.5176   ZZ=            -14.7210
   XY=              2.8168   XZ=              0.0000   YZ=              0.0000

 Normal termination of Gaussian 16 at Sun Aug 28 02:23:19 2022.
