 Gaussian 16, Revision A.03,
 Gaussian 16:  ES64L-G16RevA.03 25-Dec-2016

 ------------------
 #p CCSD(T)/cc-pVTZ
 ------------------

 -----------
 H2O_H2O_635
 -----------
 Symbolic Z-matrix:
 Charge =  0 Multiplicity = 1

                         Standard orientation:
 ---------------------------------------------------------------------
 Center     Atomic      Atomic             Coordinates (Angstroms)
 Number     Number       Type             X           Y           Z
 ---------------------------------------------------------------------
      1          8           0        0.063314    1.359322    0.000000
      2          1           0        0.061331    0.376722    0.000000
      3          1           0       -0.865534    1.679863    0.000000
      4          8           0        0.063314   -1.183926    0.000000
      5          1           0        0.659910   -1.964682    0.000000
      6          1           0       -0.868724   -1.495070    0.000000
 ---------------------------------------------------------------------

 SCF Done:  E(RHF) =  -152.105291122     A.U. after   11 cycles
 E2 =    -0.5309485399D+00 EUMP2 =    -0.15263623966193D+03
 CCSD(T)
 CCSD(T)= -0.15266279126D+03

 The electronic state is 1-A'.
 Alpha  occ. eigenvalues --  -20.59786 -20.50019  -1.37886  -1.28161  -0.75015
 Alpha  occ. eigenvalues --   -0.69706  -0.59128  -0.54669  -0.50652  -0.45159
 Alpha virt. eigenvalues --    0.11363   0.17278   0.19852   0.33111   0.47966
 Alpha virt. eigenvalues --    0.53838   0.60409   0.61497   0.70887   0.72289
 Alpha virt. eigenvalues --    0.73236   0.77993   0.80839   0.83346   0.84232

 Mulliken charges:
               1
     1  O   -0.592035
     2  H    0.309175
     3  H    0.226341
     4  O   -0.444208
     5  H    0.252369
     6  H    0.248357
 Sum of Mulliken charges =  -0.00000

 Dipole moment (field-independent basis, Debye):
    X=             -2.0403    Y=             -4.0243    Z=             -0.0000  Tot=              4.5120
 Quadrupole moment (field-independent basis, Debye-Ang):
   XX=             -9.4624   YY=             -9.2057   ZZ=            -14.6872
   XY=             -3.0065   XZ=             -0.0000   YZ=             -0.0000

 Normal termination of Gaussian 16 at Fri Aug 26 19:32:26 2022.
