 Gaussian 16, Revision A.03,
 Gaussian 16:  ES64L-G16RevA.03 25-Dec-2016

 ------------------
 #p CCSD(T)/cc-pVTZ
 ------------------

 ----------
 H2O_H2O_73
 ----------
 Symbolic Z-matrix:
 Charge =  0 Multiplicity = 1

                         Standard orientation:
 ---------------------------------------------------------------------
 Center     Atomic      Atomic             Coordinates (Angstroms)
 Number     Number       Type             X           Y           Z
 ---------------------------------------------------------------------
      1          8           0        0.016905   -1.123402    0.000000
      2          1           0        0.010689   -0.140820    0.000000
      3          1           0       -0.910553   -1.447943    0.000000
      4          8           0        0.016905    0.960126    0.000000
      5          1           0        0.996976    1.030593    0.000000
      6          1           0       -0.367600    1.864374    0.000000
 ---------------------------------------------------------------------

 SCF Done:  E(RHF) =  -152.036319387     A.U. after   11 cycles
 E2 =    -0.5364905750D+00 EUMP2 =    -0.15257280996189D+03
 CCSD(T)
 CCSD(T)= -0.15259830546D+03

 The electronic state is 1-A'.
 Alpha  occ. eigenvalues --  -20.61773 -20.44737  -1.43960  -1.24839  -0.82340
 Alpha  occ. eigenvalues --   -0.73505  -0.58437  -0.55885  -0.44778  -0.41468
 Alpha virt. eigenvalues --    0.10674   0.16986   0.20847   0.33492   0.47633
 Alpha virt. eigenvalues --    0.51537   0.60168   0.69277   0.70702   0.71875
 Alpha virt. eigenvalues --    0.76281   0.76733   0.80640   0.85470   0.87348

 Mulliken charges:
               1
     1  O   -0.680693
     2  H    0.270279
     3  H    0.223206
     4  O   -0.308579
     5  H    0.266838
     6  H    0.228949
 Sum of Mulliken charges =  -0.00000

 Dipole moment (field-independent basis, Debye):
    X=             -0.5041    Y=              4.6959    Z=              0.0000  Tot=              4.7229
 Quadrupole moment (field-independent basis, Debye-Ang):
   XX=             -9.4000   YY=            -10.0964   ZZ=            -14.5412
   XY=              2.8432   XZ=              0.0000   YZ=              0.0000

 Normal termination of Gaussian 16 at Fri Aug 26 15:40:43 2022.
