 Gaussian 16, Revision A.03,
 Gaussian 16:  ES64L-G16RevA.03 25-Dec-2016

 ------------------
 #p CCSD(T)/cc-pVTZ
 ------------------

 ------------
 H2O_H2O_3051
 ------------
 Symbolic Z-matrix:
 Charge =  0 Multiplicity = 1

                         Standard orientation:
 ---------------------------------------------------------------------
 Center     Atomic      Atomic             Coordinates (Angstroms)
 Number     Number       Type             X           Y           Z
 ---------------------------------------------------------------------
      1          8           0        0.090685   -2.306664    0.000000
      2          1           0        0.090599   -1.324062    0.000000
      3          1           0       -0.838780   -2.625411    0.000000
      4          8           0        0.090685    2.167955    0.000000
      5          1           0        0.154864    3.148459    0.000000
      6          1           0       -0.857638    1.910680    0.000000
 ---------------------------------------------------------------------

 SCF Done:  E(RHF) =  -152.108213306     A.U. after   10 cycles
 E2 =    -0.5260545619D+00 EUMP2 =    -0.15263426786787D+03
 CCSD(T)
 CCSD(T)= -0.15266144954D+03

 The electronic state is 1-A'.
 Alpha  occ. eigenvalues --  -20.56629 -20.55081  -1.33923  -1.32384  -0.71354
 Alpha  occ. eigenvalues --   -0.69765  -0.57395  -0.55837  -0.51032  -0.49499
 Alpha virt. eigenvalues --    0.11640   0.15562   0.19355   0.23094   0.54311
 Alpha virt. eigenvalues --    0.54594   0.56455   0.58123   0.67873   0.68965
 Alpha virt. eigenvalues --    0.77859   0.78482   0.79376   0.81069   0.82637

 Mulliken charges:
               1
     1  O   -0.511147
     2  H    0.260346
     3  H    0.249419
     4  O   -0.508810
     5  H    0.259736
     6  H    0.250456
 Sum of Mulliken charges =  -0.00000

 Dipole moment (field-independent basis, Debye):
    X=             -3.0891    Y=              2.4863    Z=              0.0000  Tot=              3.9654
 Quadrupole moment (field-independent basis, Debye-Ang):
   XX=            -10.7122   YY=             -8.9255   ZZ=            -14.7134
   XY=              2.3664   XZ=              0.0000   YZ=              0.0000

 CCSD(T)=-152.6614495\RMSD=7.213e-09\PG=CS [SG(H4O2)]\\@
 Normal termination of Gaussian 16 at Fri Aug 26 19:30:05 2022.
