 Gaussian 16, Revision A.03,
 Gaussian 16:  ES64L-G16RevA.03 25-Dec-2016

 ------------------
 #p CCSD(T)/cc-pVTZ
 ------------------

 ------------
 H2O_H2O_2042
 ------------
 Symbolic Z-matrix:
 Charge =  0 Multiplicity = 1

                         Standard orientation:
 ---------------------------------------------------------------------
 Center     Atomic      Atomic             Coordinates (Angstroms)
 Number     Number       Type             X           Y           Z
 ---------------------------------------------------------------------
      1          8           0        0.037491    1.919669   -0.000000
      2          1           0        0.034917    0.937070   -0.000000
      3          1           0       -0.891164    2.240769   -0.000000
      4          8           0        0.037491   -1.740742    0.000000
      5          1           0        0.917618   -2.177643    0.000000
      6          1           0       -0.661229   -2.431608    0.000000
 ---------------------------------------------------------------------

 SCF Done:  E(RHF) =  -152.112312761     A.U. after   10 cycles
 E2 =    -0.5263640302D+00 EUMP2 =    -0.15263867679133D+03
 CCSD(T)
 CCSD(T)= -0.15266574273D+03

 The electronic state is 1-A'.
 Alpha  occ. eigenvalues --  -20.57312 -20.53717  -1.34565  -1.31076  -0.71949
 Alpha  occ. eigenvalues --   -0.68507  -0.58257  -0.54540  -0.51706  -0.48230
 Alpha virt. eigenvalues --    0.12254   0.16989   0.19158   0.26090   0.51929
 Alpha virt. eigenvalues --    0.54954   0.56426   0.58928   0.69085   0.72336
 Alpha virt. eigenvalues --    0.76363   0.77734   0.80685   0.83468   0.84256

 Mulliken charges:
               1
     1  O   -0.530108
     2  H    0.269012
     3  H    0.250318
     4  O   -0.508993
     5  H    0.261882
     6  H    0.257890
 Sum of Mulliken charges =   0.00000

 Dipole moment (field-independent basis, Debye):
    X=             -1.2693    Y=             -3.3591    Z=              0.0000  Tot=              3.5909
 Quadrupole moment (field-independent basis, Debye-Ang):
   XX=             -9.1607   YY=             -7.8658   ZZ=            -14.7288
   XY=             -4.3415   XZ=              0.0000   YZ=             -0.0000

 Normal termination of Gaussian 16 at Sun Aug 28 03:48:32 2022.
