 Gaussian 16, Revision A.03,
 Gaussian 16:  ES64L-G16RevA.03 25-Dec-2016

 ------------------
 #p CCSD(T)/cc-pVTZ
 ------------------

 ------------
 H2O_H2O_1511
 ------------
 Symbolic Z-matrix:
 Charge =  0 Multiplicity = 1

                         Standard orientation:
 ---------------------------------------------------------------------
 Center     Atomic      Atomic             Coordinates (Angstroms)
 Number     Number       Type             X           Y           Z
 ---------------------------------------------------------------------
      1          8           0        0.059686    1.709418   -0.000000
      2          1           0        0.057941    0.726818   -0.000000
      3          1           0       -0.869240    2.029734   -0.000000
      4          8           0        0.059686   -1.532033    0.000000
      5          1           0        0.706248   -2.271940    0.000000
      6          1           0       -0.849917   -1.903690    0.000000
 ---------------------------------------------------------------------

 SCF Done:  E(RHF) =  -152.113345286     A.U. after   10 cycles
 E2 =    -0.5271735922D+00 EUMP2 =    -0.15264051887796D+03
 CCSD(T)
 CCSD(T)= -0.15266752475D+03

 The electronic state is 1-A'.
 Alpha  occ. eigenvalues --  -20.57939 -20.53066  -1.35227  -1.30498  -0.72591
 Alpha  occ. eigenvalues --   -0.68108  -0.59000  -0.53845  -0.52351  -0.47641
 Alpha virt. eigenvalues --    0.11978   0.17326   0.19163   0.28806   0.49676
 Alpha virt. eigenvalues --    0.54978   0.56435   0.59152   0.69440   0.72430
 Alpha virt. eigenvalues --    0.74358   0.76723   0.81428   0.82990   0.84621

 Mulliken charges:
               1
     1  O   -0.538216
     2  H    0.277522
     3  H    0.243711
     4  O   -0.503353
     5  H    0.263493
     6  H    0.256843
 Sum of Mulliken charges =  -0.00000

 Dipole moment (field-independent basis, Debye):
    X=             -1.9994    Y=             -3.4724    Z=              0.0000  Tot=              4.0069
 Quadrupole moment (field-independent basis, Debye-Ang):
   XX=             -9.3770   YY=             -8.2900   ZZ=            -14.7328
   XY=             -3.5083   XZ=              0.0000   YZ=              0.0000

 Normal termination of Gaussian 16 at Sat Aug 27 01:02:36 2022.
