 Gaussian 16, Revision A.03,
 Gaussian 16:  ES64L-G16RevA.03 25-Dec-2016

 ------------------
 #p CCSD(T)/cc-pVTZ
 ------------------

 ------------
 H2O_H2O_1367
 ------------
 Symbolic Z-matrix:
 Charge =  0 Multiplicity = 1

                         Standard orientation:
 ---------------------------------------------------------------------
 Center     Atomic      Atomic             Coordinates (Angstroms)
 Number     Number       Type             X           Y           Z
 ---------------------------------------------------------------------
      1          8           0        0.037531    1.650410    0.000000
      2          1           0        0.034513    0.667814    0.000000
      3          1           0       -0.890978    1.971930   -0.000000
      4          8           0        0.037531   -1.471518    0.000000
      5          1           0        0.917461   -1.908817    0.000000
      6          1           0       -0.661500   -2.162069   -0.000000
 ---------------------------------------------------------------------

 SCF Done:  E(RHF) =  -152.114210979     A.U. after   10 cycles
 E2 =    -0.5274080481D+00 EUMP2 =    -0.15264161902735D+03
 CCSD(T)
 CCSD(T)= -0.15266858736D+03

 The electronic state is 1-A'.
 Alpha  occ. eigenvalues --  -20.58147 -20.52633  -1.35465  -1.30125  -0.72791
 Alpha  occ. eigenvalues --   -0.67934  -0.59295  -0.53405  -0.52587  -0.47274
 Alpha virt. eigenvalues --    0.12060   0.17891   0.18851   0.29862   0.49765
 Alpha virt. eigenvalues --    0.54487   0.55925   0.60394   0.68759   0.72060
 Alpha virt. eigenvalues --    0.73790   0.77017   0.81803   0.82883   0.84849

 Mulliken charges:
               1
     1  O   -0.549025
     2  H    0.281923
     3  H    0.246803
     4  O   -0.504249
     5  H    0.265841
     6  H    0.258707
 Sum of Mulliken charges =  -0.00000

 Dipole moment (field-independent basis, Debye):
    X=             -1.2558    Y=             -3.5649    Z=              0.0000  Tot=              3.7796
 Quadrupole moment (field-independent basis, Debye-Ang):
   XX=             -9.1593   YY=             -8.4032   ZZ=            -14.7351
   XY=             -3.8128   XZ=              0.0000   YZ=             -0.0000

 Normal termination of Gaussian 16 at Sat Aug 27 00:09:10 2022.
