 Gaussian 16, Revision A.03,
 Gaussian 16:  ES64L-G16RevA.03 25-Dec-2016

 ------------------
 #p CCSD(T)/cc-pVTZ
 ------------------

 -----------
 H2O_H2O_655
 -----------
 Symbolic Z-matrix:
 Charge =  0 Multiplicity = 1

                         Standard orientation:
 ---------------------------------------------------------------------
 Center     Atomic      Atomic             Coordinates (Angstroms)
 Number     Number       Type             X           Y           Z
 ---------------------------------------------------------------------
      1          8           0        0.079882   -1.360383    0.000000
      2          1           0        0.079015   -0.377782    0.000000
      3          1           0       -0.849329   -1.679870    0.000000
      4          8           0        0.079882    1.201383    0.000000
      5          1           0        0.394908    2.132117    0.000000
      6          1           0       -0.902712    1.197536    0.000000
 ---------------------------------------------------------------------

 SCF Done:  E(RHF) =  -152.102784835     A.U. after   11 cycles
 E2 =    -0.5313278143D+00 EUMP2 =    -0.15263411264934D+03
 CCSD(T)
 CCSD(T)= -0.15266074121D+03

 The electronic state is 1-A'.
 Alpha  occ. eigenvalues --  -20.59638 -20.51044  -1.37798  -1.29017  -0.75771
 Alpha  occ. eigenvalues --   -0.68712  -0.59468  -0.54495  -0.51719  -0.46023
 Alpha virt. eigenvalues --    0.11314   0.16738   0.20303   0.32593   0.48300
 Alpha virt. eigenvalues --    0.53298   0.59033   0.62754   0.70345   0.71985
 Alpha virt. eigenvalues --    0.74131   0.78034   0.79529   0.83530   0.83720

 Mulliken charges:
               1
     1  O   -0.572545
     2  H    0.296891
     3  H    0.223057
     4  O   -0.421158
     5  H    0.235956
     6  H    0.237799
 Sum of Mulliken charges =  -0.00000

 Dipole moment (field-independent basis, Debye):
    X=             -2.5808    Y=              3.6358    Z=              0.0000  Tot=              4.4586
 Quadrupole moment (field-independent basis, Debye-Ang):
   XX=            -10.1306   YY=             -9.1723   ZZ=            -14.6736
   XY=              2.6712   XZ=              0.0000   YZ=              0.0000

 Normal termination of Gaussian 16 at Fri Aug 26 19:39:36 2022.
