 Gaussian 16, Revision A.03,
 Gaussian 16:  ES64L-G16RevA.03 25-Dec-2016

 ------------------
 #p CCSD(T)/cc-pVTZ
 ------------------

 ------------
 H2O_H2O_4462
 ------------
 Symbolic Z-matrix:
 Charge =  0 Multiplicity = 1

                         Standard orientation:
 ---------------------------------------------------------------------
 Center     Atomic      Atomic             Coordinates (Angstroms)
 Number     Number       Type             X           Y           Z
 ---------------------------------------------------------------------
      1          8           0        0.055966    2.886945    0.000000
      2          1           0        0.054844    1.904344    0.000000
      3          1           0       -0.873163    3.206672    0.000000
      4          8           0        0.055966   -2.708007   -0.000000
      5          1           0        0.749977   -3.403604   -0.000000
      6          1           0       -0.827109   -3.138919   -0.000000
 ---------------------------------------------------------------------

 SCF Done:  E(RHF) =  -152.108374555     A.U. after   10 cycles
 E2 =    -0.5258156345D+00 EUMP2 =    -0.15263419018938D+03
 CCSD(T)
 CCSD(T)= -0.15266138782D+03

 The electronic state is 1-A'.
 Alpha  occ. eigenvalues --  -20.56195 -20.54949  -1.33496  -1.32256  -0.70901
 Alpha  occ. eigenvalues --   -0.69656  -0.56987  -0.55726  -0.50614  -0.49379
 Alpha virt. eigenvalues --    0.13327   0.14936   0.19676   0.21056   0.53629
 Alpha virt. eigenvalues --    0.54855   0.56649   0.57794   0.66820   0.68777
 Alpha virt. eigenvalues --    0.78273   0.79478   0.79606   0.80162   0.82685

 Mulliken charges:
               1
     1  O   -0.513544
     2  H    0.260461
     3  H    0.252941
     4  O   -0.514357
     5  H    0.258489
     6  H    0.256011
 Sum of Mulliken charges =  -0.00000

 Dipole moment (field-independent basis, Debye):
    X=             -1.9190    Y=             -3.1424    Z=             -0.0000  Tot=              3.6820
 Quadrupole moment (field-independent basis, Debye-Ang):
   XX=             -9.2851   YY=             -6.3269   ZZ=            -14.7147
   XY=             -5.1035   XZ=             -0.0000   YZ=              0.0000

 Normal termination of Gaussian 16 at Sun Aug 28 03:08:54 2022.
