 Gaussian 16, Revision A.03,
 Gaussian 16:  ES64L-G16RevA.03 25-Dec-2016

 ------------------
 #p CCSD(T)/cc-pVTZ
 ------------------

 ------------
 H2O_H2O_3364
 ------------
 Symbolic Z-matrix:
 Charge =  0 Multiplicity = 1

                         Standard orientation:
 ---------------------------------------------------------------------
 Center     Atomic      Atomic             Coordinates (Angstroms)
 Number     Number       Type             X           Y           Z
 ---------------------------------------------------------------------
      1          8           0        0.048577    2.448974    0.000000
      2          1           0        0.046980    1.466374    0.000000
      3          1           0       -0.880397    2.769150    0.000000
      4          8           0        0.048577   -2.268579   -0.000000
      5          1           0        0.827153   -2.868014   -0.000000
      6          1           0       -0.770961   -2.810672   -0.000000
 ---------------------------------------------------------------------

 SCF Done:  E(RHF) =  -152.109354239     A.U. after   10 cycles
 E2 =    -0.5258771899D+00 EUMP2 =    -0.15263523142939D+03
 CCSD(T)
 CCSD(T)= -0.15266239244D+03

 The electronic state is 1-A'.
 Alpha  occ. eigenvalues --  -20.56493 -20.54596  -1.33780  -1.31912  -0.71182
 Alpha  occ. eigenvalues --   -0.69308  -0.57306  -0.55395  -0.50906  -0.49043
 Alpha virt. eigenvalues --    0.12688   0.15639   0.19536   0.21994   0.53361
 Alpha virt. eigenvalues --    0.55172   0.56447   0.58152   0.67276   0.69354
 Alpha virt. eigenvalues --    0.78000   0.79070   0.79393   0.79791   0.83097

 Mulliken charges:
               1
     1  O   -0.517161
     2  H    0.263312
     3  H    0.252171
     4  O   -0.515244
     5  H    0.259857
     6  H    0.257065
 Sum of Mulliken charges =  -0.00000

 Dipole moment (field-independent basis, Debye):
    X=             -1.6592    Y=             -3.2201    Z=             -0.0000  Tot=              3.6224
 Quadrupole moment (field-independent basis, Debye-Ang):
   XX=             -9.1825   YY=             -6.9496   ZZ=            -14.7182
   XY=             -4.8711   XZ=             -0.0000   YZ=              0.0000

 Normal termination of Gaussian 16 at Fri Aug 26 21:17:36 2022.
