 Gaussian 16, Revision A.03,
 Gaussian 16:  ES64L-G16RevA.03 25-Dec-2016

 ------------------
 #p CCSD(T)/cc-pVTZ
 ------------------

 ------------
 H2O_H2O_1155
 ------------
 Symbolic Z-matrix:
 Charge =  0 Multiplicity = 1

                         Standard orientation:
 ---------------------------------------------------------------------
 Center     Atomic      Atomic             Coordinates (Angstroms)
 Number     Number       Type             X           Y           Z
 ---------------------------------------------------------------------
      1          8           0        0.079873   -1.559831    0.000000
      2          1           0        0.079122   -0.577230    0.000000
      3          1           0       -0.849376   -1.879208    0.000000
      4          8           0        0.079873    1.400812    0.000000
      5          1           0        0.395009    2.331509    0.000000
      6          1           0       -0.902722    1.397082    0.000000
 ---------------------------------------------------------------------

 SCF Done:  E(RHF) =  -152.111007871     A.U. after   10 cycles
 E2 =    -0.5284296093D+00 EUMP2 =    -0.15263943747999D+03
 CCSD(T)
 CCSD(T)= -0.15266639309D+03

 The electronic state is 1-A'.
 Alpha  occ. eigenvalues --  -20.58462 -20.52967  -1.35921  -1.30478  -0.73547
 Alpha  occ. eigenvalues --   -0.68210  -0.59425  -0.53683  -0.52954  -0.47577
 Alpha virt. eigenvalues --    0.11627   0.16817   0.19869   0.30345   0.48656
 Alpha virt. eigenvalues --    0.54541   0.58462   0.58925   0.69334   0.72854
 Alpha virt. eigenvalues --    0.74613   0.76922   0.81599   0.81948   0.83889

 Mulliken charges:
               1
     1  O   -0.542247
     2  H    0.285067
     3  H    0.235797
     4  O   -0.468853
     5  H    0.243557
     6  H    0.246679
 Sum of Mulliken charges =  -0.00000

 Dipole moment (field-independent basis, Debye):
    X=             -2.6444    Y=              3.2540    Z=              0.0000  Tot=              4.1930
 Quadrupole moment (field-independent basis, Debye-Ang):
   XX=            -10.1390   YY=             -8.7612   ZZ=            -14.7149
   XY=              2.8116   XZ=              0.0000   YZ=              0.0000

 Normal termination of Gaussian 16 at Fri Aug 26 22:47:34 2022.
