 Gaussian 16, Revision A.03,
 Gaussian 16:  ES64L-G16RevA.03 25-Dec-2016

 ------------------
 #p CCSD(T)/cc-pVTZ
 ------------------

 ------------
 H2O_H2O_1362
 ------------
 Symbolic Z-matrix:
 Charge =  0 Multiplicity = 1

                         Standard orientation:
 ---------------------------------------------------------------------
 Center     Atomic      Atomic             Coordinates (Angstroms)
 Number     Number       Type             X           Y           Z
 ---------------------------------------------------------------------
      1          8           0        0.056047    1.650376    0.000000
      2          1           0        0.054037    0.667777    0.000000
      3          1           0       -0.872793    1.970943    0.000000
      4          8           0        0.056047   -1.471539   -0.000000
      5          1           0        0.749429   -2.167763   -0.000000
      6          1           0       -0.827418   -1.901653   -0.000000
 ---------------------------------------------------------------------

 SCF Done:  E(RHF) =  -152.113790958     A.U. after   10 cycles
 E2 =    -0.5274982069D+00 EUMP2 =    -0.15264128916510D+03
 CCSD(T)
 CCSD(T)= -0.15266826176D+03

 The electronic state is 1-A'.
 Alpha  occ. eigenvalues --  -20.58168 -20.52701  -1.35485  -1.30184  -0.72815
 Alpha  occ. eigenvalues --   -0.67979  -0.59264  -0.53466  -0.52602  -0.47323
 Alpha virt. eigenvalues --    0.11949   0.17545   0.19087   0.29778   0.49255
 Alpha virt. eigenvalues --    0.54876   0.56427   0.59501   0.69463   0.71983
 Alpha virt. eigenvalues --    0.73780   0.76739   0.81764   0.82849   0.84828

 Mulliken charges:
               1
     1  O   -0.545018
     2  H    0.282521
     3  H    0.242838
     4  O   -0.502336
     5  H    0.264330
     6  H    0.257665
 Sum of Mulliken charges =  -0.00000

 Dipole moment (field-independent basis, Debye):
    X=             -1.8708    Y=             -3.5620    Z=             -0.0000  Tot=              4.0234
 Quadrupole moment (field-independent basis, Debye-Ang):
   XX=             -9.2971   YY=             -8.4035   ZZ=            -14.7336
   XY=             -3.5042   XZ=             -0.0000   YZ=             -0.0000

 Normal termination of Gaussian 16 at Sat Aug 27 00:07:16 2022.
