 Gaussian 16, Revision A.03,
 Gaussian 16:  ES64L-G16RevA.03 25-Dec-2016

 ------------------
 #p CCSD(T)/cc-pVTZ
 ------------------

 ------------
 H2O_H2O_1668
 ------------
 Symbolic Z-matrix:
 Charge =  0 Multiplicity = 1

                         Standard orientation:
 ---------------------------------------------------------------------
 Center     Atomic      Atomic             Coordinates (Angstroms)
 Number     Number       Type             X           Y           Z
 ---------------------------------------------------------------------
      1          8           0        0.033860    1.769301    0.000000
      2          1           0        0.030872    0.786704    0.000000
      3          1           0       -0.894660    2.090792   -0.000000
      4          8           0        0.033860   -1.591830    0.000000
      5          1           0        0.940518   -1.970614    0.000000
      6          1           0       -0.618490   -2.326641   -0.000000
 ---------------------------------------------------------------------

 SCF Done:  E(RHF) =  -152.113489993     A.U. after   10 cycles
 E2 =    -0.5267987921D+00 EUMP2 =    -0.15264028878502D+03
 CCSD(T)
 CCSD(T)= -0.15266731201D+03

 The electronic state is 1-A'.
 Alpha  occ. eigenvalues --  -20.57714 -20.53246  -1.34983  -1.30654  -0.72353
 Alpha  occ. eigenvalues --   -0.68189  -0.58778  -0.54052  -0.52119  -0.47811
 Alpha virt. eigenvalues --    0.12171   0.17470   0.19010   0.28045   0.50933
 Alpha virt. eigenvalues --    0.54385   0.56132   0.59581   0.68999   0.72534
 Alpha virt. eigenvalues --    0.74987   0.77132   0.81208   0.83186   0.84621

 Mulliken charges:
               1
     1  O   -0.538466
     2  H    0.273498
     3  H    0.249526
     4  O   -0.507471
     5  H    0.263957
     6  H    0.258956
 Sum of Mulliken charges =  -0.00000

 Dipole moment (field-independent basis, Debye):
    X=             -1.1414    Y=             -3.4253    Z=             -0.0000  Tot=              3.6105
 Quadrupole moment (field-independent basis, Debye-Ang):
   XX=             -9.1876   YY=             -8.1682   ZZ=            -14.7338
   XY=             -4.1295   XZ=              0.0000   YZ=             -0.0000

 56665\MP4DQ=-152.6490591\MP4SDQ=-152.652155\CCSD=-152.6515384\CCSD(T)=
 Normal termination of Gaussian 16 at Sun Aug 28 00:27:26 2022.
