 Gaussian 16, Revision A.03,
 Gaussian 16:  ES64L-G16RevA.03 25-Dec-2016

 ------------------
 #p CCSD(T)/cc-pVTZ
 ------------------

 ------------
 H2O_H2O_2687
 ------------
 Symbolic Z-matrix:
 Charge =  0 Multiplicity = 1

                         Standard orientation:
 ---------------------------------------------------------------------
 Center     Atomic      Atomic             Coordinates (Angstroms)
 Number     Number       Type             X           Y           Z
 ---------------------------------------------------------------------
      1          8           0        0.056000    2.178917   -0.000000
      2          1           0        0.054499    1.196316   -0.000000
      3          1           0       -0.873005    2.499003   -0.000000
      4          8           0        0.056000   -2.000022    0.000000
      5          1           0        0.749742   -2.695887    0.000000
      6          1           0       -0.827241   -2.430592    0.000000
 ---------------------------------------------------------------------

 SCF Done:  E(RHF) =  -152.110330257     A.U. after   10 cycles
 E2 =    -0.5260421208D+00 EUMP2 =    -0.15263637237765D+03
 CCSD(T)
 CCSD(T)= -0.15266349579D+03

 The electronic state is 1-A'.
 Alpha  occ. eigenvalues --  -20.56828 -20.54284  -1.34096  -1.31610  -0.71496
 Alpha  occ. eigenvalues --   -0.68999  -0.57661  -0.55094  -0.51228  -0.48748
 Alpha virt. eigenvalues --    0.12347   0.16210   0.19390   0.23481   0.52964
 Alpha virt. eigenvalues --    0.55618   0.56199   0.58912   0.69012   0.69794
 Alpha virt. eigenvalues --    0.77594   0.78953   0.80007   0.80087   0.83441

 Mulliken charges:
               1
     1  O   -0.520536
     2  H    0.265682
     3  H    0.250176
     4  O   -0.511798
     5  H    0.260309
     6  H    0.256166
 Sum of Mulliken charges =  -0.00000

 Dipole moment (field-independent basis, Debye):
    X=             -1.9051    Y=             -3.2558    Z=              0.0000  Tot=              3.7722
 Quadrupole moment (field-independent basis, Debye-Ang):
   XX=             -9.2887   YY=             -7.4358   ZZ=            -14.7212
   XY=             -4.1948   XZ=              0.0000   YZ=             -0.0000

 Normal termination of Gaussian 16 at Fri Aug 26 16:33:59 2022.
