 Gaussian 16, Revision A.03,
 Gaussian 16:  ES64L-G16RevA.03 25-Dec-2016

 ------------------
 #p CCSD(T)/cc-pVTZ
 ------------------

 ------------
 H2O_H2O_2202
 ------------
 Symbolic Z-matrix:
 Charge =  0 Multiplicity = 1

                         Standard orientation:
 ---------------------------------------------------------------------
 Center     Atomic      Atomic             Coordinates (Angstroms)
 Number     Number       Type             X           Y           Z
 ---------------------------------------------------------------------
      1          8           0        0.088234   -1.970662    0.000000
      2          1           0        0.088023   -0.988061    0.000000
      3          1           0       -0.841190   -2.289528    0.000000
      4          8           0        0.088234    1.826349    0.000000
      5          1           0        0.216281    2.800572    0.000000
      6          1           0       -0.874860    1.631525    0.000000
 ---------------------------------------------------------------------

 SCF Done:  E(RHF) =  -152.109322940     A.U. after   10 cycles
 E2 =    -0.5264751799D+00 EUMP2 =    -0.15263579811952D+03
 CCSD(T)
 CCSD(T)= -0.15266292787D+03

 The electronic state is 1-A'.
 Alpha  occ. eigenvalues --  -20.57143 -20.54690  -1.34429  -1.32003  -0.71904
 Alpha  occ. eigenvalues --   -0.69353  -0.57942  -0.55444  -0.51535  -0.49122
 Alpha virt. eigenvalues --    0.11604   0.16114   0.19870   0.24863   0.52689
 Alpha virt. eigenvalues --    0.55793   0.56646   0.57619   0.68458   0.72639
 Alpha virt. eigenvalues --    0.76731   0.79339   0.79885   0.80904   0.83302

 Mulliken charges:
               1
     1  O   -0.515805
     2  H    0.264930
     3  H    0.245806
     4  O   -0.502543
     5  H    0.258920
     6  H    0.248692
 Sum of Mulliken charges =  -0.00000

 Dipole moment (field-independent basis, Debye):
    X=             -2.9833    Y=              2.6690    Z=              0.0000  Tot=              4.0029
 Quadrupole moment (field-independent basis, Debye-Ang):
   XX=            -10.5788   YY=             -8.7523   ZZ=            -14.7165
   XY=              2.5170   XZ=              0.0000   YZ=              0.0000

 Normal termination of Gaussian 16 at Sun Aug 28 05:24:07 2022.
