 Gaussian 16, Revision A.03,
 Gaussian 16:  ES64L-G16RevA.03 25-Dec-2016

 ------------------
 #p CCSD(T)/cc-pVTZ
 ------------------

 ------------
 H2O_H2O_4503
 ------------
 Symbolic Z-matrix:
 Charge =  0 Multiplicity = 1

                         Standard orientation:
 ---------------------------------------------------------------------
 Center     Atomic      Atomic             Coordinates (Angstroms)
 Number     Number       Type             X           Y           Z
 ---------------------------------------------------------------------
      1          8           0        0.085597   -2.890955    0.000000
      2          1           0        0.085375   -1.908353    0.000000
      3          1           0       -0.843824   -3.209831    0.000000
      4          8           0        0.085597    2.741349    0.000000
      5          1           0        0.277076    3.705113    0.000000
      6          1           0       -0.888175    2.609921    0.000000
 ---------------------------------------------------------------------

 SCF Done:  E(RHF) =  -152.107849013     A.U. after   10 cycles
 E2 =    -0.5258584555D+00 EUMP2 =    -0.15263370746820D+03
 CCSD(T)
 CCSD(T)= -0.15266091693D+03

 The electronic state is 1-A'.
 Alpha  occ. eigenvalues --  -20.56203 -20.55213  -1.33505  -1.32516  -0.70918
 Alpha  occ. eigenvalues --   -0.69913  -0.56973  -0.55972  -0.50618  -0.49631
 Alpha virt. eigenvalues --    0.12989   0.14775   0.19189   0.21364   0.53330
 Alpha virt. eigenvalues --    0.54849   0.56578   0.57717   0.66899   0.68547
 Alpha virt. eigenvalues --    0.78272   0.79238   0.79555   0.81029   0.81996

 Mulliken charges:
               1
     1  O   -0.510637
     2  H    0.258356
     3  H    0.252200
     4  O   -0.511654
     5  H    0.258374
     6  H    0.253361
 Sum of Mulliken charges =  -0.00000

 Dipole moment (field-independent basis, Debye):
    X=             -2.9353    Y=              2.6253    Z=              0.0000  Tot=              3.9380
 Quadrupole moment (field-independent basis, Debye-Ang):
   XX=            -10.3970   YY=             -8.1220   ZZ=            -14.7127
   XY=              2.9421   XZ=              0.0000   YZ=              0.0000

 50378\MP4DQ=-152.6428281\MP4SDQ=-152.6458801\CCSD=-152.645294\CCSD(T)=
 Normal termination of Gaussian 16 at Sun Aug 28 03:24:10 2022.
