 Gaussian 16, Revision A.03,
 Gaussian 16:  ES64L-G16RevA.03 25-Dec-2016

 ------------------
 #p CCSD(T)/cc-pVTZ
 ------------------

 ------------
 H2O_H2O_2770
 ------------
 Symbolic Z-matrix:
 Charge =  0 Multiplicity = 1

                         Standard orientation:
 ---------------------------------------------------------------------
 Center     Atomic      Atomic             Coordinates (Angstroms)
 Number     Number       Type             X           Y           Z
 ---------------------------------------------------------------------
      1          8           0        0.026672    2.205753    0.000000
      2          1           0        0.024017    1.223155    0.000000
      3          1           0       -0.901957    2.526930    0.000000
      4          8           0        0.026672   -2.032537   -0.000000
      5          1           0        0.975101   -2.289416   -0.000000
      6          1           0       -0.523908   -2.846396   -0.000000
 ---------------------------------------------------------------------

 SCF Done:  E(RHF) =  -152.110363192     A.U. after   10 cycles
 E2 =    -0.5259793089D+00 EUMP2 =    -0.15263634250142D+03
 CCSD(T)
 CCSD(T)= -0.15266346948D+03

 The electronic state is 1-A'.
 Alpha  occ. eigenvalues --  -20.56757 -20.54380  -1.34033  -1.31705  -0.71434
 Alpha  occ. eigenvalues --   -0.69108  -0.57599  -0.55198  -0.51165  -0.48847
 Alpha virt. eigenvalues --    0.12369   0.16166   0.19332   0.23425   0.53386
 Alpha virt. eigenvalues --    0.55592   0.56405   0.58580   0.68880   0.69563
 Alpha virt. eigenvalues --    0.77676   0.79074   0.79986   0.80169   0.83365

 Mulliken charges:
               1
     1  O   -0.522042
     2  H    0.264801
     3  H    0.253248
     4  O   -0.513885
     5  H    0.259787
     6  H    0.258090
 Sum of Mulliken charges =  -0.00000

 Dipole moment (field-independent basis, Debye):
    X=             -0.9102    Y=             -3.1409    Z=             -0.0000  Tot=              3.2701
 Quadrupole moment (field-independent basis, Debye-Ang):
   XX=             -9.2883   YY=             -7.5661   ZZ=            -14.7213
   XY=             -5.3152   XZ=             -0.0000   YZ=             -0.0000

 Normal termination of Gaussian 16 at Fri Aug 26 17:11:49 2022.
