 Gaussian 16, Revision A.03,
 Gaussian 16:  ES64L-G16RevA.03 25-Dec-2016

 ------------------
 #p CCSD(T)/cc-pVTZ
 ------------------

 ------------
 H2O_H2O_2251
 ------------
 Symbolic Z-matrix:
 Charge =  0 Multiplicity = 1

                         Standard orientation:
 ---------------------------------------------------------------------
 Center     Atomic      Atomic             Coordinates (Angstroms)
 Number     Number       Type             X           Y           Z
 ---------------------------------------------------------------------
      1          8           0        0.090686   -1.987560    0.000000
      2          1           0        0.090585   -1.004959    0.000000
      3          1           0       -0.838775   -2.306322    0.000000
      4          8           0        0.090686    1.848855    0.000000
      5          1           0        0.154851    2.829359    0.000000
      6          1           0       -0.857633    1.591565    0.000000
 ---------------------------------------------------------------------

 SCF Done:  E(RHF) =  -152.108942669     A.U. after   10 cycles
 E2 =    -0.5264617043D+00 EUMP2 =    -0.15263540437372D+03
 CCSD(T)
 CCSD(T)= -0.15266254550D+03

 The electronic state is 1-A'.
 Alpha  occ. eigenvalues --  -20.57100 -20.54833  -1.34390  -1.32141  -0.71872
 Alpha  occ. eigenvalues --   -0.69486  -0.57885  -0.55580  -0.51492  -0.49256
 Alpha virt. eigenvalues --    0.11515   0.16023   0.19943   0.24723   0.52896
 Alpha virt. eigenvalues --    0.55816   0.56661   0.57564   0.68322   0.72440
 Alpha virt. eigenvalues --    0.76837   0.79487   0.79753   0.80190   0.83282

 Mulliken charges:
               1
     1  O   -0.514363
     2  H    0.264230
     3  H    0.246001
     4  O   -0.502341
     5  H    0.258954
     6  H    0.247520
 Sum of Mulliken charges =  -0.00000

 Dipole moment (field-independent basis, Debye):
    X=             -3.0670    Y=              2.5567    Z=              0.0000  Tot=              3.9929
 Quadrupole moment (field-independent basis, Debye-Ang):
   XX=            -10.7289   YY=             -8.9463   ZZ=            -14.7149
   XY=              2.3335   XZ=              0.0000   YZ=              0.0000

 Normal termination of Gaussian 16 at Sun Aug 28 05:46:11 2022.
