 Gaussian 16, Revision A.03,
 Gaussian 16:  ES64L-G16RevA.03 25-Dec-2016

 ------------------
 #p CCSD(T)/cc-pVTZ
 ------------------

 ------------
 H2O_H2O_2725
 ------------
 Symbolic Z-matrix:
 Charge =  0 Multiplicity = 1

                         Standard orientation:
 ---------------------------------------------------------------------
 Center     Atomic      Atomic             Coordinates (Angstroms)
 Number     Number       Type             X           Y           Z
 ---------------------------------------------------------------------
      1          8           0        0.092949   -2.173812    0.000000
      2          1           0        0.092949   -1.191211    0.000000
      3          1           0       -0.836544   -2.492479    0.000000
      4          8           0        0.092949    2.041025    0.000000
      5          1           0        0.092949    3.023627    0.000000
      6          1           0       -0.836544    1.722358    0.000000
 ---------------------------------------------------------------------

 SCF Done:  E(RHF) =  -152.108226715     A.U. after   10 cycles
 E2 =    -0.5261900235D+00 EUMP2 =    -0.15263441673812D+03
 CCSD(T)
 CCSD(T)= -0.15266159075D+03

 The electronic state is 1-A'.
 Alpha  occ. eigenvalues --  -20.56789 -20.55099  -1.34082  -1.32400  -0.71531
 Alpha  occ. eigenvalues --   -0.69768  -0.57552  -0.55846  -0.51187  -0.49512
 Alpha virt. eigenvalues --    0.11437   0.15708   0.19628   0.23746   0.54024
 Alpha virt. eigenvalues --    0.55211   0.56468   0.58003   0.68381   0.69603
 Alpha virt. eigenvalues --    0.77617   0.78515   0.79398   0.80639   0.82910

 Mulliken charges:
               1
     1  O   -0.511285
     2  H    0.261217
     3  H    0.248242
     4  O   -0.506170
     5  H    0.259590
     6  H    0.248407
 Sum of Mulliken charges =  -0.00000

 Dipole moment (field-independent basis, Debye):
    X=             -3.1579    Y=              2.4003    Z=              0.0000  Tot=              3.9666
 Quadrupole moment (field-independent basis, Debye-Ang):
   XX=            -10.8636   YY=             -9.1988   ZZ=            -14.7129
   XY=              2.1467   XZ=              0.0000   YZ=              0.0000

 Normal termination of Gaussian 16 at Fri Aug 26 16:50:42 2022.
