 Gaussian 16, Revision A.03,
 Gaussian 16:  ES64L-G16RevA.03 25-Dec-2016

 ------------------
 #p CCSD(T)/cc-pVTZ
 ------------------

 ------------
 H2O_H2O_4422
 ------------
 Symbolic Z-matrix:
 Charge =  0 Multiplicity = 1

                         Standard orientation:
 ---------------------------------------------------------------------
 Center     Atomic      Atomic             Coordinates (Angstroms)
 Number     Number       Type             X           Y           Z
 ---------------------------------------------------------------------
      1          8           0       -0.019818    2.860589    0.000000
      2          1           0       -0.017585    1.877990    0.000000
      3          1           0        0.908948    3.181368    0.000000
      4          8           0       -0.019818   -2.693465    0.000000
      5          1           0       -0.993719   -2.823935    0.000000
      6          1           0        0.419444   -3.572416    0.000000
 ---------------------------------------------------------------------

 SCF Done:  E(RHF) =  -152.108494067     A.U. after   10 cycles
 E2 =    -0.5257995656D+00 EUMP2 =    -0.15263429363279D+03
 CCSD(T)
 CCSD(T)= -0.15266148953D+03

 The electronic state is 1-A'.
 Alpha  occ. eigenvalues --  -20.56194 -20.55016  -1.33496  -1.32324  -0.70901
 Alpha  occ. eigenvalues --   -0.69730  -0.56991  -0.55798  -0.50615  -0.49449
 Alpha virt. eigenvalues --    0.13220   0.14949   0.19486   0.21256   0.53457
 Alpha virt. eigenvalues --    0.54932   0.56664   0.57792   0.66804   0.68729
 Alpha virt. eigenvalues --    0.78271   0.79407   0.79444   0.80605   0.82564

 Mulliken charges:
               1
     1  O   -0.514562
     2  H    0.259796
     3  H    0.254625
     4  O   -0.515088
     5  H    0.257318
     6  H    0.257911
 Sum of Mulliken charges =  -0.00000

 Dipole moment (field-independent basis, Debye):
    X=              0.6808    Y=             -2.9344    Z=              0.0000  Tot=              3.0123
 Quadrupole moment (field-independent basis, Debye-Ang):
   XX=             -9.4474   YY=             -7.0235   ZZ=            -14.7150
   XY=              7.2745   XZ=              0.0000   YZ=              0.0000

 Normal termination of Gaussian 16 at Sun Aug 28 02:44:29 2022.
