 Gaussian 16, Revision A.03,
 Gaussian 16:  ES64L-G16RevA.03 25-Dec-2016

 ------------------
 #p CCSD(T)/cc-pVTZ
 ------------------

 ------------
 H2O_H2O_1510
 ------------
 Symbolic Z-matrix:
 Charge =  0 Multiplicity = 1

                         Standard orientation:
 ---------------------------------------------------------------------
 Center     Atomic      Atomic             Coordinates (Angstroms)
 Number     Number       Type             X           Y           Z
 ---------------------------------------------------------------------
      1          8           0        0.063276    1.708367   -0.000000
      2          1           0        0.061719    0.725766   -0.000000
      3          1           0       -0.865712    2.028505   -0.000000
      4          8           0        0.063276   -1.532916    0.000000
      5          1           0        0.660211   -2.313412    0.000000
      6          1           0       -0.868628   -1.844464    0.000000
 ---------------------------------------------------------------------

 SCF Done:  E(RHF) =  -152.113115788     A.U. after   10 cycles
 E2 =    -0.5271962795D+00 EUMP2 =    -0.15264031206789D+03
 CCSD(T)
 CCSD(T)= -0.15266732117D+03

 The electronic state is 1-A'.
 Alpha  occ. eigenvalues --  -20.57936 -20.53132  -1.35228  -1.30560  -0.72608
 Alpha  occ. eigenvalues --   -0.68152  -0.58984  -0.53907  -0.52348  -0.47700
 Alpha virt. eigenvalues --    0.11945   0.17232   0.19236   0.28737   0.49627
 Alpha virt. eigenvalues --    0.55049   0.56562   0.59027   0.69545   0.72729
 Alpha virt. eigenvalues --    0.74344   0.76727   0.81385   0.82957   0.84515

 Mulliken charges:
               1
     1  O   -0.537031
     2  H    0.277277
     3  H    0.243123
     4  O   -0.501834
     5  H    0.262424
     6  H    0.256040
 Sum of Mulliken charges =  -0.00000

 Dipole moment (field-independent basis, Debye):
    X=             -2.1193    Y=             -3.4337    Z=              0.0000  Tot=              4.0351
 Quadrupole moment (field-independent basis, Debye-Ang):
   XX=             -9.4727   YY=             -8.3139   ZZ=            -14.7317
   XY=             -3.4259   XZ=              0.0000   YZ=             -0.0000

 Normal termination of Gaussian 16 at Sat Aug 27 01:01:57 2022.
