 Gaussian 16, Revision A.03,
 Gaussian 16:  ES64L-G16RevA.03 25-Dec-2016

 ------------------
 #p CCSD(T)/cc-pVTZ
 ------------------

 ------------
 H2O_H2O_1525
 ------------
 Symbolic Z-matrix:
 Charge =  0 Multiplicity = 1

                         Standard orientation:
 ---------------------------------------------------------------------
 Center     Atomic      Atomic             Coordinates (Angstroms)
 Number     Number       Type             X           Y           Z
 ---------------------------------------------------------------------
      1          8           0        0.092949   -1.695160    0.000000
      2          1           0        0.092949   -0.712558    0.000000
      3          1           0       -0.836544   -2.013826    0.000000
      4          8           0        0.092949    1.562373    0.000000
      5          1           0        0.092949    2.544974    0.000000
      6          1           0       -0.836544    1.243705    0.000000
 ---------------------------------------------------------------------

 SCF Done:  E(RHF) =  -152.108808456     A.U. after   10 cycles
 E2 =    -0.5276186827D+00 EUMP2 =    -0.15263642713843D+03
 CCSD(T)
 CCSD(T)= -0.15266352881D+03

 The electronic state is 1-A'.
 Alpha  occ. eigenvalues --  -20.57823 -20.54499  -1.35186  -1.31847  -0.72953
 Alpha  occ. eigenvalues --   -0.69044  -0.58663  -0.55215  -0.52236  -0.48942
 Alpha virt. eigenvalues --    0.11465   0.16270   0.20519   0.27628   0.49951
 Alpha virt. eigenvalues --    0.54303   0.57559   0.58205   0.67774   0.73823
 Alpha virt. eigenvalues --    0.74168   0.78057   0.80439   0.81801   0.83308

 Mulliken charges:
               1
     1  O   -0.519600
     2  H    0.271673
     3  H    0.239765
     4  O   -0.482810
     5  H    0.250692
     6  H    0.240280
 Sum of Mulliken charges =  -0.00000

 Dipole moment (field-independent basis, Debye):
    X=             -3.1056    Y=              2.5799    Z=              0.0000  Tot=              4.0374
 Quadrupole moment (field-independent basis, Debye-Ang):
   XX=            -10.8963   YY=             -9.1463   ZZ=            -14.7098
   XY=              2.1181   XZ=              0.0000   YZ=              0.0000

 Normal termination of Gaussian 16 at Sat Aug 27 01:08:00 2022.
