 Gaussian 16, Revision A.03,
 Gaussian 16:  ES64L-G16RevA.03 25-Dec-2016

 ------------------
 #p CCSD(T)/cc-pVTZ
 ------------------

 -----------
 H2O_H2O_704
 -----------
 Symbolic Z-matrix:
 Charge =  0 Multiplicity = 1

                         Standard orientation:
 ---------------------------------------------------------------------
 Center     Atomic      Atomic             Coordinates (Angstroms)
 Number     Number       Type             X           Y           Z
 ---------------------------------------------------------------------
      1          8           0        0.082826   -1.377866    0.000000
      2          1           0        0.082164   -0.395264    0.000000
      3          1           0       -0.846452   -1.697158    0.000000
      4          8           0        0.082826    1.223395    0.000000
      5          1           0        0.336503    2.172687    0.000000
      6          1           0       -0.897428    1.155497    0.000000
 ---------------------------------------------------------------------

 SCF Done:  E(RHF) =  -152.103520856     A.U. after   10 cycles
 E2 =    -0.5310720084D+00 EUMP2 =    -0.15263459286469D+03
 CCSD(T)
 CCSD(T)= -0.15266128817D+03

 The electronic state is 1-A'.
 Alpha  occ. eigenvalues --  -20.59476 -20.51530  -1.37547  -1.29405  -0.75661
 Alpha  occ. eigenvalues --   -0.68393  -0.59622  -0.54275  -0.52219  -0.46422
 Alpha virt. eigenvalues --    0.11348   0.16669   0.20366   0.32341   0.48282
 Alpha virt. eigenvalues --    0.53209   0.58842   0.62570   0.69837   0.71887
 Alpha virt. eigenvalues --    0.74185   0.77995   0.79527   0.83245   0.83541

 Mulliken charges:
               1
     1  O   -0.564825
     2  H    0.294339
     3  H    0.224057
     4  O   -0.424360
     5  H    0.234786
     6  H    0.236004
 Sum of Mulliken charges =  -0.00000

 Dipole moment (field-independent basis, Debye):
    X=             -2.6855    Y=              3.4879    Z=              0.0000  Tot=              4.4020
 Quadrupole moment (field-independent basis, Debye-Ang):
   XX=            -10.2875   YY=             -9.1446   ZZ=            -14.6763
   XY=              2.5818   XZ=              0.0000   YZ=              0.0000

 Normal termination of Gaussian 16 at Fri Aug 26 19:57:43 2022.
