 Gaussian 16, Revision A.03,
 Gaussian 16:  ES64L-G16RevA.03 25-Dec-2016

 ------------------
 #p CCSD(T)/cc-pVTZ
 ------------------

 ----------
 H2O_H2O_51
 ----------
 Symbolic Z-matrix:
 Charge =  0 Multiplicity = 1

                         Standard orientation:
 ---------------------------------------------------------------------
 Center     Atomic      Atomic             Coordinates (Angstroms)
 Number     Number       Type             X           Y           Z
 ---------------------------------------------------------------------
      1          8           0        0.090692   -1.110022    0.000000
      2          1           0        0.090507   -0.127421    0.000000
      3          1           0       -0.838741   -1.428864    0.000000
      4          8           0        0.090692    0.971333    0.000000
      5          1           0        0.154772    1.951842    0.000000
      6          1           0       -0.857605    0.713961    0.000000
 ---------------------------------------------------------------------

 SCF Done:  E(RHF) =  -152.019233604     A.U. after   11 cycles
 E2 =    -0.5396243009D+00 EUMP2 =    -0.15255885790478D+03
 CCSD(T)
 CCSD(T)= -0.15258435599D+03

 The electronic state is 1-A'.
 Alpha  occ. eigenvalues --  -20.61666 -20.46946  -1.44852  -1.26475  -0.84400
 Alpha  occ. eigenvalues --   -0.71035  -0.58393  -0.56228  -0.47568  -0.43251
 Alpha virt. eigenvalues --    0.10631   0.15729   0.21963   0.31376   0.49204
 Alpha virt. eigenvalues --    0.50547   0.60031   0.67233   0.70705   0.72487
 Alpha virt. eigenvalues --    0.74862   0.78699   0.79930   0.85751   0.86389

 Mulliken charges:
               1
     1  O   -0.605630
     2  H    0.250942
     3  H    0.183172
     4  O   -0.294426
     5  H    0.225996
     6  H    0.239946
 Sum of Mulliken charges =  -0.00000

 Dipole moment (field-independent basis, Debye):
    X=             -2.8026    Y=              4.0958    Z=              0.0000  Tot=              4.9629
 Quadrupole moment (field-independent basis, Debye-Ang):
   XX=            -10.6362   YY=            -10.0357   ZZ=            -14.4959
   XY=              2.0089   XZ=              0.0000   YZ=              0.0000

 Normal termination of Gaussian 16 at Fri Aug 26 15:32:03 2022.
