 Gaussian 16, Revision A.03,
 Gaussian 16:  ES64L-G16RevA.03 25-Dec-2016

 ------------------
 #p CCSD(T)/cc-pVTZ
 ------------------

 -----------
 H2O_H2O_729
 -----------
 Symbolic Z-matrix:
 Charge =  0 Multiplicity = 1

                         Standard orientation:
 ---------------------------------------------------------------------
 Center     Atomic      Atomic             Coordinates (Angstroms)
 Number     Number       Type             X           Y           Z
 ---------------------------------------------------------------------
      1          8           0        0.082825   -1.387838    0.000000
      2          1           0        0.082169   -0.405237    0.000000
      3          1           0       -0.846454   -1.707126    0.000000
      4          8           0        0.082825    1.233367    0.000000
      5          1           0        0.336508    2.182657    0.000000
      6          1           0       -0.897428    1.165474    0.000000
 ---------------------------------------------------------------------

 SCF Done:  E(RHF) =  -152.104291025     A.U. after   10 cycles
 E2 =    -0.5308826459D+00 EUMP2 =    -0.15263517367074D+03
 CCSD(T)
 CCSD(T)= -0.15266189287D+03

 The electronic state is 1-A'.
 Alpha  occ. eigenvalues --  -20.59407 -20.51654  -1.37421  -1.29495  -0.75504
 Alpha  occ. eigenvalues --   -0.68342  -0.59653  -0.54178  -0.52343  -0.46519
 Alpha virt. eigenvalues --    0.11367   0.16679   0.20338   0.32265   0.48263
 Alpha virt. eigenvalues --    0.53278   0.58807   0.62344   0.69705   0.71906
 Alpha virt. eigenvalues --    0.74212   0.77927   0.79665   0.83141   0.83547

 Mulliken charges:
               1
     1  O   -0.563066
     2  H    0.294080
     3  H    0.224887
     4  O   -0.427298
     5  H    0.235036
     6  H    0.236362
 Sum of Mulliken charges =  -0.00000

 Dipole moment (field-independent basis, Debye):
    X=             -2.6894    Y=              3.4640    Z=              0.0000  Tot=              4.3854
 Quadrupole moment (field-independent basis, Debye-Ang):
   XX=            -10.2886   YY=             -9.1220   ZZ=            -14.6793
   XY=              2.5887   XZ=              0.0000   YZ=              0.0000

 Normal termination of Gaussian 16 at Fri Aug 26 20:08:59 2022.
