 Gaussian 16, Revision A.03,
 Gaussian 16:  ES64L-G16RevA.03 25-Dec-2016

 ------------------
 #p CCSD(T)/cc-pVTZ
 ------------------

 ------------
 H2O_H2O_3345
 ------------
 Symbolic Z-matrix:
 Charge =  0 Multiplicity = 1

                         Standard orientation:
 ---------------------------------------------------------------------
 Center     Atomic      Atomic             Coordinates (Angstroms)
 Number     Number       Type             X           Y           Z
 ---------------------------------------------------------------------
      1          8           0        0.026649    2.435113    0.000000
      2          1           0        0.024253    1.452515    0.000000
      3          1           0       -0.902064    2.756045    0.000000
      4          8           0        0.026649   -2.261883   -0.000000
      5          1           0        0.975147   -2.518513   -0.000000
      6          1           0       -0.523717   -3.075889   -0.000000
 ---------------------------------------------------------------------

 SCF Done:  E(RHF) =  -152.109443651     A.U. after   10 cycles
 E2 =    -0.5258635168D+00 EUMP2 =    -0.15263530716815D+03
 CCSD(T)
 CCSD(T)= -0.15266246716D+03

 The electronic state is 1-A'.
 Alpha  occ. eigenvalues --  -20.56489 -20.54653  -1.33778  -1.31969  -0.71181
 Alpha  occ. eigenvalues --   -0.69372  -0.57307  -0.55456  -0.50904  -0.49103
 Alpha virt. eigenvalues --    0.12596   0.15658   0.19418   0.22198   0.53367
 Alpha virt. eigenvalues --    0.55334   0.56501   0.58095   0.67286   0.69335
 Alpha virt. eigenvalues --    0.77999   0.78778   0.79733   0.80063   0.83058

 Mulliken charges:
               1
     1  O   -0.518139
     2  H    0.262711
     3  H    0.253803
     4  O   -0.515921
     5  H    0.259055
     6  H    0.258491
 Sum of Mulliken charges =  -0.00000

 Dipole moment (field-independent basis, Debye):
    X=             -0.9116    Y=             -3.0915    Z=             -0.0000  Tot=              3.2231
 Quadrupole moment (field-independent basis, Debye-Ang):
   XX=             -9.2883   YY=             -7.2522   ZZ=            -14.7184
   XY=             -5.8406   XZ=             -0.0000   YZ=              0.0000

 CCSD(T)=-152.6624672\RMSD=6.939e-09\PG=CS [SG(H4O2)]\\@
 Normal termination of Gaussian 16 at Fri Aug 26 21:11:14 2022.
