 Gaussian 16, Revision A.03,
 Gaussian 16:  ES64L-G16RevA.03 25-Dec-2016

 ------------------
 #p CCSD(T)/cc-pVTZ
 ------------------

 ------------
 H2O_H2O_3004
 ------------
 Symbolic Z-matrix:
 Charge =  0 Multiplicity = 1

                         Standard orientation:
 ---------------------------------------------------------------------
 Center     Atomic      Atomic             Coordinates (Angstroms)
 Number     Number       Type             X           Y           Z
 ---------------------------------------------------------------------
      1          8           0        0.082804   -2.295307    0.000000
      2          1           0        0.082416   -1.312705    0.000000
      3          1           0       -0.846563   -2.614340    0.000000
      4          8           0        0.082804    2.140790    0.000000
      5          1           0        0.336746    3.090010    0.000000
      6          1           0       -0.897467    2.073165    0.000000
 ---------------------------------------------------------------------

 SCF Done:  E(RHF) =  -152.108781896     A.U. after   10 cycles
 E2 =    -0.5260288369D+00 EUMP2 =    -0.15263481073260D+03
 CCSD(T)
 CCSD(T)= -0.15266197614D+03

 The electronic state is 1-A'.
 Alpha  occ. eigenvalues --  -20.56651 -20.54836  -1.33940  -1.32145  -0.71362
 Alpha  occ. eigenvalues --   -0.69527  -0.57434  -0.55608  -0.51056  -0.49266
 Alpha virt. eigenvalues --    0.11953   0.15696   0.19414   0.22806   0.54027
 Alpha virt. eigenvalues --    0.54930   0.56391   0.58317   0.68013   0.69198
 Alpha virt. eigenvalues --    0.77834   0.78673   0.79593   0.80763   0.82816

 Mulliken charges:
               1
     1  O   -0.513584
     2  H    0.262004
     3  H    0.249477
     4  O   -0.510250
     5  H    0.259805
     6  H    0.252549
 Sum of Mulliken charges =   0.00000

 Dipole moment (field-independent basis, Debye):
    X=             -2.8208    Y=              2.7770    Z=              0.0000  Tot=              3.9584
 Quadrupole moment (field-independent basis, Debye-Ang):
   XX=            -10.2551   YY=             -8.2039   ZZ=            -14.7157
   XY=              2.9845   XZ=              0.0000   YZ=              0.0000

 Normal termination of Gaussian 16 at Fri Aug 26 19:11:51 2022.
