 Gaussian 16, Revision A.03,
 Gaussian 16:  ES64L-G16RevA.03 25-Dec-2016

 ------------------
 #p CCSD(T)/cc-pVTZ
 ------------------

 ------------
 H2O_H2O_3952
 ------------
 Symbolic Z-matrix:
 Charge =  0 Multiplicity = 1

                         Standard orientation:
 ---------------------------------------------------------------------
 Center     Atomic      Atomic             Coordinates (Angstroms)
 Number     Number       Type             X           Y           Z
 ---------------------------------------------------------------------
      1          8           0        0.088230   -2.668703    0.000000
      2          1           0        0.088076   -1.686102    0.000000
      3          1           0       -0.841213   -2.987515    0.000000
      4          8           0        0.088230    2.524379    0.000000
      5          1           0        0.216333    3.498595    0.000000
      6          1           0       -0.874875    2.329611    0.000000
 ---------------------------------------------------------------------

 SCF Done:  E(RHF) =  -152.107915875     A.U. after   10 cycles
 E2 =    -0.5258939405D+00 EUMP2 =    -0.15263380981516D+03
 CCSD(T)
 CCSD(T)= -0.15266101361D+03

 The electronic state is 1-A'.
 Alpha  occ. eigenvalues --  -20.56323 -20.55181  -1.33623  -1.32485  -0.71040
 Alpha  occ. eigenvalues --   -0.69878  -0.57092  -0.55940  -0.50735  -0.49599
 Alpha virt. eigenvalues --    0.12397   0.15050   0.19033   0.21963   0.53146
 Alpha virt. eigenvalues --    0.54983   0.56496   0.57871   0.66748   0.68815
 Alpha virt. eigenvalues --    0.78163   0.79088   0.79268   0.81278   0.82427

 Mulliken charges:
               1
     1  O   -0.510509
     2  H    0.258749
     3  H    0.251464
     4  O   -0.511474
     5  H    0.259156
     6  H    0.252614
 Sum of Mulliken charges =  -0.00000

 Dipole moment (field-independent basis, Debye):
    X=             -3.0201    Y=              2.5467    Z=              0.0000  Tot=              3.9505
 Quadrupole moment (field-independent basis, Debye-Ang):
   XX=            -10.5524   YY=             -8.5504   ZZ=            -14.7127
   XY=              2.6427   XZ=              0.0000   YZ=              0.0000

 Normal termination of Gaussian 16 at Sat Aug 27 00:39:14 2022.
