 Gaussian 16, Revision A.03,
 Gaussian 16:  ES64L-G16RevA.03 25-Dec-2016

 ------------------
 #p CCSD(T)/cc-pVTZ
 ------------------

 ------------
 H2O_H2O_3971
 ------------
 Symbolic Z-matrix:
 Charge =  0 Multiplicity = 1

                         Standard orientation:
 ---------------------------------------------------------------------
 Center     Atomic      Atomic             Coordinates (Angstroms)
 Number     Number       Type             X           Y           Z
 ---------------------------------------------------------------------
      1          8           0       -0.023180    2.682875    0.000000
      2          1           0       -0.020902    1.700277    0.000000
      3          1           0        0.905571    3.003696    0.000000
      4          8           0       -0.023180   -2.512473    0.000000
      5          1           0       -0.986454   -2.706404    0.000000
      6          1           0        0.472667   -3.360790    0.000000
 ---------------------------------------------------------------------

 SCF Done:  E(RHF) =  -152.108800560     A.U. after   10 cycles
 E2 =    -0.5258107325D+00 EUMP2 =    -0.15263461129296D+03
 CCSD(T)
 CCSD(T)= -0.15266179613D+03

 The electronic state is 1-A'.
 Alpha  occ. eigenvalues --  -20.56292 -20.54883  -1.33591  -1.32194  -0.70995
 Alpha  occ. eigenvalues --   -0.69599  -0.57097  -0.55673  -0.50712  -0.49322
 Alpha virt. eigenvalues --    0.12958   0.15209   0.19457   0.21532   0.53349
 Alpha virt. eigenvalues --    0.55072   0.56607   0.57847   0.66683   0.69051
 Alpha virt. eigenvalues --    0.78181   0.79064   0.79527   0.80385   0.82820

 Mulliken charges:
               1
     1  O   -0.515756
     2  H    0.260958
     3  H    0.254347
     4  O   -0.515948
     5  H    0.258074
     6  H    0.258325
 Sum of Mulliken charges =   0.00000

 Dipole moment (field-independent basis, Debye):
    X=              0.7950    Y=             -3.0075    Z=              0.0000  Tot=              3.1108
 Quadrupole moment (field-independent basis, Debye-Ang):
   XX=             -9.3616   YY=             -7.0594   ZZ=            -14.7161
   XY=              6.6149   XZ=              0.0000   YZ=              0.0000

 CCSD(T)=-152.6617961\RMSD=7.076e-09\PG=CS [SG(H4O2)]\\@
 Normal termination of Gaussian 16 at Sat Aug 27 00:45:41 2022.
