 Gaussian 16, Revision A.03,
 Gaussian 16:  ES64L-G16RevA.03 25-Dec-2016

 ------------------
 #p CCSD(T)/cc-pVTZ
 ------------------

 ------------
 H2O_H2O_1123
 ------------
 Symbolic Z-matrix:
 Charge =  0 Multiplicity = 1

                         Standard orientation:
 ---------------------------------------------------------------------
 Center     Atomic      Atomic             Coordinates (Angstroms)
 Number     Number       Type             X           Y           Z
 ---------------------------------------------------------------------
      1          8           0       -0.016757    1.542248    0.000000
      2          1           0       -0.012323    0.559656    0.000000
      3          1           0        0.911288    1.865105    0.000000
      4          8           0       -0.016757   -1.378911    0.000000
      5          1           0       -0.996955   -1.447600    0.000000
      6          1           0        0.366107   -2.283854    0.000000
 ---------------------------------------------------------------------

 SCF Done:  E(RHF) =  -152.112863984     A.U. after   10 cycles
 E2 =    -0.5281697777D+00 EUMP2 =    -0.15264103376194D+03
 CCSD(T)
 CCSD(T)= -0.15266794685D+03

 The electronic state is 1-A'.
 Alpha  occ. eigenvalues --  -20.58486 -20.52400  -1.35970  -1.29989  -0.73541
 Alpha  occ. eigenvalues --   -0.67920  -0.59711  -0.53100  -0.53019  -0.47123
 Alpha virt. eigenvalues --    0.12045   0.18033   0.18987   0.31291   0.49381
 Alpha virt. eigenvalues --    0.54643   0.55737   0.62653   0.68510   0.72837
 Alpha virt. eigenvalues --    0.74122   0.76626   0.81744   0.82313   0.84291

 Mulliken charges:
               1
     1  O   -0.562723
     2  H    0.285382
     3  H    0.251068
     4  O   -0.478634
     5  H    0.262173
     6  H    0.242734
 Sum of Mulliken charges =  -0.00000

 Dipole moment (field-independent basis, Debye):
    X=              0.5688    Y=             -3.3770    Z=              0.0000  Tot=              3.4246
 Quadrupole moment (field-independent basis, Debye-Ang):
   XX=             -9.5357   YY=             -8.7551   ZZ=            -14.7222
   XY=              4.0289   XZ=              0.0000   YZ=              0.0000

 Normal termination of Gaussian 16 at Fri Aug 26 22:36:07 2022.
