 Gaussian 16, Revision A.03,
 Gaussian 16:  ES64L-G16RevA.03 25-Dec-2016

 ------------------
 #p CCSD(T)/cc-pVTZ
 ------------------

 -----------
 H2O_H2O_667
 -----------
 Symbolic Z-matrix:
 Charge =  0 Multiplicity = 1

                         Standard orientation:
 ---------------------------------------------------------------------
 Center     Atomic      Atomic             Coordinates (Angstroms)
 Number     Number       Type             X           Y           Z
 ---------------------------------------------------------------------
      1          8           0        0.037591    1.371173   -0.000000
      2          1           0        0.033916    0.388578   -0.000000
      3          1           0       -0.890703    1.693314   -0.000000
      4          8           0        0.037591   -1.192330    0.000000
      5          1           0        0.917229   -1.630218    0.000000
      6          1           0       -0.661902   -1.882414    0.000000
 ---------------------------------------------------------------------

 SCF Done:  E(RHF) =  -152.107403232     A.U. after   11 cycles
 E2 =    -0.5304341982D+00 EUMP2 =    -0.15263783742986D+03
 CCSD(T)
 CCSD(T)= -0.15266440669D+03

 The electronic state is 1-A'.
 Alpha  occ. eigenvalues --  -20.59690 -20.49841  -1.37709  -1.27992  -0.74671
 Alpha  occ. eigenvalues --   -0.69596  -0.59308  -0.54551  -0.50440  -0.45015
 Alpha virt. eigenvalues --    0.11539   0.18030   0.19338   0.33409   0.47633
 Alpha virt. eigenvalues --    0.54069   0.58930   0.64336   0.69019   0.72365
 Alpha virt. eigenvalues --    0.72764   0.78153   0.81375   0.83119   0.84223

 Mulliken charges:
               1
     1  O   -0.601035
     2  H    0.310160
     3  H    0.235224
     4  O   -0.459352
     5  H    0.263600
     6  H    0.251402
 Sum of Mulliken charges =  -0.00000

 Dipole moment (field-independent basis, Debye):
    X=             -1.2196    Y=             -4.0817    Z=              0.0000  Tot=              4.2600
 Quadrupole moment (field-independent basis, Debye-Ang):
   XX=             -9.1371   YY=             -9.1939   ZZ=            -14.6973
   XY=             -3.2343   XZ=              0.0000   YZ=             -0.0000

 Normal termination of Gaussian 16 at Fri Aug 26 19:43:54 2022.
