 Gaussian 16, Revision A.03,
 Gaussian 16:  ES64L-G16RevA.03 25-Dec-2016

 ------------------
 #p CCSD(T)/cc-pVTZ
 ------------------

 ------------
 H2O_H2O_1328
 ------------
 Symbolic Z-matrix:
 Charge =  0 Multiplicity = 1

                         Standard orientation:
 ---------------------------------------------------------------------
 Center     Atomic      Atomic             Coordinates (Angstroms)
 Number     Number       Type             X           Y           Z
 ---------------------------------------------------------------------
      1          8           0        0.085611   -1.624504    0.000000
      2          1           0        0.085208   -0.641902    0.000000
      3          1           0       -0.843752   -1.943551    0.000000
      4          8           0        0.085611    1.474929    0.000000
      5          1           0        0.276912    2.438728    0.000000
      6          1           0       -0.888138    1.343322    0.000000
 ---------------------------------------------------------------------

 SCF Done:  E(RHF) =  -152.110356303     A.U. after   10 cycles
 E2 =    -0.5279561416D+00 EUMP2 =    -0.15263831244467D+03
 CCSD(T)
 CCSD(T)= -0.15266533999D+03

 The electronic state is 1-A'.
 Alpha  occ. eigenvalues --  -20.58139 -20.53679  -1.35535  -1.31101  -0.73222
 Alpha  occ. eigenvalues --   -0.68503  -0.59082  -0.54404  -0.52585  -0.48203
 Alpha virt. eigenvalues --    0.11598   0.16579   0.20088   0.29059   0.49231
 Alpha virt. eigenvalues --    0.54559   0.58041   0.58449   0.68714   0.73300
 Alpha virt. eigenvalues --    0.74679   0.77377   0.81154   0.81914   0.83618

 Mulliken charges:
               1
     1  O   -0.531079
     2  H    0.278232
     3  H    0.237800
     4  O   -0.475657
     5  H    0.245511
     6  H    0.245193
 Sum of Mulliken charges =  -0.00000

 Dipole moment (field-independent basis, Debye):
    X=             -2.8486    Y=              2.9816    Z=              0.0000  Tot=              4.1237
 Quadrupole moment (field-independent basis, Debye-Ang):
   XX=            -10.4474   YY=             -8.8128   ZZ=            -14.7146
   XY=              2.5836   XZ=              0.0000   YZ=              0.0000

 CCSD(T)=-152.66534\RMSD=7.345e-09\PG=CS [SG(H4O2)]\\@
 Normal termination of Gaussian 16 at Fri Aug 26 23:53:13 2022.
