 Gaussian 16, Revision A.03,
 Gaussian 16:  ES64L-G16RevA.03 25-Dec-2016

 ------------------
 #p CCSD(T)/cc-pVTZ
 ------------------

 ------------
 H2O_H2O_2099
 ------------
 Symbolic Z-matrix:
 Charge =  0 Multiplicity = 1

                         Standard orientation:
 ---------------------------------------------------------------------
 Center     Atomic      Atomic             Coordinates (Angstroms)
 Number     Number       Type             X           Y           Z
 ---------------------------------------------------------------------
      1          8           0       -0.013573    1.928926    0.000000
      2          1           0       -0.009929    0.946331    0.000000
      3          1           0        0.914731    2.251038    0.000000
      4          8           0       -0.013573   -1.769683    0.000000
      5          1           0       -0.996169   -1.773327    0.000000
      6          1           0        0.308538   -2.697988    0.000000
 ---------------------------------------------------------------------

 SCF Done:  E(RHF) =  -152.111539703     A.U. after   10 cycles
 E2 =    -0.5263179540D+00 EUMP2 =    -0.15263785765713D+03
 CCSD(T)
 CCSD(T)= -0.15266494495D+03

 The electronic state is 1-A'.
 Alpha  occ. eigenvalues --  -20.57201 -20.54141  -1.34480  -1.31487  -0.71914
 Alpha  occ. eigenvalues --   -0.68905  -0.58120  -0.54955  -0.51608  -0.48638
 Alpha virt. eigenvalues --    0.12168   0.16763   0.19269   0.25915   0.53230
 Alpha virt. eigenvalues --    0.54678   0.55974   0.58959   0.68656   0.72815
 Alpha virt. eigenvalues --    0.76470   0.78924   0.80334   0.83196   0.83458

 Mulliken charges:
               1
     1  O   -0.529031
     2  H    0.266084
     3  H    0.254654
     4  O   -0.510012
     5  H    0.260104
     6  H    0.258201
 Sum of Mulliken charges =   0.00000

 Dipole moment (field-independent basis, Debye):
    X=              0.4689    Y=             -2.9706    Z=              0.0000  Tot=              3.0074
 Quadrupole moment (field-independent basis, Debye-Ang):
   XX=             -9.6501   YY=             -8.3077   ZZ=            -14.7251
   XY=              5.2018   XZ=              0.0000   YZ=              0.0000

 Normal termination of Gaussian 16 at Sun Aug 28 04:18:26 2022.
