 Gaussian 16, Revision A.03,
 Gaussian 16:  ES64L-G16RevA.03 25-Dec-2016

 ------------------
 #p CCSD(T)/cc-pVTZ
 ------------------

 -----------
 H2O_H2O_246
 -----------
 Symbolic Z-matrix:
 Charge =  0 Multiplicity = 1

                         Standard orientation:
 ---------------------------------------------------------------------
 Center     Atomic      Atomic             Coordinates (Angstroms)
 Number     Number       Type             X           Y           Z
 ---------------------------------------------------------------------
      1          8           0       -0.023444    1.196995    0.000000
      2          1           0       -0.018121    0.214408    0.000000
      3          1           0        0.904309    1.520691    0.000000
      4          8           0       -0.023444   -1.026737    0.000000
      5          1           0       -0.986113   -1.223650    0.000000
      6          1           0        0.475029   -1.873513    0.000000
 ---------------------------------------------------------------------

 SCF Done:  E(RHF) =  -152.073293797     A.U. after   11 cycles
 E2 =    -0.5342657641D+00 EUMP2 =    -0.15260755956137D+03
 CCSD(T)
 CCSD(T)= -0.15263345929D+03

 The electronic state is 1-A'.
 Alpha  occ. eigenvalues --  -20.61122 -20.46531  -1.41229  -1.25865  -0.78833
 Alpha  occ. eigenvalues --   -0.72670  -0.57133  -0.56976  -0.46833  -0.42642
 Alpha virt. eigenvalues --    0.10955   0.17362   0.20372   0.33871   0.47224
 Alpha virt. eigenvalues --    0.52545   0.60195   0.68640   0.71087   0.71715
 Alpha virt. eigenvalues --    0.76882   0.78226   0.78884   0.84422   0.84607

 Mulliken charges:
               1
     1  O   -0.652012
     2  H    0.292337
     3  H    0.226878
     4  O   -0.363235
     5  H    0.261916
     6  H    0.234116
 Sum of Mulliken charges =  -0.00000

 Dipole moment (field-independent basis, Debye):
    X=              0.7318    Y=             -4.5172    Z=              0.0000  Tot=              4.5761
 Quadrupole moment (field-independent basis, Debye-Ang):
   XX=             -9.2782   YY=             -9.8151   ZZ=            -14.6068
   XY=              2.9464   XZ=              0.0000   YZ=              0.0000

 Normal termination of Gaussian 16 at Fri Aug 26 16:53:01 2022.
