 Gaussian 16, Revision A.03,
 Gaussian 16:  ES64L-G16RevA.03 25-Dec-2016

 ------------------
 #p CCSD(T)/cc-pVTZ
 ------------------

 ------------
 H2O_H2O_3519
 ------------
 Symbolic Z-matrix:
 Charge =  0 Multiplicity = 1

                         Standard orientation:
 ---------------------------------------------------------------------
 Center     Atomic      Atomic             Coordinates (Angstroms)
 Number     Number       Type             X           Y           Z
 ---------------------------------------------------------------------
      1          8           0        0.030175    2.506212   -0.000000
      2          1           0        0.027973    1.523613   -0.000000
      3          1           0       -0.898601    2.826962   -0.000000
      4          8           0        0.030175   -2.330596    0.000000
      5          1           0        0.959920   -2.648528    0.000000
      6          1           0       -0.572097   -3.106980    0.000000
 ---------------------------------------------------------------------

 SCF Done:  E(RHF) =  -152.109250784     A.U. after   10 cycles
 E2 =    -0.5258444690D+00 EUMP2 =    -0.15263509525330D+03
 CCSD(T)
 CCSD(T)= -0.15266226256D+03

 The electronic state is 1-A'.
 Alpha  occ. eigenvalues --  -20.56428 -20.54694  -1.33720  -1.32008  -0.71122
 Alpha  occ. eigenvalues --   -0.69410  -0.57242  -0.55493  -0.50845  -0.49140
 Alpha virt. eigenvalues --    0.12731   0.15529   0.19483   0.21895   0.53365
 Alpha virt. eigenvalues --    0.55202   0.56526   0.57992   0.66996   0.69305
 Alpha virt. eigenvalues --    0.78058   0.78855   0.79698   0.79954   0.83014

 Mulliken charges:
               1
     1  O   -0.517315
     2  H    0.262458
     3  H    0.253639
     4  O   -0.516097
     5  H    0.259047
     6  H    0.258267
 Sum of Mulliken charges =  -0.00000

 Dipole moment (field-independent basis, Debye):
    X=             -1.0324    Y=             -3.1234    Z=              0.0000  Tot=              3.2896
 Quadrupole moment (field-independent basis, Debye-Ang):
   XX=             -9.2296   YY=             -7.0533   ZZ=            -14.7178
   XY=             -5.8221   XZ=              0.0000   YZ=             -0.0000

 Normal termination of Gaussian 16 at Fri Aug 26 22:10:01 2022.
