 Gaussian 16, Revision A.03,
 Gaussian 16:  ES64L-G16RevA.03 25-Dec-2016

 ------------------
 #p CCSD(T)/cc-pVTZ
 ------------------

 -----------
 H2O_H2O_211
 -----------
 Symbolic Z-matrix:
 Charge =  0 Multiplicity = 1

                         Standard orientation:
 ---------------------------------------------------------------------
 Center     Atomic      Atomic             Coordinates (Angstroms)
 Number     Number       Type             X           Y           Z
 ---------------------------------------------------------------------
      1          8           0        0.059760    1.190829    0.000000
      2          1           0        0.057195    0.208231    0.000000
      3          1           0       -0.868898    1.511921    0.000000
      4          8           0        0.059760   -1.013544    0.000000
      5          1           0        0.705703   -1.753992    0.000000
      6          1           0       -0.850154   -1.384440    0.000000
 ---------------------------------------------------------------------

 SCF Done:  E(RHF) =  -152.070337925     A.U. after   11 cycles
 E2 =    -0.5346864056D+00 EUMP2 =    -0.15260502433078D+03
 CCSD(T)
 CCSD(T)= -0.15263087574D+03

 The electronic state is 1-A'.
 Alpha  occ. eigenvalues --  -20.61402 -20.46175  -1.41584  -1.25648  -0.78000
 Alpha  occ. eigenvalues --   -0.74828  -0.57300  -0.56128  -0.46614  -0.42341
 Alpha virt. eigenvalues --    0.10659   0.16607   0.20846   0.33002   0.47857
 Alpha virt. eigenvalues --    0.52455   0.62043   0.63887   0.71510   0.71560
 Alpha virt. eigenvalues --    0.78541   0.79352   0.80845   0.82878   0.85006

 Mulliken charges:
               1
     1  O   -0.641280
     2  H    0.299838
     3  H    0.207178
     4  O   -0.355901
     5  H    0.245846
     6  H    0.244319
 Sum of Mulliken charges =  -0.00000

 Dipole moment (field-independent basis, Debye):
    X=             -1.8428    Y=             -4.7111    Z=             -0.0000  Tot=              5.0587
 Quadrupole moment (field-independent basis, Debye-Ang):
   XX=             -9.3358   YY=             -9.9075   ZZ=            -14.6010
   XY=             -2.7637   XZ=             -0.0000   YZ=             -0.0000

 Normal termination of Gaussian 16 at Fri Aug 26 16:38:04 2022.
