 Gaussian 16, Revision A.03,
 Gaussian 16:  ES64L-G16RevA.03 25-Dec-2016

 ------------------
 #p CCSD(T)/cc-pVTZ
 ------------------

 ------------
 H2O_H2O_2844
 ------------
 Symbolic Z-matrix:
 Charge =  0 Multiplicity = 1

                         Standard orientation:
 ---------------------------------------------------------------------
 Center     Atomic      Atomic             Coordinates (Angstroms)
 Number     Number       Type             X           Y           Z
 ---------------------------------------------------------------------
      1          8           0        0.030200    2.236963    0.000000
      2          1           0        0.027721    1.254364    0.000000
      3          1           0       -0.898486    2.557973    0.000000
      4          8           0        0.030200   -2.061363   -0.000000
      5          1           0        0.959856   -2.379556   -0.000000
      6          1           0       -0.572290   -2.837578   -0.000000
 ---------------------------------------------------------------------

 SCF Done:  E(RHF) =  -152.110247886     A.U. after   10 cycles
 E2 =    -0.5259599440D+00 EUMP2 =    -0.15263620782987D+03
 CCSD(T)
 CCSD(T)= -0.15266333877D+03

 The electronic state is 1-A'.
 Alpha  occ. eigenvalues --  -20.56721 -20.54391  -1.33997  -1.31715  -0.71397
 Alpha  occ. eigenvalues --   -0.69116  -0.57558  -0.55207  -0.51129  -0.48855
 Alpha virt. eigenvalues --    0.12418   0.16104   0.19366   0.23184   0.53291
 Alpha virt. eigenvalues --    0.55575   0.56410   0.58585   0.68771   0.69403
 Alpha virt. eigenvalues --    0.77735   0.79052   0.79920   0.79974   0.83331

 Mulliken charges:
               1
     1  O   -0.521344
     2  H    0.264715
     3  H    0.252957
     4  O   -0.514196
     5  H    0.259864
     6  H    0.258004
 Sum of Mulliken charges =  -0.00000

 Dipole moment (field-independent basis, Debye):
    X=             -1.0301    Y=             -3.1772    Z=             -0.0000  Tot=              3.3400
 Quadrupole moment (field-independent basis, Debye-Ang):
   XX=             -9.2294   YY=             -7.4433   ZZ=            -14.7210
   XY=             -5.2379   XZ=             -0.0000   YZ=             -0.0000

 Normal termination of Gaussian 16 at Fri Aug 26 17:42:50 2022.
