 Gaussian 16, Revision A.03,
 Gaussian 16:  ES64L-G16RevA.03 25-Dec-2016

 ------------------
 #p CCSD(T)/cc-pVTZ
 ------------------

 ------------
 H2O_H2O_3049
 ------------
 Symbolic Z-matrix:
 Charge =  0 Multiplicity = 1

                         Standard orientation:
 ---------------------------------------------------------------------
 Center     Atomic      Atomic             Coordinates (Angstroms)
 Number     Number       Type             X           Y           Z
 ---------------------------------------------------------------------
      1          8           0       -0.013523    2.307866    0.000000
      2          1           0       -0.010498    1.325269    0.000000
      3          1           0        0.914985    2.629392    0.000000
      4          8           0       -0.013523   -2.148606    0.000000
      5          1           0       -0.996121   -2.151630    0.000000
      6          1           0        0.308003   -3.077113    0.000000
 ---------------------------------------------------------------------

 SCF Done:  E(RHF) =  -152.109644103     A.U. after   10 cycles
 E2 =    -0.5259129058D+00 EUMP2 =    -0.15263555700924D+03
 CCSD(T)
 CCSD(T)= -0.15266270872D+03

 The electronic state is 1-A'.
 Alpha  occ. eigenvalues --  -20.56598 -20.54701  -1.33888  -1.32019  -0.71299
 Alpha  occ. eigenvalues --   -0.69427  -0.57421  -0.55508  -0.51014  -0.49155
 Alpha virt. eigenvalues --    0.12245   0.15848   0.19214   0.23097   0.53765
 Alpha virt. eigenvalues --    0.55556   0.56404   0.58195   0.67916   0.69342
 Alpha virt. eigenvalues --    0.77873   0.78693   0.79686   0.80738   0.83102

 Mulliken charges:
               1
     1  O   -0.519551
     2  H    0.262315
     3  H    0.254993
     4  O   -0.515047
     5  H    0.258209
     6  H    0.259080
 Sum of Mulliken charges =  -0.00000

 Dipole moment (field-independent basis, Debye):
    X=              0.4661    Y=             -2.8588    Z=              0.0000  Tot=              2.8966
 Quadrupole moment (field-independent basis, Debye-Ang):
   XX=             -9.6481   YY=             -7.9689   ZZ=            -14.7188
   XY=              6.2385   XZ=              0.0000   YZ=              0.0000

 Normal termination of Gaussian 16 at Fri Aug 26 19:29:18 2022.
