 Gaussian 16, Revision A.03,
 Gaussian 16:  ES64L-G16RevA.03 25-Dec-2016

 ------------------
 #p CCSD(T)/cc-pVTZ
 ------------------

 ------------
 H2O_H2O_4249
 ------------
 Symbolic Z-matrix:
 Charge =  0 Multiplicity = 1

                         Standard orientation:
 ---------------------------------------------------------------------
 Center     Atomic      Atomic             Coordinates (Angstroms)
 Number     Number       Type             X           Y           Z
 ---------------------------------------------------------------------
      1          8           0       -0.013480    2.786524    0.000000
      2          1           0       -0.010990    1.803926    0.000000
      3          1           0        0.915203    3.107545    0.000000
      4          8           0       -0.013480   -2.627249    0.000000
      5          1           0       -0.996079   -2.629738    0.000000
      6          1           0        0.307541   -3.555932    0.000000
 ---------------------------------------------------------------------

 SCF Done:  E(RHF) =  -152.108534985     A.U. after   10 cycles
 E2 =    -0.5258035964D+00 EUMP2 =    -0.15263433858184D+03
 CCSD(T)
 CCSD(T)= -0.15266153288D+03

 The electronic state is 1-A'.
 Alpha  occ. eigenvalues --  -20.56227 -20.55044  -1.33529  -1.32352  -0.70936
 Alpha  occ. eigenvalues --   -0.69760  -0.57025  -0.55828  -0.50648  -0.49478
 Alpha virt. eigenvalues --    0.13006   0.15019   0.19283   0.21550   0.53292
 Alpha virt. eigenvalues --    0.55025   0.56645   0.57803   0.66740   0.68793
 Alpha virt. eigenvalues --    0.78240   0.79315   0.79378   0.80845   0.82571

 Mulliken charges:
               1
     1  O   -0.514793
     2  H    0.259557
     3  H    0.255035
     4  O   -0.515217
     5  H    0.257023
     6  H    0.258395
 Sum of Mulliken charges =  -0.00000

 Dipole moment (field-independent basis, Debye):
    X=              0.4642    Y=             -2.8004    Z=              0.0000  Tot=              2.8386
 Quadrupole moment (field-independent basis, Debye-Ang):
   XX=             -9.6481   YY=             -7.5584   ZZ=            -14.7151
   XY=              7.5487   XZ=              0.0000   YZ=              0.0000

 Normal termination of Gaussian 16 at Sun Aug 28 01:11:26 2022.
