 Gaussian 16, Revision A.03,
 Gaussian 16:  ES64L-G16RevA.03 25-Dec-2016

 ------------------
 #p CCSD(T)/cc-pVTZ
 ------------------

 -----------
 H2O_H2O_121
 -----------
 Symbolic Z-matrix:
 Charge =  0 Multiplicity = 1

                         Standard orientation:
 ---------------------------------------------------------------------
 Center     Atomic      Atomic             Coordinates (Angstroms)
 Number     Number       Type             X           Y           Z
 ---------------------------------------------------------------------
      1          8           0       -0.023466    1.147130    0.000000
      2          1           0       -0.017893    0.164544    0.000000
      3          1           0        0.904205    1.471063    0.000000
      4          8           0       -0.023466   -0.976884    0.000000
      5          1           0       -0.986084   -1.174042    0.000000
      6          1           0        0.475223   -1.823533    0.000000
 ---------------------------------------------------------------------

 SCF Done:  E(RHF) =  -152.050682280     A.U. after   11 cycles
 E2 =    -0.5355591892D+00 EUMP2 =    -0.15258624146924D+03
 CCSD(T)
 CCSD(T)= -0.15261187155D+03

 The electronic state is 1-A'.
 Alpha  occ. eigenvalues --  -20.61662 -20.45022  -1.43010  -1.24968  -0.80690
 Alpha  occ. eigenvalues --   -0.74178  -0.58043  -0.55916  -0.45171  -0.41599
 Alpha virt. eigenvalues --    0.10670   0.17004   0.20774   0.33582   0.47158
 Alpha virt. eigenvalues --    0.52003   0.60571   0.68799   0.71045   0.71087
 Alpha virt. eigenvalues --    0.76665   0.77727   0.80593   0.84562   0.86708

 Mulliken charges:
               1
     1  O   -0.672625
     2  H    0.283457
     3  H    0.220496
     4  O   -0.327660
     5  H    0.264060
     6  H    0.232272
 Sum of Mulliken charges =  -0.00000

 Dipole moment (field-independent basis, Debye):
    X=              0.7142    Y=             -4.7615    Z=              0.0000  Tot=              4.8147
 Quadrupole moment (field-independent basis, Debye-Ang):
   XX=             -9.2548   YY=            -10.0484   ZZ=            -14.5668
   XY=              2.8073   XZ=              0.0000   YZ=              0.0000

 Normal termination of Gaussian 16 at Fri Aug 26 15:59:57 2022.
