 Gaussian 16, Revision A.03,
 Gaussian 16:  ES64L-G16RevA.03 25-Dec-2016

 ------------------
 #p CCSD(T)/cc-pVTZ
 ------------------

 ------------
 H2O_H2O_2691
 ------------
 Symbolic Z-matrix:
 Charge =  0 Multiplicity = 1

                         Standard orientation:
 ---------------------------------------------------------------------
 Center     Atomic      Atomic             Coordinates (Angstroms)
 Number     Number       Type             X           Y           Z
 ---------------------------------------------------------------------
      1          8           0        0.041156    2.179471    0.000000
      2          1           0        0.039051    1.196872    0.000000
      3          1           0       -0.887653    2.500128   -0.000000
      4          8           0        0.041156   -1.999560    0.000000
      5          1           0        0.891059   -2.492682    0.000000
      6          1           0       -0.700946   -2.643604   -0.000000
 ---------------------------------------------------------------------

 SCF Done:  E(RHF) =  -152.110551341     A.U. after   10 cycles
 E2 =    -0.5260140232D+00 EUMP2 =    -0.15263656536370D+03
 CCSD(T)
 CCSD(T)= -0.15266368528D+03

 The electronic state is 1-A'.
 Alpha  occ. eigenvalues --  -20.56819 -20.54248  -1.34087  -1.31576  -0.71484
 Alpha  occ. eigenvalues --   -0.68973  -0.57663  -0.55066  -0.51221  -0.48718
 Alpha virt. eigenvalues --    0.12409   0.16260   0.19369   0.23539   0.52937
 Alpha virt. eigenvalues --    0.55593   0.56350   0.58854   0.69064   0.69808
 Alpha virt. eigenvalues --    0.77599   0.78951   0.80013   0.80112   0.83502

 Mulliken charges:
               1
     1  O   -0.522056
     2  H    0.265755
     3  H    0.251563
     4  O   -0.512874
     5  H    0.260347
     6  H    0.257266
 Sum of Mulliken charges =  -0.00000

 Dipole moment (field-independent basis, Debye):
    X=             -1.4007    Y=             -3.2742    Z=             -0.0000  Tot=              3.5612
 Quadrupole moment (field-independent basis, Debye-Ang):
   XX=             -9.1494   YY=             -7.3997   ZZ=            -14.7220
   XY=             -4.7131   XZ=             -0.0000   YZ=             -0.0000

 Normal termination of Gaussian 16 at Fri Aug 26 16:35:42 2022.
