 Gaussian 16, Revision A.03,
 Gaussian 16:  ES64L-G16RevA.03 25-Dec-2016

 ------------------
 #p CCSD(T)/cc-pVTZ
 ------------------

 ------------
 H2O_H2O_2060
 ------------
 Symbolic Z-matrix:
 Charge =  0 Multiplicity = 1

                         Standard orientation:
 ---------------------------------------------------------------------
 Center     Atomic      Atomic             Coordinates (Angstroms)
 Number     Number       Type             X           Y           Z
 ---------------------------------------------------------------------
      1          8           0        0.063259    1.927761    0.000000
      2          1           0        0.061888    0.945160    0.000000
      3          1           0       -0.865789    2.247723    0.000000
      4          8           0        0.063259   -1.752286   -0.000000
      5          1           0        0.660341   -2.532669   -0.000000
      6          1           0       -0.868585   -2.064010   -0.000000
 ---------------------------------------------------------------------

 SCF Done:  E(RHF) =  -152.111628576     A.U. after   10 cycles
 E2 =    -0.5264256791D+00 EUMP2 =    -0.15263805425550D+03
 CCSD(T)
 CCSD(T)= -0.15266513135D+03

 The electronic state is 1-A'.
 Alpha  occ. eigenvalues --  -20.57303 -20.53871  -1.34560  -1.31220  -0.71959
 Alpha  occ. eigenvalues --   -0.68625  -0.58206  -0.54674  -0.51692  -0.48363
 Alpha virt. eigenvalues --    0.12103   0.16750   0.19298   0.25798   0.51700
 Alpha virt. eigenvalues --    0.55483   0.56155   0.58753   0.68959   0.72275
 Alpha virt. eigenvalues --    0.76418   0.78029   0.80566   0.83428   0.83909

 Mulliken charges:
               1
     1  O   -0.525534
     2  H    0.268552
     3  H    0.247025
     4  O   -0.506584
     5  H    0.261252
     6  H    0.255289
 Sum of Mulliken charges =  -0.00000

 Dipole moment (field-independent basis, Debye):
    X=             -2.1391    Y=             -3.2877    Z=             -0.0000  Tot=              3.9223
 Quadrupole moment (field-independent basis, Debye-Ang):
   XX=             -9.4665   YY=             -7.9282   ZZ=            -14.7261
   XY=             -3.6593   XZ=             -0.0000   YZ=              0.0000

 Normal termination of Gaussian 16 at Sun Aug 28 03:58:49 2022.
