 Gaussian 16, Revision A.03,
 Gaussian 16:  ES64L-G16RevA.03 25-Dec-2016

 ------------------
 #p CCSD(T)/cc-pVTZ
 ------------------

 ------------
 H2O_H2O_1334
 ------------
 Symbolic Z-matrix:
 Charge =  0 Multiplicity = 1

                         Standard orientation:
 ---------------------------------------------------------------------
 Center     Atomic      Atomic             Coordinates (Angstroms)
 Number     Number       Type             X           Y           Z
 ---------------------------------------------------------------------
      1          8           0        0.066800    1.637255    0.000000
      2          1           0        0.065367    0.654654    0.000000
      3          1           0       -0.862227    1.957276   -0.000000
      4          8           0        0.066800   -1.464212    0.000000
      5          1           0        0.611512   -2.282011    0.000000
      6          1           0       -0.883453   -1.714263   -0.000000
 ---------------------------------------------------------------------

 SCF Done:  E(RHF) =  -152.113044166     A.U. after   10 cycles
 E2 =    -0.5276466701D+00 EUMP2 =    -0.15264069083659D+03
 CCSD(T)
 CCSD(T)= -0.15266766759D+03

 The electronic state is 1-A'.
 Alpha  occ. eigenvalues --  -20.58196 -20.52864  -1.35536  -1.30339  -0.72929
 Alpha  occ. eigenvalues --   -0.68086  -0.59253  -0.53615  -0.52636  -0.47468
 Alpha virt. eigenvalues --    0.11845   0.17235   0.19340   0.29721   0.49035
 Alpha virt. eigenvalues --    0.54972   0.57128   0.59071   0.69784   0.73138
 Alpha virt. eigenvalues --    0.73639   0.76547   0.81683   0.82668   0.84506

 Mulliken charges:
               1
     1  O   -0.542160
     2  H    0.282495
     3  H    0.240587
     4  O   -0.494911
     5  H    0.259244
     6  H    0.254745
 Sum of Mulliken charges =  -0.00000

 Dipole moment (field-independent basis, Debye):
    X=             -2.2266    Y=             -3.4551    Z=             -0.0000  Tot=              4.1104
 Quadrupole moment (field-independent basis, Debye-Ang):
   XX=             -9.5844   YY=             -8.4795   ZZ=            -14.7293
   XY=             -3.2677   XZ=              0.0000   YZ=             -0.0000

 CCSD(T)=-152.6676676\RMSD=7.011e-09\PG=CS [SG(H4O2)]\\@
 Normal termination of Gaussian 16 at Fri Aug 26 23:55:33 2022.
