 Gaussian 16, Revision A.03,
 Gaussian 16:  ES64L-G16RevA.03 25-Dec-2016

 ------------------
 #p CCSD(T)/cc-pVTZ
 ------------------

 ------------
 H2O_H2O_2367
 ------------
 Symbolic Z-matrix:
 Charge =  0 Multiplicity = 1

                         Standard orientation:
 ---------------------------------------------------------------------
 Center     Atomic      Atomic             Coordinates (Angstroms)
 Number     Number       Type             X           Y           Z
 ---------------------------------------------------------------------
      1          8           0        0.037476    2.049310   -0.000000
      2          1           0        0.035072    1.066711   -0.000000
      3          1           0       -0.891235    2.370249   -0.000000
      4          8           0        0.037476   -1.870370    0.000000
      5          1           0        0.917679   -2.307119    0.000000
      6          1           0       -0.661124   -2.561358    0.000000
 ---------------------------------------------------------------------

 SCF Done:  E(RHF) =  -152.111353637     A.U. after   10 cycles
 E2 =    -0.5261445796D+00 EUMP2 =    -0.15263749821695D+03
 CCSD(T)
 CCSD(T)= -0.15266459319D+03

 The electronic state is 1-A'.
 Alpha  occ. eigenvalues --  -20.57036 -20.54024  -1.34295  -1.31363  -0.71687
 Alpha  occ. eigenvalues --   -0.68768  -0.57917  -0.54848  -0.51433  -0.48511
 Alpha virt. eigenvalues --    0.12325   0.16609   0.19267   0.24682   0.52600
 Alpha virt. eigenvalues --    0.55415   0.56436   0.58877   0.69045   0.71327
 Alpha virt. eigenvalues --    0.77153   0.78481   0.80346   0.81918   0.83650

 Mulliken charges:
               1
     1  O   -0.525627
     2  H    0.267123
     3  H    0.251227
     4  O   -0.510860
     5  H    0.260799
     6  H    0.257339
 Sum of Mulliken charges =  -0.00000

 Dipole moment (field-independent basis, Debye):
    X=             -1.2728    Y=             -3.3007    Z=              0.0000  Tot=              3.5376
 Quadrupole moment (field-independent basis, Debye-Ang):
   XX=             -9.1596   YY=             -7.6413   ZZ=            -14.7247
   XY=             -4.5924   XZ=              0.0000   YZ=              0.0000

 Normal termination of Gaussian 16 at Sun Aug 28 06:42:51 2022.
