 Gaussian 16, Revision A.03,
 Gaussian 16:  ES64L-G16RevA.03 25-Dec-2016

 ------------------
 #p CCSD(T)/cc-pVTZ
 ------------------

 ------------
 H2O_H2O_1753
 ------------
 Symbolic Z-matrix:
 Charge =  0 Multiplicity = 1

                         Standard orientation:
 ---------------------------------------------------------------------
 Center     Atomic      Atomic             Coordinates (Angstroms)
 Number     Number       Type             X           Y           Z
 ---------------------------------------------------------------------
      1          8           0        0.085608   -1.794030    0.000000
      2          1           0        0.085245   -0.811429    0.000000
      3          1           0       -0.843768   -2.113039    0.000000
      4          8           0        0.085608    1.644448    0.000000
      5          1           0        0.276948    2.608240    0.000000
      6          1           0       -0.888145    1.512881    0.000000
 ---------------------------------------------------------------------

 SCF Done:  E(RHF) =  -152.110313325     A.U. after   10 cycles
 E2 =    -0.5269735876D+00 EUMP2 =    -0.15263728691295D+03
 CCSD(T)
 CCSD(T)= -0.15266437372D+03

 The electronic state is 1-A'.
 Alpha  occ. eigenvalues --  -20.57575 -20.54239  -1.34877  -1.31584  -0.72405
 Alpha  occ. eigenvalues --   -0.68930  -0.58447  -0.54988  -0.51973  -0.48702
 Alpha virt. eigenvalues --    0.11656   0.16429   0.19938   0.26741   0.50819
 Alpha virt. eigenvalues --    0.55343   0.57142   0.57786   0.68667   0.74336
 Alpha virt. eigenvalues --    0.75174   0.77984   0.80466   0.82806   0.83480

 Mulliken charges:
               1
     1  O   -0.521841
     2  H    0.269802
     3  H    0.242712
     4  O   -0.495968
     5  H    0.256488
     6  H    0.248807
 Sum of Mulliken charges =  -0.00000

 Dipole moment (field-independent basis, Debye):
    X=             -2.8764    Y=              2.8510    Z=              0.0000  Tot=              4.0499
 Quadrupole moment (field-independent basis, Debye-Ang):
   XX=            -10.4367   YY=             -8.6786   ZZ=            -14.7194
   XY=              2.6419   XZ=              0.0000   YZ=              0.0000

 Normal termination of Gaussian 16 at Sun Aug 28 01:18:31 2022.
