 Gaussian 16, Revision A.03,
 Gaussian 16:  ES64L-G16RevA.03 25-Dec-2016

 ------------------
 #p CCSD(T)/cc-pVTZ
 ------------------

 ------------
 H2O_H2O_2676
 ------------
 Symbolic Z-matrix:
 Charge =  0 Multiplicity = 1

                         Standard orientation:
 ---------------------------------------------------------------------
 Center     Atomic      Atomic             Coordinates (Angstroms)
 Number     Number       Type             X           Y           Z
 ---------------------------------------------------------------------
      1          8           0        0.090685   -2.157084    0.000000
      2          1           0        0.090593   -1.174482    0.000000
      3          1           0       -0.838778   -2.475837    0.000000
      4          8           0        0.090685    2.018377    0.000000
      5          1           0        0.154858    2.998881    0.000000
      6          1           0       -0.857636    1.761096    0.000000
 ---------------------------------------------------------------------

 SCF Done:  E(RHF) =  -152.108507859     A.U. after   10 cycles
 E2 =    -0.5261936941D+00 EUMP2 =    -0.15263470155334D+03
 CCSD(T)
 CCSD(T)= -0.15266186635D+03

 The electronic state is 1-A'.
 Alpha  occ. eigenvalues --  -20.56818 -20.54985  -1.34108  -1.32289  -0.71554
 Alpha  occ. eigenvalues --   -0.69658  -0.57588  -0.55739  -0.51216  -0.49404
 Alpha virt. eigenvalues --    0.11543   0.15781   0.19638   0.23695   0.54005
 Alpha virt. eigenvalues --    0.55241   0.56486   0.58033   0.68480   0.69852
 Alpha virt. eigenvalues --    0.77570   0.78682   0.79501   0.80605   0.82950

 Mulliken charges:
               1
     1  O   -0.512399
     2  H    0.261970
     3  H    0.248071
     4  O   -0.506370
     5  H    0.259484
     6  H    0.249244
 Sum of Mulliken charges =  -0.00000

 Dipole moment (field-independent basis, Debye):
    X=             -3.0802    Y=              2.5131    Z=              0.0000  Tot=              3.9753
 Quadrupole moment (field-independent basis, Debye-Ang):
   XX=            -10.7188   YY=             -8.9351   ZZ=            -14.7140
   XY=              2.3520   XZ=              0.0000   YZ=              0.0000

 Normal termination of Gaussian 16 at Fri Aug 26 16:29:22 2022.
