 Gaussian 16, Revision A.03,
 Gaussian 16:  ES64L-G16RevA.03 25-Dec-2016

 ------------------
 #p CCSD(T)/cc-pVTZ
 ------------------

 ------------
 H2O_H2O_2922
 ------------
 Symbolic Z-matrix:
 Charge =  0 Multiplicity = 1

                         Standard orientation:
 ---------------------------------------------------------------------
 Center     Atomic      Atomic             Coordinates (Angstroms)
 Number     Number       Type             X           Y           Z
 ---------------------------------------------------------------------
      1          8           0       -0.019870    2.262263    0.000000
      2          1           0       -0.017023    1.279666    0.000000
      3          1           0        0.908696    2.583621    0.000000
      4          8           0       -0.019870   -2.095163    0.000000
      5          1           0       -0.993690   -2.226241    0.000000
      6          1           0        0.419941   -2.973840    0.000000
 ---------------------------------------------------------------------

 SCF Done:  E(RHF) =  -152.109985888     A.U. after   10 cycles
 E2 =    -0.5259388409D+00 EUMP2 =    -0.15263592472913D+03
 CCSD(T)
 CCSD(T)= -0.15266306453D+03

 The electronic state is 1-A'.
 Alpha  occ. eigenvalues --  -20.56667 -20.54542  -1.33951  -1.31863  -0.71356
 Alpha  occ. eigenvalues --   -0.69269  -0.57499  -0.55355  -0.51079  -0.49002
 Alpha virt. eigenvalues --    0.12328   0.15994   0.19297   0.23162   0.53641
 Alpha virt. eigenvalues --    0.55574   0.56409   0.58368   0.68380   0.69392
 Alpha virt. eigenvalues --    0.77794   0.78910   0.79834   0.80378   0.83213

 Mulliken charges:
               1
     1  O   -0.520754
     2  H    0.263580
     3  H    0.254179
     4  O   -0.514689
     5  H    0.259079
     6  H    0.258606
 Sum of Mulliken charges =  -0.00000

 Dipole moment (field-independent basis, Debye):
    X=              0.6805    Y=             -3.0130    Z=              0.0000  Tot=              3.0889
 Quadrupole moment (field-independent basis, Debye-Ang):
   XX=             -9.4468   YY=             -7.7075   ZZ=            -14.7200
   XY=              5.7659   XZ=              0.0000   YZ=              0.0000

 Normal termination of Gaussian 16 at Fri Aug 26 18:22:51 2022.
