 Gaussian 16, Revision A.03,
 Gaussian 16:  ES64L-G16RevA.03 25-Dec-2016

 ------------------
 #p CCSD(T)/cc-pVTZ
 ------------------

 -----------
 H2O_H2O_498
 -----------
 Symbolic Z-matrix:
 Charge =  0 Multiplicity = 1

                         Standard orientation:
 ---------------------------------------------------------------------
 Center     Atomic      Atomic             Coordinates (Angstroms)
 Number     Number       Type             X           Y           Z
 ---------------------------------------------------------------------
      1          8           0        0.016833   -1.292937    0.000000
      2          1           0        0.011486   -0.310350    0.000000
      3          1           0       -0.910912   -1.616656    0.000000
      4          8           0        0.016833    1.129631    0.000000
      5          1           0        0.996967    1.199231    0.000000
      6          1           0       -0.366870    2.034218    0.000000
 ---------------------------------------------------------------------

 SCF Done:  E(RHF) =  -152.096951126     A.U. after   11 cycles
 E2 =    -0.5320246369D+00 EUMP2 =    -0.15262897576255D+03
 CCSD(T)
 CCSD(T)= -0.15265534228D+03

 The electronic state is 1-A'.
 Alpha  occ. eigenvalues --  -20.60093 -20.49230  -1.38806  -1.27661  -0.76798
 Alpha  occ. eigenvalues --   -0.69382  -0.59289  -0.55273  -0.49690  -0.44641
 Alpha virt. eigenvalues --    0.11496   0.17982   0.19618   0.34043   0.47744
 Alpha virt. eigenvalues --    0.53224   0.58473   0.68228   0.70390   0.72096
 Alpha virt. eigenvalues --    0.74598   0.76644   0.78854   0.83855   0.84393

 Mulliken charges:
               1
     1  O   -0.618703
     2  H    0.296071
     3  H    0.240677
     4  O   -0.410093
     5  H    0.258805
     6  H    0.233243
 Sum of Mulliken charges =  -0.00000

 Dipole moment (field-independent basis, Debye):
    X=             -0.5494    Y=              3.9573    Z=              0.0000  Tot=              3.9952
 Quadrupole moment (field-independent basis, Debye-Ang):
   XX=             -9.4870   YY=             -9.3970   ZZ=            -14.6591
   XY=              3.3397   XZ=              0.0000   YZ=              0.0000

 Normal termination of Gaussian 16 at Fri Aug 26 18:39:54 2022.
