 Gaussian 16, Revision A.03,
 Gaussian 16:  ES64L-G16RevA.03 25-Dec-2016

 ------------------
 #p CCSD(T)/cc-pVTZ
 ------------------

 ------------
 H2O_H2O_1931
 ------------
 Symbolic Z-matrix:
 Charge =  0 Multiplicity = 1

                         Standard orientation:
 ---------------------------------------------------------------------
 Center     Atomic      Atomic             Coordinates (Angstroms)
 Number     Number       Type             X           Y           Z
 ---------------------------------------------------------------------
      1          8           0        0.076772    1.871223   -0.000000
      2          1           0        0.076004    0.888621   -0.000000
      3          1           0       -0.852472    2.190615   -0.000000
      4          8           0        0.076772   -1.708039    0.000000
      5          1           0        0.452088   -2.616138    0.000000
      6          1           0       -0.903964   -1.768565    0.000000
 ---------------------------------------------------------------------

 SCF Done:  E(RHF) =  -152.111036194     A.U. after   10 cycles
 E2 =    -0.5266354479D+00 EUMP2 =    -0.15263767164163D+03
 CCSD(T)
 CCSD(T)= -0.15266475303D+03

 The electronic state is 1-A'.
 Alpha  occ. eigenvalues --  -20.57409 -20.54053  -1.34683  -1.31398  -0.72125
 Alpha  occ. eigenvalues --   -0.68785  -0.58295  -0.54830  -0.51801  -0.48530
 Alpha virt. eigenvalues --    0.11870   0.16577   0.19556   0.26128   0.51353
 Alpha virt. eigenvalues --    0.55619   0.56374   0.58196   0.68998   0.73115
 Alpha virt. eigenvalues --    0.75960   0.78314   0.80492   0.83244   0.83561

 Mulliken charges:
               1
     1  O   -0.523029
     2  H    0.268436
     3  H    0.244873
     4  O   -0.502840
     5  H    0.259852
     6  H    0.252708
 Sum of Mulliken charges =  -0.00000

 Dipole moment (field-independent basis, Debye):
    X=             -2.5896    Y=             -3.0762    Z=              0.0000  Tot=              4.0211
 Quadrupole moment (field-independent basis, Debye-Ang):
   XX=             -9.9744   YY=             -8.2823   ZZ=            -14.7236
   XY=             -3.1201   XZ=              0.0000   YZ=             -0.0000

 Normal termination of Gaussian 16 at Sun Aug 28 02:52:43 2022.
