 Gaussian 16, Revision A.03,
 Gaussian 16:  ES64L-G16RevA.03 25-Dec-2016

 ------------------
 #p CCSD(T)/cc-pVTZ
 ------------------

 -----------
 H2O_H2O_924
 -----------
 Symbolic Z-matrix:
 Charge =  0 Multiplicity = 1

                         Standard orientation:
 ---------------------------------------------------------------------
 Center     Atomic      Atomic             Coordinates (Angstroms)
 Number     Number       Type             X           Y           Z
 ---------------------------------------------------------------------
      1          8           0        0.013674   -1.460232    0.000000
      2          1           0        0.008792   -0.477643    0.000000
      3          1           0       -0.914225   -1.783513    0.000000
      4          8           0        0.013674    1.301023    0.000000
      5          1           0        0.996262    1.305904    0.000000
      6          1           0       -0.309607    2.228922    0.000000
 ---------------------------------------------------------------------

 SCF Done:  E(RHF) =  -152.110724096     A.U. after   10 cycles
 E2 =    -0.5290948877D+00 EUMP2 =    -0.15263981898383D+03
 CCSD(T)
 CCSD(T)= -0.15266664073D+03

 The electronic state is 1-A'.
 Alpha  occ. eigenvalues --  -20.58879 -20.51838  -1.36572  -1.29570  -0.74359
 Alpha  occ. eigenvalues --   -0.67842  -0.60027  -0.53526  -0.52472  -0.46678
 Alpha virt. eigenvalues --    0.11960   0.18144   0.19080   0.32480   0.48766
 Alpha virt. eigenvalues --    0.54262   0.56244   0.64296   0.68298   0.72326
 Alpha virt. eigenvalues --    0.74572   0.76273   0.80849   0.82810   0.84170

 Mulliken charges:
               1
     1  O   -0.576116
     2  H    0.289747
     3  H    0.250525
     4  O   -0.459892
     5  H    0.259067
     6  H    0.236669
 Sum of Mulliken charges =  -0.00000

 Dipole moment (field-independent basis, Debye):
    X=             -0.4665    Y=              3.4260    Z=              0.0000  Tot=              3.4576
 Quadrupole moment (field-independent basis, Debye-Ang):
   XX=             -9.6310   YY=             -8.9521   ZZ=            -14.7085
   XY=              3.9045   XZ=              0.0000   YZ=              0.0000

 Normal termination of Gaussian 16 at Fri Aug 26 21:22:15 2022.
