 Gaussian 16, Revision A.03,
 Gaussian 16:  ES64L-G16RevA.03 25-Dec-2016

 ------------------
 #p CCSD(T)/cc-pVTZ
 ------------------

 ------------
 H2O_H2O_1364
 ------------
 Symbolic Z-matrix:
 Charge =  0 Multiplicity = 1

                         Standard orientation:
 ---------------------------------------------------------------------
 Center     Atomic      Atomic             Coordinates (Angstroms)
 Number     Number       Type             X           Y           Z
 ---------------------------------------------------------------------
      1          8           0        0.048651    1.651181    0.000000
      2          1           0        0.046239    0.668582    0.000000
      3          1           0       -0.880056    1.972128    0.000000
      4          8           0        0.048651   -1.470866   -0.000000
      5          1           0        0.826730   -2.070948   -0.000000
      6          1           0       -0.771336   -2.012279   -0.000000
 ---------------------------------------------------------------------

 SCF Done:  E(RHF) =  -152.114087002     A.U. after   10 cycles
 E2 =    -0.5274565439D+00 EUMP2 =    -0.15264154354552D+03
 CCSD(T)
 CCSD(T)= -0.15266851275D+03

 The electronic state is 1-A'.
 Alpha  occ. eigenvalues --  -20.58166 -20.52629  -1.35480  -1.30118  -0.72793
 Alpha  occ. eigenvalues --   -0.67938  -0.59285  -0.53399  -0.52601  -0.47262
 Alpha virt. eigenvalues --    0.12000   0.17725   0.18959   0.29851   0.49442
 Alpha virt. eigenvalues --    0.54729   0.56126   0.59839   0.69115   0.71734
 Alpha virt. eigenvalues --    0.73793   0.76873   0.81807   0.82889   0.84930

 Mulliken charges:
               1
     1  O   -0.547049
     2  H    0.282624
     3  H    0.244322
     4  O   -0.504416
     5  H    0.265696
     6  H    0.258824
 Sum of Mulliken charges =  -0.00000

 Dipole moment (field-independent basis, Debye):
    X=             -1.6249    Y=             -3.5926    Z=             -0.0000  Tot=              3.9430
 Quadrupole moment (field-independent basis, Debye-Ang):
   XX=             -9.1879   YY=             -8.3912   ZZ=            -14.7349
   XY=             -3.6305   XZ=             -0.0000   YZ=             -0.0000

 Normal termination of Gaussian 16 at Sat Aug 27 00:08:01 2022.
