 Gaussian 16, Revision A.03,
 Gaussian 16:  ES64L-G16RevA.03 25-Dec-2016

 ------------------
 #p CCSD(T)/cc-pVTZ
 ------------------

 ------------
 H2O_H2O_2883
 ------------
 Symbolic Z-matrix:
 Charge =  0 Multiplicity = 1

                         Standard orientation:
 ---------------------------------------------------------------------
 Center     Atomic      Atomic             Coordinates (Angstroms)
 Number     Number       Type             X           Y           Z
 ---------------------------------------------------------------------
      1          8           0        0.070202    2.253989    0.000000
      2          1           0        0.069311    1.271388    0.000000
      3          1           0       -0.859002    2.573497    0.000000
      4          8           0        0.070202   -2.083749    0.000000
      5          1           0        0.560731   -2.935152    0.000000
      6          1           0       -0.894267   -2.271648    0.000000
 ---------------------------------------------------------------------

 SCF Done:  E(RHF) =  -152.109533038     A.U. after   10 cycles
 E2 =    -0.5260183044D+00 EUMP2 =    -0.15263555134194D+03
 CCSD(T)
 CCSD(T)= -0.15266269626D+03

 The electronic state is 1-A'.
 Alpha  occ. eigenvalues --  -20.56715 -20.54544  -1.33994  -1.31861  -0.71405
 Alpha  occ. eigenvalues --   -0.69246  -0.57521  -0.55336  -0.51118  -0.48990
 Alpha virt. eigenvalues --    0.12230   0.15923   0.19433   0.22915   0.53530
 Alpha virt. eigenvalues --    0.55341   0.56259   0.58616   0.68484   0.69360
 Alpha virt. eigenvalues --    0.77757   0.78980   0.79852   0.80052   0.83116

 Mulliken charges:
               1
     1  O   -0.516933
     2  H    0.264016
     3  H    0.249727
     4  O   -0.511522
     5  H    0.260020
     6  H    0.254691
 Sum of Mulliken charges =  -0.00000

 Dipole moment (field-independent basis, Debye):
    X=             -2.3907    Y=             -3.0749    Z=              0.0000  Tot=              3.8950
 Quadrupole moment (field-independent basis, Debye-Ang):
   XX=             -9.6866   YY=             -7.6198   ZZ=            -14.7184
   XY=             -3.6831   XZ=              0.0000   YZ=              0.0000

 Normal termination of Gaussian 16 at Fri Aug 26 18:00:37 2022.
