 Gaussian 16, Revision A.03,
 Gaussian 16:  ES64L-G16RevA.03 25-Dec-2016

 ------------------
 #p CCSD(T)/cc-pVTZ
 ------------------

 ------------
 H2O_H2O_1390
 ------------
 Symbolic Z-matrix:
 Charge =  0 Multiplicity = 1

                         Standard orientation:
 ---------------------------------------------------------------------
 Center     Atomic      Atomic             Coordinates (Angstroms)
 Number     Number       Type             X           Y           Z
 ---------------------------------------------------------------------
      1          8           0        0.044931    1.661160   -0.000000
      2          1           0        0.042333    0.678562   -0.000000
      3          1           0       -0.883716    1.982283   -0.000000
      4          8           0        0.044931   -1.480832    0.000000
      5          1           0        0.860488   -2.028895    0.000000
      6          1           0       -0.738003   -2.074568    0.000000
 ---------------------------------------------------------------------

 SCF Done:  E(RHF) =  -152.114137885     A.U. after   10 cycles
 E2 =    -0.5273769981D+00 EUMP2 =    -0.15264151488311D+03
 CCSD(T)
 CCSD(T)= -0.15266848900D+03

 The electronic state is 1-A'.
 Alpha  occ. eigenvalues --  -20.58122 -20.52673  -1.35430  -1.30155  -0.72747
 Alpha  occ. eigenvalues --   -0.67941  -0.59249  -0.53448  -0.52554  -0.47302
 Alpha virt. eigenvalues --    0.12032   0.17767   0.18918   0.29713   0.49632
 Alpha virt. eigenvalues --    0.54627   0.56039   0.59953   0.68959   0.71795
 Alpha virt. eigenvalues --    0.73889   0.76907   0.81762   0.82923   0.84922

 Mulliken charges:
               1
     1  O   -0.546761
     2  H    0.281625
     3  H    0.245352
     4  O   -0.505165
     5  H    0.265854
     6  H    0.259096
 Sum of Mulliken charges =  -0.00000

 Dipole moment (field-independent basis, Debye):
    X=             -1.5023    Y=             -3.5822    Z=              0.0000  Tot=              3.8845
 Quadrupole moment (field-independent basis, Debye-Ang):
   XX=             -9.1604   YY=             -8.3679   ZZ=            -14.7354
   XY=             -3.7080   XZ=              0.0000   YZ=             -0.0000

 Normal termination of Gaussian 16 at Sat Aug 27 00:17:40 2022.
