 Gaussian 16, Revision A.03,
 Gaussian 16:  ES64L-G16RevA.03 25-Dec-2016

 ------------------
 #p CCSD(T)/cc-pVTZ
 ------------------

 -----------
 H2O_H2O_945
 -----------
 Symbolic Z-matrix:
 Charge =  0 Multiplicity = 1

                         Standard orientation:
 ---------------------------------------------------------------------
 Center     Atomic      Atomic             Coordinates (Angstroms)
 Number     Number       Type             X           Y           Z
 ---------------------------------------------------------------------
      1          8           0        0.026794    1.477768    0.000000
      2          1           0        0.022750    0.495175    0.000000
      3          1           0       -0.901380    1.800257    0.000000
      4          8           0        0.026794   -1.304628   -0.000000
      5          1           0        0.974860   -1.562848   -0.000000
      6          1           0       -0.524935   -2.117708   -0.000000
 ---------------------------------------------------------------------

 SCF Done:  E(RHF) =  -152.112478675     A.U. after   10 cycles
 E2 =    -0.5288683279D+00 EUMP2 =    -0.15264134700268D+03
 CCSD(T)
 CCSD(T)= -0.15266815547D+03

 The electronic state is 1-A'.
 Alpha  occ. eigenvalues --  -20.58916 -20.51452  -1.36514  -1.29204  -0.73872
 Alpha  occ. eigenvalues --   -0.68088  -0.59860  -0.53528  -0.52119  -0.46312
 Alpha virt. eigenvalues --    0.11885   0.18483   0.18677   0.32351   0.48563
 Alpha virt. eigenvalues --    0.54586   0.56518   0.63482   0.68304   0.72585
 Alpha virt. eigenvalues --    0.72915   0.77240   0.81720   0.82897   0.84404

 Mulliken charges:
               1
     1  O   -0.576254
     2  H    0.296130
     3  H    0.245246
     4  O   -0.477831
     5  H    0.263970
     6  H    0.248739
 Sum of Mulliken charges =  -0.00000

 Dipole moment (field-independent basis, Debye):
    X=             -0.8888    Y=             -3.7001    Z=             -0.0000  Tot=              3.8054
 Quadrupole moment (field-independent basis, Debye-Ang):
   XX=             -9.2757   YY=             -8.8537   ZZ=            -14.7189
   XY=             -3.6192   XZ=             -0.0000   YZ=             -0.0000

 Normal termination of Gaussian 16 at Fri Aug 26 21:29:35 2022.
