 Gaussian 16, Revision A.03,
 Gaussian 16:  ES64L-G16RevA.03 25-Dec-2016

 ------------------
 #p CCSD(T)/cc-pVTZ
 ------------------

 ------------
 H2O_H2O_1519
 ------------
 Symbolic Z-matrix:
 Charge =  0 Multiplicity = 1

                         Standard orientation:
 ---------------------------------------------------------------------
 Center     Atomic      Atomic             Coordinates (Angstroms)
 Number     Number       Type             X           Y           Z
 ---------------------------------------------------------------------
      1          8           0        0.030272    1.708427   -0.000000
      2          1           0        0.026985    0.725832   -0.000000
      3          1           0       -0.898150    2.030201   -0.000000
      4          8           0        0.030272   -1.532878    0.000000
      5          1           0        0.959666   -1.851835    0.000000
      6          1           0       -0.572856   -2.308597    0.000000
 ---------------------------------------------------------------------

 SCF Done:  E(RHF) =  -152.113822581     A.U. after   10 cycles
 E2 =    -0.5270539958D+00 EUMP2 =    -0.15264087657636D+03
 CCSD(T)
 CCSD(T)= -0.15266787795D+03

 The electronic state is 1-A'.
 Alpha  occ. eigenvalues --  -20.57901 -20.53026  -1.35194  -1.30466  -0.72566
 Alpha  occ. eigenvalues --   -0.68085  -0.59022  -0.53815  -0.52322  -0.47622
 Alpha virt. eigenvalues --    0.12139   0.17673   0.18950   0.28901   0.50517
 Alpha virt. eigenvalues --    0.54305   0.55972   0.60156   0.68880   0.72696
 Alpha virt. eigenvalues --    0.74362   0.77086   0.81451   0.83019   0.84612

 Mulliken charges:
               1
     1  O   -0.543482
     2  H    0.276498
     3  H    0.249553
     4  O   -0.505341
     5  H    0.264605
     6  H    0.258168
 Sum of Mulliken charges =  -0.00000

 Dipole moment (field-independent basis, Debye):
    X=             -1.0190    Y=             -3.4376    Z=              0.0000  Tot=              3.5854
 Quadrupole moment (field-independent basis, Debye-Ang):
   XX=             -9.2299   YY=             -8.3109   ZZ=            -14.7343
   XY=             -4.0811   XZ=              0.0000   YZ=             -0.0000

 Normal termination of Gaussian 16 at Sat Aug 27 01:05:46 2022.
