 Gaussian 16, Revision A.03,
 Gaussian 16:  ES64L-G16RevA.03 25-Dec-2016

 ------------------
 #p CCSD(T)/cc-pVTZ
 ------------------

 ----------
 H2O_H2O_65
 ----------
 Symbolic Z-matrix:
 Charge =  0 Multiplicity = 1

                         Standard orientation:
 ---------------------------------------------------------------------
 Center     Atomic      Atomic             Coordinates (Angstroms)
 Number     Number       Type             X           Y           Z
 ---------------------------------------------------------------------
      1          8           0        0.045052    1.132590   -0.000000
      2          1           0        0.041136    0.149996   -0.000000
      3          1           0       -0.883164    1.454958   -0.000000
      4          8           0        0.045052   -0.952383    0.000000
      5          1           0        0.859873   -1.501539    0.000000
      6          1           0       -0.738678   -1.545068    0.000000
 ---------------------------------------------------------------------

 SCF Done:  E(RHF) =  -152.041326086     A.U. after   11 cycles
 E2 =    -0.5356741154D+00 EUMP2 =    -0.15257700020190D+03
 CCSD(T)
 CCSD(T)= -0.15260255124D+03

 The electronic state is 1-A'.
 Alpha  occ. eigenvalues --  -20.62083 -20.43936  -1.43807  -1.24332  -0.79213
 Alpha  occ. eigenvalues --   -0.78032  -0.58677  -0.54540  -0.44117  -0.40786
 Alpha virt. eigenvalues --    0.10324   0.16434   0.21193   0.32988   0.46801
 Alpha virt. eigenvalues --    0.51924   0.63031   0.65190   0.70588   0.70588
 Alpha virt. eigenvalues --    0.78625   0.79529   0.81496   0.82360   0.88366

 Mulliken charges:
               1
     1  O   -0.676501
     2  H    0.287038
     3  H    0.202872
     4  O   -0.309164
     5  H    0.254639
     6  H    0.241116
 Sum of Mulliken charges =  -0.00000

 Dipole moment (field-independent basis, Debye):
    X=             -1.3576    Y=             -5.1026    Z=              0.0000  Tot=              5.2801
 Quadrupole moment (field-independent basis, Debye-Ang):
   XX=             -9.0971   YY=            -10.2513   ZZ=            -14.5570
   XY=             -2.6649   XZ=              0.0000   YZ=              0.0000

 Normal termination of Gaussian 16 at Fri Aug 26 15:37:36 2022.
