 Gaussian 16, Revision A.03,
 Gaussian 16:  ES64L-G16RevA.03 25-Dec-2016

 ------------------
 #p CCSD(T)/cc-pVTZ
 ------------------

 ------------
 H2O_H2O_3891
 ------------
 Symbolic Z-matrix:
 Charge =  0 Multiplicity = 1

                         Standard orientation:
 ---------------------------------------------------------------------
 Center     Atomic      Atomic             Coordinates (Angstroms)
 Number     Number       Type             X           Y           Z
 ---------------------------------------------------------------------
      1          8           0        0.041120    2.658139    0.000000
      2          1           0        0.039407    1.675539    0.000000
      3          1           0       -0.887817    2.978425    0.000000
      4          8           0        0.041120   -2.478196    0.000000
      5          1           0        0.891220   -2.970978    0.000000
      6          1           0       -0.700725   -3.122535    0.000000
 ---------------------------------------------------------------------

 SCF Done:  E(RHF) =  -152.108867271     A.U. after   10 cycles
 E2 =    -0.5258217894D+00 EUMP2 =    -0.15263468906044D+03
 CCSD(T)
 CCSD(T)= -0.15266187038D+03

 The electronic state is 1-A'.
 Alpha  occ. eigenvalues --  -20.56319 -20.54781  -1.33615  -1.32093  -0.71018
 Alpha  occ. eigenvalues --   -0.69493  -0.57125  -0.55571  -0.50737  -0.49220
 Alpha virt. eigenvalues --    0.13018   0.15273   0.19617   0.21418   0.53518
 Alpha virt. eigenvalues --    0.54956   0.56575   0.57854   0.66696   0.69163
 Alpha virt. eigenvalues --    0.78158   0.79313   0.79625   0.79689   0.82921

 Mulliken charges:
               1
     1  O   -0.515689
     2  H    0.261902
     3  H    0.253192
     4  O   -0.515837
     5  H    0.259021
     6  H    0.257411
 Sum of Mulliken charges =  -0.00000

 Dipole moment (field-independent basis, Debye):
    X=             -1.4078    Y=             -3.1811    Z=             -0.0000  Tot=              3.4787
 Quadrupole moment (field-independent basis, Debye-Ang):
   XX=             -9.1491   YY=             -6.6321   ZZ=            -14.7164
   XY=             -5.5719   XZ=             -0.0000   YZ=             -0.0000

 Normal termination of Gaussian 16 at Sat Aug 27 00:18:38 2022.
