 Gaussian 16, Revision A.03,
 Gaussian 16:  ES64L-G16RevA.03 25-Dec-2016

 ------------------
 #p CCSD(T)/cc-pVTZ
 ------------------

 -----------
 H2O_H2O_416
 -----------
 Symbolic Z-matrix:
 Charge =  0 Multiplicity = 1

                         Standard orientation:
 ---------------------------------------------------------------------
 Center     Atomic      Atomic             Coordinates (Angstroms)
 Number     Number       Type             X           Y           Z
 ---------------------------------------------------------------------
      1          8           0        0.041303    1.271961   -0.000000
      2          1           0        0.037583    0.289367   -0.000000
      3          1           0       -0.886977    1.594144   -0.000000
      4          8           0        0.041303   -1.092186    0.000000
      5          1           0        0.890396   -1.586705    0.000000
      6          1           0       -0.701856   -1.735008    0.000000
 ---------------------------------------------------------------------

 SCF Done:  E(RHF) =  -152.094121096     A.U. after   11 cycles
 E2 =    -0.5323952938D+00 EUMP2 =    -0.15262651638975D+03
 CCSD(T)
 CCSD(T)= -0.15265273776D+03

 The electronic state is 1-A'.
 Alpha  occ. eigenvalues --  -20.60554 -20.47904  -1.39415  -1.26680  -0.75826
 Alpha  occ. eigenvalues --   -0.72378  -0.57898  -0.55861  -0.48411  -0.43559
 Alpha virt. eigenvalues --    0.11129   0.17499   0.20030   0.33678   0.47132
 Alpha virt. eigenvalues --    0.53337   0.61206   0.65531   0.69907   0.72155
 Alpha virt. eigenvalues --    0.75481   0.78956   0.80750   0.82532   0.83835

 Mulliken charges:
               1
     1  O   -0.627744
     2  H    0.311066
     3  H    0.224780
     4  O   -0.415923
     5  H    0.260383
     6  H    0.247438
 Sum of Mulliken charges =  -0.00000

 Dipole moment (field-independent basis, Debye):
    X=             -1.3088    Y=             -4.4367    Z=              0.0000  Tot=              4.6257
 Quadrupole moment (field-independent basis, Debye-Ang):
   XX=             -9.1142   YY=             -9.5844   ZZ=            -14.6572
   XY=             -2.9927   XZ=              0.0000   YZ=              0.0000

 Normal termination of Gaussian 16 at Fri Aug 26 18:06:56 2022.
