 Gaussian 16, Revision A.03,
 Gaussian 16:  ES64L-G16RevA.03 25-Dec-2016

 ------------------
 #p CCSD(T)/cc-pVTZ
 ------------------

 -----------
 H2O_H2O_764
 -----------
 Symbolic Z-matrix:
 Charge =  0 Multiplicity = 1

                         Standard orientation:
 ---------------------------------------------------------------------
 Center     Atomic      Atomic             Coordinates (Angstroms)
 Number     Number       Type             X           Y           Z
 ---------------------------------------------------------------------
      1          8           0        0.048691    1.411833    0.000000
      2          1           0        0.045842    0.429236    0.000000
      3          1           0       -0.879874    1.733194   -0.000000
      4          8           0        0.048691   -1.231562    0.000000
      5          1           0        0.826505   -1.831990    0.000000
      6          1           0       -0.771536   -1.772610   -0.000000
 ---------------------------------------------------------------------

 SCF Done:  E(RHF) =  -152.110039206     A.U. after   10 cycles
 E2 =    -0.5298661875D+00 EUMP2 =    -0.15263990539302D+03
 CCSD(T)
 CCSD(T)= -0.15266657394D+03

 The electronic state is 1-A'.
 Alpha  occ. eigenvalues --  -20.59432 -20.50435  -1.37237  -1.28415  -0.74229
 Alpha  occ. eigenvalues --   -0.69071  -0.59497  -0.54170  -0.51082  -0.45466
 Alpha virt. eigenvalues --    0.11586   0.17877   0.19323   0.33000   0.47858
 Alpha virt. eigenvalues --    0.54242   0.58960   0.61817   0.69806   0.72030
 Alpha virt. eigenvalues --    0.72435   0.77958   0.81946   0.82868   0.84523

 Mulliken charges:
               1
     1  O   -0.588244
     2  H    0.309463
     3  H    0.234189
     4  O   -0.473577
     5  H    0.263498
     6  H    0.254670
 Sum of Mulliken charges =   0.00000

 Dipole moment (field-independent basis, Debye):
    X=             -1.5855    Y=             -4.0028    Z=             -0.0000  Tot=              4.3054
 Quadrupole moment (field-independent basis, Debye-Ang):
   XX=             -9.1749   YY=             -9.0590   ZZ=            -14.7085
   XY=             -3.2266   XZ=              0.0000   YZ=             -0.0000

 Normal termination of Gaussian 16 at Fri Aug 26 20:21:55 2022.
