 Gaussian 16, Revision A.03,
 Gaussian 16:  ES64L-G16RevA.03 25-Dec-2016

 ------------------
 #p CCSD(T)/cc-pVTZ
 ------------------

 ------------
 H2O_H2O_1952
 ------------
 Symbolic Z-matrix:
 Charge =  0 Multiplicity = 1

                         Standard orientation:
 ---------------------------------------------------------------------
 Center     Atomic      Atomic             Coordinates (Angstroms)
 Number     Number       Type             X           Y           Z
 ---------------------------------------------------------------------
      1          8           0        0.088235   -1.870942    0.000000
      2          1           0        0.088012   -0.888341    0.000000
      3          1           0       -0.841186   -2.189819    0.000000
      4          8           0        0.088235    1.726631    0.000000
      5          1           0        0.216271    2.700855    0.000000
      6          1           0       -0.874856    1.531795    0.000000
 ---------------------------------------------------------------------

 SCF Done:  E(RHF) =  -152.109658338     A.U. after   10 cycles
 E2 =    -0.5267322162D+00 EUMP2 =    -0.15263639055374D+03
 CCSD(T)
 CCSD(T)= -0.15266350318D+03

 The electronic state is 1-A'.
 Alpha  occ. eigenvalues --  -20.57362 -20.54540  -1.34655  -1.31863  -0.72167
 Alpha  occ. eigenvalues --   -0.69197  -0.58186  -0.55288  -0.51754  -0.48980
 Alpha virt. eigenvalues --    0.11597   0.16251   0.19992   0.25786   0.51714
 Alpha virt. eigenvalues --    0.55566   0.56960   0.57550   0.68423   0.73838
 Alpha virt. eigenvalues --    0.75932   0.78573   0.80126   0.82834   0.82998

 Mulliken charges:
               1
     1  O   -0.517893
     2  H    0.266958
     3  H    0.244156
     4  O   -0.499113
     5  H    0.257999
     6  H    0.247893
 Sum of Mulliken charges =  -0.00000

 Dipole moment (field-independent basis, Debye):
    X=             -2.9733    Y=              2.7082    Z=              0.0000  Tot=              4.0218
 Quadrupole moment (field-independent basis, Debye-Ang):
   XX=            -10.5858   YY=             -8.7848   ZZ=            -14.7173
   XY=              2.4961   XZ=              0.0000   YZ=              0.0000

 Normal termination of Gaussian 16 at Sun Aug 28 03:07:01 2022.
