 Gaussian 16, Revision A.03,
 Gaussian 16:  ES64L-G16RevA.03 25-Dec-2016

 ------------------
 #p CCSD(T)/cc-pVTZ
 ------------------

 ------------
 H2O_H2O_4246
 ------------
 Symbolic Z-matrix:
 Charge =  0 Multiplicity = 1

                         Standard orientation:
 ---------------------------------------------------------------------
 Center     Atomic      Atomic             Coordinates (Angstroms)
 Number     Number       Type             X           Y           Z
 ---------------------------------------------------------------------
      1          8           0       -0.023172    2.792569    0.000000
      2          1           0       -0.020986    1.809970    0.000000
      3          1           0        0.905610    3.113302    0.000000
      4          8           0       -0.023172   -2.622162    0.000000
      5          1           0       -0.986465   -2.816001    0.000000
      6          1           0        0.472595   -3.470525    0.000000
 ---------------------------------------------------------------------

 SCF Done:  E(RHF) =  -152.108611264     A.U. after   10 cycles
 E2 =    -0.5258020504D+00 EUMP2 =    -0.15263441331442D+03
 CCSD(T)
 CCSD(T)= -0.15266160517D+03

 The electronic state is 1-A'.
 Alpha  occ. eigenvalues --  -20.56229 -20.54952  -1.33530  -1.32261  -0.70935
 Alpha  occ. eigenvalues --   -0.69666  -0.57030  -0.55737  -0.50650  -0.49387
 Alpha virt. eigenvalues --    0.13144   0.15049   0.19510   0.21319   0.53435
 Alpha virt. eigenvalues --    0.54974   0.56643   0.57815   0.66726   0.68868
 Alpha virt. eigenvalues --    0.78238   0.79308   0.79466   0.80452   0.82717

 Mulliken charges:
               1
     1  O   -0.515016
     2  H    0.260379
     3  H    0.254403
     4  O   -0.515502
     5  H    0.257732
     6  H    0.258003
 Sum of Mulliken charges =  -0.00000

 Dipole moment (field-independent basis, Debye):
    X=              0.7953    Y=             -2.9976    Z=              0.0000  Tot=              3.1013
 Quadrupole moment (field-independent basis, Debye-Ang):
   XX=             -9.3618   YY=             -6.9204   ZZ=            -14.7154
   XY=              6.8788   XZ=              0.0000   YZ=              0.0000

 Normal termination of Gaussian 16 at Sun Aug 28 01:09:52 2022.
