 Gaussian 16, Revision A.03,
 Gaussian 16:  ES64L-G16RevA.03 25-Dec-2016

 ------------------
 #p CCSD(T)/cc-pVTZ
 ------------------

 ------------
 H2O_H2O_2148
 ------------
 Symbolic Z-matrix:
 Charge =  0 Multiplicity = 1

                         Standard orientation:
 ---------------------------------------------------------------------
 Center     Atomic      Atomic             Coordinates (Angstroms)
 Number     Number       Type             X           Y           Z
 ---------------------------------------------------------------------
      1          8           0       -0.016677    1.951110    0.000000
      2          1           0       -0.013212    0.968515    0.000000
      3          1           0        0.911687    2.273051    0.000000
      4          8           0       -0.016677   -1.787740    0.000000
      5          1           0       -0.996942   -1.855462    0.000000
      6          1           0        0.365294   -2.693061    0.000000
 ---------------------------------------------------------------------

 SCF Done:  E(RHF) =  -152.111572876     A.U. after   10 cycles
 E2 =    -0.5262769543D+00 EUMP2 =    -0.15263784983043D+03
 CCSD(T)
 CCSD(T)= -0.15266493670D+03

 The electronic state is 1-A'.
 Alpha  occ. eigenvalues --  -20.57169 -20.54103  -1.34443  -1.31448  -0.71863
 Alpha  occ. eigenvalues --   -0.68867  -0.58082  -0.54922  -0.51574  -0.48600
 Alpha virt. eigenvalues --    0.12198   0.16749   0.19244   0.25675   0.53234
 Alpha virt. eigenvalues --    0.54802   0.56049   0.58837   0.68744   0.72472
 Alpha virt. eigenvalues --    0.76625   0.78887   0.80343   0.83136   0.83515

 Mulliken charges:
               1
     1  O   -0.528576
     2  H    0.266304
     3  H    0.254063
     4  O   -0.510356
     5  H    0.260371
     6  H    0.258194
 Sum of Mulliken charges =  -0.00000

 Dipole moment (field-independent basis, Debye):
    X=              0.5722    Y=             -3.0409    Z=              0.0000  Tot=              3.0942
 Quadrupole moment (field-independent basis, Debye-Ang):
   XX=             -9.5446   YY=             -8.1752   ZZ=            -14.7254
   XY=              5.1171   XZ=              0.0000   YZ=              0.0000

 Normal termination of Gaussian 16 at Sun Aug 28 04:43:22 2022.
