 Gaussian 16, Revision A.03,
 Gaussian 16:  ES64L-G16RevA.03 25-Dec-2016

 ------------------
 #p CCSD(T)/cc-pVTZ
 ------------------

 -----------
 H2O_H2O_527
 -----------
 Symbolic Z-matrix:
 Charge =  0 Multiplicity = 1

                         Standard orientation:
 ---------------------------------------------------------------------
 Center     Atomic      Atomic             Coordinates (Angstroms)
 Number     Number       Type             X           Y           Z
 ---------------------------------------------------------------------
      1          8           0        0.088243   -1.302533    0.000000
      2          1           0        0.087917   -0.319931    0.000000
      3          1           0       -0.841145   -1.621507    0.000000
      4          8           0        0.088243    1.158240    0.000000
      5          1           0        0.216175    2.132478    0.000000
      6          1           0       -0.874829    0.963304    0.000000
 ---------------------------------------------------------------------

 SCF Done:  E(RHF) =  -152.092785121     A.U. after   11 cycles
 E2 =    -0.5329744761D+00 EUMP2 =    -0.15262575959674D+03
 CCSD(T)
 CCSD(T)= -0.15265227704D+03

 The electronic state is 1-A'.
 Alpha  occ. eigenvalues --  -20.59957 -20.51032  -1.38694  -1.29125  -0.77557
 Alpha  occ. eigenvalues --   -0.68381  -0.59404  -0.55022  -0.51757  -0.46092
 Alpha virt. eigenvalues --    0.11209   0.16427   0.20869   0.32423   0.48585
 Alpha virt. eigenvalues --    0.52182   0.59024   0.64641   0.70909   0.71498
 Alpha virt. eigenvalues --    0.74015   0.77920   0.78627   0.83002   0.83843

 Mulliken charges:
               1
     1  O   -0.568426
     2  H    0.288194
     3  H    0.215614
     4  O   -0.396300
     5  H    0.230659
     6  H    0.230259
 Sum of Mulliken charges =  -0.00000

 Dipole moment (field-independent basis, Debye):
    X=             -2.8345    Y=              3.4607    Z=              0.0000  Tot=              4.4734
 Quadrupole moment (field-independent basis, Debye-Ang):
   XX=            -10.5846   YY=             -9.3774   ZZ=            -14.6406
   XY=              2.2936   XZ=              0.0000   YZ=              0.0000

 Normal termination of Gaussian 16 at Fri Aug 26 18:50:55 2022.
