 Gaussian 16, Revision A.03,
 Gaussian 16:  ES64L-G16RevA.03 25-Dec-2016

 ------------------
 #p CCSD(T)/cc-pVTZ
 ------------------

 ------------
 H2O_H2O_4829
 ------------
 Symbolic Z-matrix:
 Charge =  0 Multiplicity = 1

                         Standard orientation:
 ---------------------------------------------------------------------
 Center     Atomic      Atomic             Coordinates (Angstroms)
 Number     Number       Type             X           Y           Z
 ---------------------------------------------------------------------
      1          8           0        0.082797    3.023265    0.000000
      2          1           0        0.082504    2.040664    0.000000
      3          1           0       -0.846601    3.342208   -0.000000
      4          8           0        0.082797   -2.868733    0.000000
      5          1           0        0.336831   -3.817929    0.000000
      6          1           0       -0.897481   -2.801204   -0.000000
 ---------------------------------------------------------------------

 SCF Done:  E(RHF) =  -152.107845674     A.U. after   10 cycles
 E2 =    -0.5258465927D+00 EUMP2 =    -0.15263369226674D+03
 CCSD(T)
 CCSD(T)= -0.15266090294D+03

 The electronic state is 1-A'.
 Alpha  occ. eigenvalues --  -20.56148 -20.55216  -1.33450  -1.32519  -0.70860
 Alpha  occ. eigenvalues --   -0.69918  -0.56917  -0.55976  -0.50563  -0.49635
 Alpha virt. eigenvalues --    0.13278   0.14653   0.19374   0.21060   0.53514
 Alpha virt. eigenvalues --    0.54759   0.56638   0.57651   0.67049   0.68406
 Alpha virt. eigenvalues --    0.78324   0.79234   0.79694   0.80824   0.81857

 Mulliken charges:
               1
     1  O   -0.510798
     2  H    0.258217
     3  H    0.252547
     4  O   -0.511671
     5  H    0.257936
     6  H    0.253769
 Sum of Mulliken charges =   0.00000

 Dipole moment (field-independent basis, Debye):
    X=             -2.8416    Y=             -2.7054    Z=             -0.0000  Tot=              3.9235
 Quadrupole moment (field-independent basis, Debye-Ang):
   XX=            -10.2434   YY=             -7.7045   ZZ=            -14.7127
   XY=             -3.2476   XZ=             -0.0000   YZ=             -0.0000

 03653\MP4DQ=-152.642816\MP4SDQ=-152.6458674\CCSD=-152.6452818\CCSD(T)=
 Normal termination of Gaussian 16 at Sun Aug 28 06:12:39 2022.
