 Gaussian 16, Revision A.03,
 Gaussian 16:  ES64L-G16RevA.03 25-Dec-2016

 ------------------
 #p CCSD(T)/cc-pVTZ
 ------------------

 ------------
 H2O_H2O_2706
 ------------
 Symbolic Z-matrix:
 Charge =  0 Multiplicity = 1

                         Standard orientation:
 ---------------------------------------------------------------------
 Center     Atomic      Atomic             Coordinates (Angstroms)
 Number     Number       Type             X           Y           Z
 ---------------------------------------------------------------------
      1          8           0        0.076762    2.180361   -0.000000
      2          1           0        0.076107    1.197760   -0.000000
      3          1           0       -0.852518    2.499647    0.000000
      4          8           0        0.076762   -2.017160   -0.000000
      5          1           0        0.452182   -2.925216   -0.000000
      6          1           0       -0.903967   -2.077799    0.000000
 ---------------------------------------------------------------------

 SCF Done:  E(RHF) =  -152.109504383     A.U. after   10 cycles
 E2 =    -0.5261023107D+00 EUMP2 =    -0.15263560669396D+03
 CCSD(T)
 CCSD(T)= -0.15266274728D+03

 The electronic state is 1-A'.
 Alpha  occ. eigenvalues --  -20.56810 -20.54577  -1.34089  -1.31893  -0.71508
 Alpha  occ. eigenvalues --   -0.69272  -0.57613  -0.55361  -0.51211  -0.49020
 Alpha virt. eigenvalues --    0.12027   0.15991   0.19464   0.23365   0.53729
 Alpha virt. eigenvalues --    0.55317   0.56276   0.58525   0.68740   0.69707
 Alpha virt. eigenvalues --    0.77610   0.79049   0.79840   0.80470   0.83071

 Mulliken charges:
               1
     1  O   -0.516612
     2  H    0.264131
     3  H    0.248750
     4  O   -0.509400
     5  H    0.259707
     6  H    0.253424
 Sum of Mulliken charges =  -0.00000

 Dipole moment (field-independent basis, Debye):
    X=             -2.6103    Y=             -2.9626    Z=              0.0000  Tot=              3.9485
 Quadrupole moment (field-independent basis, Debye-Ang):
   XX=             -9.9603   YY=             -7.9567   ZZ=            -14.7180
   XY=             -3.2991   XZ=              0.0000   YZ=              0.0000

 CCSD(T)=-152.6627473\RMSD=6.945e-09\PG=CS [SG(H4O2)]\\@
 Normal termination of Gaussian 16 at Fri Aug 26 16:42:38 2022.
