 Gaussian 16, Revision A.03,
 Gaussian 16:  ES64L-G16RevA.03 25-Dec-2016

 ------------------
 #p CCSD(T)/cc-pVTZ
 ------------------

 ------------
 H2O_H2O_4902
 ------------
 Symbolic Z-matrix:
 Charge =  0 Multiplicity = 1

                         Standard orientation:
 ---------------------------------------------------------------------
 Center     Atomic      Atomic             Coordinates (Angstroms)
 Number     Number       Type             X           Y           Z
 ---------------------------------------------------------------------
      1          8           0        0.088229   -3.047638    0.000000
      2          1           0        0.088094   -2.065037    0.000000
      3          1           0       -0.841221   -3.366432    0.000000
      4          8           0        0.088229    2.903311    0.000000
      5          1           0        0.216351    3.877524    0.000000
      6          1           0       -0.874880    2.708562    0.000000
 ---------------------------------------------------------------------

 SCF Done:  E(RHF) =  -152.107710897     A.U. after   10 cycles
 E2 =    -0.5258564419D+00 EUMP2 =    -0.15263356733886D+03
 CCSD(T)
 CCSD(T)= -0.15266078121D+03

 The electronic state is 1-A'.
 Alpha  occ. eigenvalues --  -20.56142 -20.55301  -1.33443  -1.32603  -0.70855
 Alpha  occ. eigenvalues --   -0.70002  -0.56906  -0.56057  -0.50555  -0.49717
 Alpha virt. eigenvalues --    0.13215   0.14587   0.19224   0.21139   0.53488
 Alpha virt. eigenvalues --    0.54707   0.56625   0.57593   0.67090   0.68314
 Alpha virt. eigenvalues --    0.78332   0.79155   0.79721   0.80880   0.81703

 Mulliken charges:
               1
     1  O   -0.510095
     2  H    0.257517
     3  H    0.252555
     4  O   -0.510926
     5  H    0.257727
     6  H    0.253221
 Sum of Mulliken charges =  -0.00000

 Dipole moment (field-independent basis, Debye):
    X=             -3.0286    Y=              2.5253    Z=              0.0000  Tot=              3.9433
 Quadrupole moment (field-independent basis, Debye-Ang):
   XX=            -10.5485   YY=             -8.4220   ZZ=            -14.7122
   XY=              2.7093   XZ=              0.0000   YZ=              0.0000

 Normal termination of Gaussian 16 at Sun Aug 28 06:46:51 2022.
