 Gaussian 16, Revision A.03,
 Gaussian 16:  ES64L-G16RevA.03 25-Dec-2016

 ------------------
 #p CCSD(T)/cc-pVTZ
 ------------------

 ------------
 H2O_H2O_2376
 ------------
 Symbolic Z-matrix:
 Charge =  0 Multiplicity = 1

                         Standard orientation:
 ---------------------------------------------------------------------
 Center     Atomic      Atomic             Coordinates (Angstroms)
 Number     Number       Type             X           Y           Z
 ---------------------------------------------------------------------
      1          8           0        0.090686   -2.037420    0.000000
      2          1           0        0.090588   -1.054819    0.000000
      3          1           0       -0.838776   -2.356179    0.000000
      4          8           0        0.090686    1.898714    0.000000
      5          1           0        0.154854    2.879219    0.000000
      6          1           0       -0.857634    1.641428    0.000000
 ---------------------------------------------------------------------

 SCF Done:  E(RHF) =  -152.108806067     A.U. after   10 cycles
 E2 =    -0.5263665393D+00 EUMP2 =    -0.15263517260630D+03
 CCSD(T)
 CCSD(T)= -0.15266232123D+03

 The electronic state is 1-A'.
 Alpha  occ. eigenvalues --  -20.57008 -20.54885  -1.34297  -1.32190  -0.71765
 Alpha  occ. eigenvalues --   -0.69544  -0.57787  -0.55634  -0.51402  -0.49306
 Alpha virt. eigenvalues --    0.11517   0.15953   0.19858   0.24373   0.53281
 Alpha virt. eigenvalues --    0.55769   0.56562   0.57707   0.68377   0.71655
 Alpha virt. eigenvalues --    0.77118   0.79443   0.79664   0.79922   0.83380

 Mulliken charges:
               1
     1  O   -0.513702
     2  H    0.263499
     3  H    0.246683
     4  O   -0.503667
     5  H    0.259144
     6  H    0.248044
 Sum of Mulliken charges =  -0.00000

 Dipole moment (field-independent basis, Debye):
    X=             -3.0713    Y=              2.5421    Z=              0.0000  Tot=              3.9868
 Quadrupole moment (field-independent basis, Debye-Ang):
   XX=            -10.7256   YY=             -8.9427   ZZ=            -14.7146
   XY=              2.3393   XZ=              0.0000   YZ=              0.0000

 Normal termination of Gaussian 16 at Sun Aug 28 06:46:02 2022.
