 Gaussian 16, Revision A.03,
 Gaussian 16:  ES64L-G16RevA.03 25-Dec-2016

 ------------------
 #p CCSD(T)/cc-pVTZ
 ------------------

 -----------
 H2O_H2O_824
 -----------
 Symbolic Z-matrix:
 Charge =  0 Multiplicity = 1

                         Standard orientation:
 ---------------------------------------------------------------------
 Center     Atomic      Atomic             Coordinates (Angstroms)
 Number     Number       Type             X           Y           Z
 ---------------------------------------------------------------------
      1          8           0        0.013685   -1.420343    0.000000
      2          1           0        0.008659   -0.437754    0.000000
      3          1           0       -0.914165   -1.743760    0.000000
      4          8           0        0.013685    1.261138    0.000000
      5          1           0        0.996274    1.266165    0.000000
      6          1           0       -0.309733    2.188989    0.000000
 ---------------------------------------------------------------------

 SCF Done:  E(RHF) =  -152.109037062     A.U. after   10 cycles
 E2 =    -0.5296556854D+00 EUMP2 =    -0.15263869274752D+03
 CCSD(T)
 CCSD(T)= -0.15266544333D+03

 The electronic state is 1-A'.
 Alpha  occ. eigenvalues --  -20.59116 -20.51401  -1.36959  -1.29239  -0.74831
 Alpha  occ. eigenvalues --   -0.67902  -0.60099  -0.53844  -0.52001  -0.46329
 Alpha virt. eigenvalues --    0.11891   0.18197   0.19124   0.33009   0.48472
 Alpha virt. eigenvalues --    0.54011   0.56679   0.65324   0.68292   0.72190
 Alpha virt. eigenvalues --    0.74600   0.76243   0.80387   0.83160   0.84102

 Mulliken charges:
               1
     1  O   -0.584490
     2  H    0.292327
     3  H    0.249253
     4  O   -0.450978
     5  H    0.258232
     6  H    0.235656
 Sum of Mulliken charges =  -0.00000

 Dipole moment (field-independent basis, Debye):
    X=             -0.4645    Y=              3.5081    Z=              0.0000  Tot=              3.5387
 Quadrupole moment (field-independent basis, Debye-Ang):
   XX=             -9.6241   YY=             -9.0407   ZZ=            -14.7002
   XY=              3.7914   XZ=              0.0000   YZ=              0.0000

 Normal termination of Gaussian 16 at Fri Aug 26 20:44:27 2022.
