 Gaussian 16, Revision A.03,
 Gaussian 16:  ES64L-G16RevA.03 25-Dec-2016

 ------------------
 #p CCSD(T)/cc-pVTZ
 ------------------

 ------------
 H2O_H2O_4577
 ------------
 Symbolic Z-matrix:
 Charge =  0 Multiplicity = 1

                         Standard orientation:
 ---------------------------------------------------------------------
 Center     Atomic      Atomic             Coordinates (Angstroms)
 Number     Number       Type             X           Y           Z
 ---------------------------------------------------------------------
      1          8           0        0.088229   -2.918003    0.000000
      2          1           0        0.088088   -1.935401    0.000000
      3          1           0       -0.841218   -3.236802    0.000000
      4          8           0        0.088229    2.773676    0.000000
      5          1           0        0.216345    3.747891    0.000000
      6          1           0       -0.874879    2.578921    0.000000
 ---------------------------------------------------------------------

 SCF Done:  E(RHF) =  -152.107760178     A.U. after   10 cycles
 E2 =    -0.5258627603D+00 EUMP2 =    -0.15263362293803D+03
 CCSD(T)
 CCSD(T)= -0.15266083479D+03

 The electronic state is 1-A'.
 Alpha  occ. eigenvalues --  -20.56193 -20.55266  -1.33495  -1.32568  -0.70908
 Alpha  occ. eigenvalues --   -0.69965  -0.56959  -0.56022  -0.50606  -0.49682
 Alpha virt. eigenvalues --    0.12971   0.14724   0.19108   0.21403   0.53332
 Alpha virt. eigenvalues --    0.54812   0.56578   0.57680   0.66942   0.68470
 Alpha virt. eigenvalues --    0.78283   0.79189   0.79631   0.81101   0.81778

 Mulliken charges:
               1
     1  O   -0.510210
     2  H    0.257898
     3  H    0.252252
     4  O   -0.511195
     5  H    0.258195
     6  H    0.253059
 Sum of Mulliken charges =  -0.00000

 Dipole moment (field-independent basis, Debye):
    X=             -3.0262    Y=              2.5309    Z=              0.0000  Tot=              3.9451
 Quadrupole moment (field-independent basis, Debye-Ang):
   XX=            -10.5495   YY=             -8.4679   ZZ=            -14.7123
   XY=              2.6865   XZ=              0.0000   YZ=              0.0000

 Normal termination of Gaussian 16 at Sun Aug 28 04:06:08 2022.
