 Gaussian 16, Revision A.03,
 Gaussian 16:  ES64L-G16RevA.03 25-Dec-2016

 ------------------
 #p CCSD(T)/cc-pVTZ
 ------------------

 ------------
 H2O_H2O_2325
 ------------
 Symbolic Z-matrix:
 Charge =  0 Multiplicity = 1

                         Standard orientation:
 ---------------------------------------------------------------------
 Center     Atomic      Atomic             Coordinates (Angstroms)
 Number     Number       Type             X           Y           Z
 ---------------------------------------------------------------------
      1          8           0        0.092949   -2.014261    0.000000
      2          1           0        0.092949   -1.031660    0.000000
      3          1           0       -0.836544   -2.332928    0.000000
      4          8           0        0.092949    1.881474    0.000000
      5          1           0        0.092950    2.864076    0.000000
      6          1           0       -0.836544    1.562808    0.000000
 ---------------------------------------------------------------------

 SCF Done:  E(RHF) =  -152.108546143     A.U. after   10 cycles
 E2 =    -0.5264308294D+00 EUMP2 =    -0.15263497697281D+03
 CCSD(T)
 CCSD(T)= -0.15266213116D+03

 The electronic state is 1-A'.
 Alpha  occ. eigenvalues --  -20.57041 -20.54985  -1.34333  -1.32287  -0.71819
 Alpha  occ. eigenvalues --   -0.69630  -0.57812  -0.55725  -0.51433  -0.49399
 Alpha virt. eigenvalues --    0.11418   0.15924   0.19983   0.24573   0.53143
 Alpha virt. eigenvalues --    0.55846   0.56586   0.57582   0.68197   0.71998
 Alpha virt. eigenvalues --    0.76992   0.79431   0.79605   0.79718   0.83281

 Mulliken charges:
               1
     1  O   -0.512851
     2  H    0.263359
     3  H    0.246366
     4  O   -0.502460
     5  H    0.259120
     6  H    0.246466
 Sum of Mulliken charges =  -0.00000

 Dipole moment (field-independent basis, Debye):
    X=             -3.1454    Y=              2.4369    Z=              0.0000  Tot=              3.9789
 Quadrupole moment (field-independent basis, Debye-Ang):
   XX=            -10.8729   YY=             -9.1722   ZZ=            -14.7133
   XY=              2.1416   XZ=              0.0000   YZ=              0.0000

 Normal termination of Gaussian 16 at Sun Aug 28 06:19:44 2022.
