 Gaussian 16, Revision A.03,
 Gaussian 16:  ES64L-G16RevA.03 25-Dec-2016

 ------------------
 #p CCSD(T)/cc-pVTZ
 ------------------

 ------------
 H2O_H2O_1794
 ------------
 Symbolic Z-matrix:
 Charge =  0 Multiplicity = 1

                         Standard orientation:
 ---------------------------------------------------------------------
 Center     Atomic      Atomic             Coordinates (Angstroms)
 Number     Number       Type             X           Y           Z
 ---------------------------------------------------------------------
      1          8           0        0.030254    1.818124    0.000000
      2          1           0        0.027175    0.835528    0.000000
      3          1           0       -0.898236    2.139701   -0.000000
      4          8           0        0.030254   -1.642562    0.000000
      5          1           0        0.959714   -1.961323    0.000000
      6          1           0       -0.572711   -2.418409   -0.000000
 ---------------------------------------------------------------------

 SCF Done:  E(RHF) =  -152.113047238     A.U. after   10 cycles
 E2 =    -0.5266156707D+00 EUMP2 =    -0.15263966290844D+03
 CCSD(T)
 CCSD(T)= -0.15266670377D+03

 The electronic state is 1-A'.
 Alpha  occ. eigenvalues --  -20.57556 -20.53472  -1.34819  -1.30857  -0.72204
 Alpha  occ. eigenvalues --   -0.68339  -0.58576  -0.54285  -0.51957  -0.48015
 Alpha virt. eigenvalues --    0.12206   0.17292   0.19077   0.27334   0.51489
 Alpha virt. eigenvalues --    0.54451   0.56170   0.59334   0.69049   0.72725
 Alpha virt. eigenvalues --    0.75479   0.77452   0.80980   0.83289   0.84494

 Mulliken charges:
               1
     1  O   -0.535374
     2  H    0.271061
     3  H    0.250750
     4  O   -0.508178
     5  H    0.263018
     6  H    0.258723
 Sum of Mulliken charges =  -0.00000

 Dipole moment (field-independent basis, Debye):
    X=             -1.0230    Y=             -3.3523    Z=             -0.0000  Tot=              3.5049
 Quadrupole moment (field-independent basis, Debye-Ang):
   XX=             -9.2309   YY=             -8.1058   ZZ=            -14.7319
   XY=             -4.3239   XZ=             -0.0000   YZ=             -0.0000

 Normal termination of Gaussian 16 at Sun Aug 28 01:38:23 2022.
