 Gaussian 16, Revision A.03,
 Gaussian 16:  ES64L-G16RevA.03 25-Dec-2016

 ------------------
 #p CCSD(T)/cc-pVTZ
 ------------------

 ------------
 H2O_H2O_3277
 ------------
 Symbolic Z-matrix:
 Charge =  0 Multiplicity = 1

                         Standard orientation:
 ---------------------------------------------------------------------
 Center     Atomic      Atomic             Coordinates (Angstroms)
 Number     Number       Type             X           Y           Z
 ---------------------------------------------------------------------
      1          8           0        0.088231   -2.399459    0.000000
      2          1           0        0.088059   -1.416858    0.000000
      3          1           0       -0.841206   -2.718288    0.000000
      4          8           0        0.088231    2.255139    0.000000
      5          1           0        0.216316    3.229357    0.000000
      6          1           0       -0.874870    2.060353    0.000000
 ---------------------------------------------------------------------

 SCF Done:  E(RHF) =  -152.108235335     A.U. after   10 cycles
 E2 =    -0.5259863456D+00 EUMP2 =    -0.15263422168054D+03
 CCSD(T)
 CCSD(T)= -0.15266140712D+03

 The electronic state is 1-A'.
 Alpha  occ. eigenvalues --  -20.56535 -20.55054  -1.33830  -1.32359  -0.71253
 Alpha  occ. eigenvalues --   -0.69744  -0.57305  -0.55816  -0.50942  -0.49475
 Alpha virt. eigenvalues --    0.11868   0.15456   0.19246   0.22645   0.53767
 Alpha virt. eigenvalues --    0.54870   0.56439   0.58114   0.67327   0.69026
 Alpha virt. eigenvalues --    0.77963   0.78551   0.79390   0.81130   0.82608

 Mulliken charges:
               1
     1  O   -0.511324
     2  H    0.260113
     3  H    0.250101
     4  O   -0.510340
     5  H    0.259763
     6  H    0.251687
 Sum of Mulliken charges =  -0.00000

 Dipole moment (field-independent basis, Debye):
    X=             -3.0102    Y=              2.5749    Z=              0.0000  Tot=              3.9612
 Quadrupole moment (field-independent basis, Debye-Ang):
   XX=            -10.5585   YY=             -8.6308   ZZ=            -14.7137
   XY=              2.5957   XZ=              0.0000   YZ=              0.0000

 Normal termination of Gaussian 16 at Fri Aug 26 20:47:13 2022.
