 Gaussian 16, Revision A.03,
 Gaussian 16:  ES64L-G16RevA.03 25-Dec-2016

 ------------------
 #p CCSD(T)/cc-pVTZ
 ------------------

 ------------
 H2O_H2O_1618
 ------------
 Symbolic Z-matrix:
 Charge =  0 Multiplicity = 1

                         Standard orientation:
 ---------------------------------------------------------------------
 Center     Atomic      Atomic             Coordinates (Angstroms)
 Number     Number       Type             X           Y           Z
 ---------------------------------------------------------------------
      1          8           0        0.033863    1.749356    0.000000
      2          1           0        0.030839    0.766759    0.000000
      3          1           0       -0.894645    2.070881    0.000000
      4          8           0        0.033863   -1.571888    0.000000
      5          1           0        0.940508   -1.950705    0.000000
      6          1           0       -0.618512   -2.306676    0.000000
 ---------------------------------------------------------------------

 SCF Done:  E(RHF) =  -152.113635591     A.U. after   10 cycles
 E2 =    -0.5268800119D+00 EUMP2 =    -0.15264051560252D+03
 CCSD(T)
 CCSD(T)= -0.15266753161D+03

 The electronic state is 1-A'.
 Alpha  occ. eigenvalues --  -20.57777 -20.53164  -1.35051  -1.30582  -0.72418
 Alpha  occ. eigenvalues --   -0.68143  -0.58860  -0.53965  -0.52186  -0.47738
 Alpha virt. eigenvalues --    0.12157   0.17539   0.18986   0.28333   0.50760
 Alpha virt. eigenvalues --    0.54357   0.56091   0.59720   0.68963   0.72503
 Alpha virt. eigenvalues --    0.74781   0.77081   0.81295   0.83140   0.84647

 Mulliken charges:
               1
     1  O   -0.539945
     2  H    0.274524
     3  H    0.249281
     4  O   -0.507081
     5  H    0.264270
     6  H    0.258950
 Sum of Mulliken charges =  -0.00000

 Dipole moment (field-independent basis, Debye):
    X=             -1.1405    Y=             -3.4410    Z=             -0.0000  Tot=              3.6251
 Quadrupole moment (field-independent basis, Debye-Ang):
   XX=             -9.1875   YY=             -8.2072   ZZ=            -14.7342
   XY=             -4.0878   XZ=             -0.0000   YZ=             -0.0000

 Normal termination of Gaussian 16 at Sat Aug 27 23:56:18 2022.
