 Gaussian 16, Revision A.03,
 Gaussian 16:  ES64L-G16RevA.03 25-Dec-2016

 ------------------
 #p CCSD(T)/cc-pVTZ
 ------------------

 ------------
 H2O_H2O_4783
 ------------
 Symbolic Z-matrix:
 Charge =  0 Multiplicity = 1

                         Standard orientation:
 ---------------------------------------------------------------------
 Center     Atomic      Atomic             Coordinates (Angstroms)
 Number     Number       Type             X           Y           Z
 ---------------------------------------------------------------------
      1          8           0        0.070182    3.011872    0.000000
      2          1           0        0.069522    2.029270    0.000000
      3          1           0       -0.859097    3.331162   -0.000000
      4          8           0        0.070182   -2.841599    0.000000
      5          1           0        0.560911   -3.692887    0.000000
      6          1           0       -0.894243   -3.029725   -0.000000
 ---------------------------------------------------------------------

 SCF Done:  E(RHF) =  -152.108074417     A.U. after   10 cycles
 E2 =    -0.5258281606D+00 EUMP2 =    -0.15263390257799D+03
 CCSD(T)
 CCSD(T)= -0.15266110812D+03

 The electronic state is 1-A'.
 Alpha  occ. eigenvalues --  -20.56147 -20.55087  -1.33449  -1.32392  -0.70856
 Alpha  occ. eigenvalues --   -0.69791  -0.56927  -0.55854  -0.50564  -0.49510
 Alpha virt. eigenvalues --    0.13399   0.14747   0.19604   0.20953   0.53612
 Alpha virt. eigenvalues --    0.54804   0.56669   0.57724   0.67008   0.68526
 Alpha virt. eigenvalues --    0.78321   0.79353   0.79651   0.80608   0.82213

 Mulliken charges:
               1
     1  O   -0.512048
     2  H    0.259243
     3  H    0.252755
     4  O   -0.512898
     5  H    0.258093
     6  H    0.254855
 Sum of Mulliken charges =   0.00000

 Dipole moment (field-independent basis, Debye):
    X=             -2.4083    Y=             -2.9823    Z=             -0.0000  Tot=              3.8333
 Quadrupole moment (field-independent basis, Debye-Ang):
   XX=             -9.6786   YY=             -6.6690   ZZ=            -14.7136
   XY=             -4.2854   XZ=              0.0000   YZ=             -0.0000

 Normal termination of Gaussian 16 at Sun Aug 28 05:52:06 2022.
