 Gaussian 16, Revision A.03,
 Gaussian 16:  ES64L-G16RevA.03 25-Dec-2016

 ------------------
 #p CCSD(T)/cc-pVTZ
 ------------------

 -----------
 H2O_H2O_659
 -----------
 Symbolic Z-matrix:
 Charge =  0 Multiplicity = 1

                         Standard orientation:
 ---------------------------------------------------------------------
 Center     Atomic      Atomic             Coordinates (Angstroms)
 Number     Number       Type             X           Y           Z
 ---------------------------------------------------------------------
      1          8           0        0.066827    1.367992    0.000000
      2          1           0        0.065092    0.385393    0.000000
      3          1           0       -0.862103    1.688299   -0.000000
      4          8           0        0.066827   -1.194990    0.000000
      5          1           0        0.611289   -2.012956    0.000000
      6          1           0       -0.883503   -1.444751   -0.000000
 ---------------------------------------------------------------------

 SCF Done:  E(RHF) =  -152.105686995     A.U. after   11 cycles
 E2 =    -0.5308576101D+00 EUMP2 =    -0.15263654460476D+03
 CCSD(T)
 CCSD(T)= -0.15266313088D+03

 The electronic state is 1-A'.
 Alpha  occ. eigenvalues --  -20.59699 -20.50311  -1.37754  -1.28386  -0.75033
 Alpha  occ. eigenvalues --   -0.69397  -0.59253  -0.54550  -0.50953  -0.45394
 Alpha virt. eigenvalues --    0.11375   0.17179   0.19894   0.32986   0.48053
 Alpha virt. eigenvalues --    0.53844   0.59980   0.61589   0.70735   0.72269
 Alpha virt. eigenvalues --    0.73484   0.77832   0.80676   0.83449   0.84191

 Mulliken charges:
               1
     1  O   -0.586824
     2  H    0.306706
     3  H    0.226288
     4  O   -0.442247
     5  H    0.249201
     6  H    0.246876
 Sum of Mulliken charges =  -0.00000

 Dipole moment (field-independent basis, Debye):
    X=             -2.1573    Y=             -3.9424    Z=             -0.0000  Tot=              4.4940
 Quadrupole moment (field-independent basis, Debye-Ang):
   XX=             -9.5757   YY=             -9.1650   ZZ=            -14.6877
   XY=             -2.9707   XZ=             -0.0000   YZ=             -0.0000

 Normal termination of Gaussian 16 at Fri Aug 26 19:41:03 2022.
