 Gaussian 16, Revision A.03,
 Gaussian 16:  ES64L-G16RevA.03 25-Dec-2016

 ------------------
 #p CCSD(T)/cc-pVTZ
 ------------------

 ------------
 H2O_H2O_3766
 ------------
 Symbolic Z-matrix:
 Charge =  0 Multiplicity = 1

                         Standard orientation:
 ---------------------------------------------------------------------
 Center     Atomic      Atomic             Coordinates (Angstroms)
 Number     Number       Type             X           Y           Z
 ---------------------------------------------------------------------
      1          8           0        0.041123    2.608278    0.000000
      2          1           0        0.039376    1.625678    0.000000
      3          1           0       -0.887803    2.928596    0.000000
      4          8           0        0.041123   -2.428337   -0.000000
      5          1           0        0.891207   -2.921150   -0.000000
      6          1           0       -0.700743   -3.072652   -0.000000
 ---------------------------------------------------------------------

 SCF Done:  E(RHF) =  -152.108978108     A.U. after   10 cycles
 E2 =    -0.5258297101D+00 EUMP2 =    -0.15263480781776D+03
 CCSD(T)
 CCSD(T)= -0.15266198481D+03

 The electronic state is 1-A'.
 Alpha  occ. eigenvalues --  -20.56354 -20.54742  -1.33649  -1.32054  -0.71051
 Alpha  occ. eigenvalues --   -0.69454  -0.57162  -0.55534  -0.50772  -0.49183
 Alpha virt. eigenvalues --    0.12938   0.15355   0.19597   0.21529   0.53483
 Alpha virt. eigenvalues --    0.54996   0.56552   0.57888   0.66754   0.69230
 Alpha virt. eigenvalues --    0.78126   0.79212   0.79640   0.79660   0.82962

 Mulliken charges:
               1
     1  O   -0.516080
     2  H    0.262209
     3  H    0.253092
     4  O   -0.515903
     5  H    0.259191
     6  H    0.257490
 Sum of Mulliken charges =  -0.00000

 Dipole moment (field-independent basis, Debye):
    X=             -1.4073    Y=             -3.1872    Z=             -0.0000  Tot=              3.4841
 Quadrupole moment (field-independent basis, Debye-Ang):
   XX=             -9.1491   YY=             -6.7116   ZZ=            -14.7168
   XY=             -5.4825   XZ=             -0.0000   YZ=              0.0000

 Normal termination of Gaussian 16 at Fri Aug 26 23:33:19 2022.
