 Gaussian 16, Revision A.03,
 Gaussian 16:  ES64L-G16RevA.03 25-Dec-2016

 ------------------
 #p CCSD(T)/cc-pVTZ
 ------------------

 ------------
 H2O_H2O_2699
 ------------
 Symbolic Z-matrix:
 Charge =  0 Multiplicity = 1

                         Standard orientation:
 ---------------------------------------------------------------------
 Center     Atomic      Atomic             Coordinates (Angstroms)
 Number     Number       Type             X           Y           Z
 ---------------------------------------------------------------------
      1          8           0       -0.013539    2.168256    0.000000
      2          1           0       -0.010313    1.185660    0.000000
      3          1           0        0.914902    2.489973    0.000000
      4          8           0       -0.013539   -2.009002    0.000000
      5          1           0       -0.996136   -2.012228    0.000000
      6          1           0        0.308178   -2.937443    0.000000
 ---------------------------------------------------------------------

 SCF Done:  E(RHF) =  -152.110212742     A.U. after   10 cycles
 E2 =    -0.5260045564D+00 EUMP2 =    -0.15263621729854D+03
 CCSD(T)
 CCSD(T)= -0.15266334847D+03

 The electronic state is 1-A'.
 Alpha  occ. eigenvalues --  -20.56776 -20.54542  -1.34060  -1.31865  -0.71474
 Alpha  occ. eigenvalues --   -0.69275  -0.57617  -0.55356  -0.51187  -0.49007
 Alpha virt. eigenvalues --    0.12174   0.16155   0.19243   0.23904   0.54050
 Alpha virt. eigenvalues --    0.55528   0.56231   0.58428   0.68646   0.69912
 Alpha virt. eigenvalues --    0.77611   0.79042   0.79847   0.80689   0.83390

 Mulliken charges:
               1
     1  O   -0.522341
     2  H    0.263688
     3  H    0.254888
     4  O   -0.513530
     5  H    0.258639
     6  H    0.258656
 Sum of Mulliken charges =  -0.00000

 Dipole moment (field-independent basis, Debye):
    X=              0.4671    Y=             -2.8897    Z=              0.0000  Tot=              2.9272
 Quadrupole moment (field-independent basis, Debye-Ang):
   XX=             -9.6486   YY=             -8.0896   ZZ=            -14.7205
   XY=              5.8566   XZ=              0.0000   YZ=              0.0000

 Normal termination of Gaussian 16 at Fri Aug 26 16:39:30 2022.
