 Gaussian 16, Revision A.03,
 Gaussian 16:  ES64L-G16RevA.03 25-Dec-2016

 ------------------
 #p CCSD(T)/cc-pVTZ
 ------------------

 ------------
 H2O_H2O_2712
 ------------
 Symbolic Z-matrix:
 Charge =  0 Multiplicity = 1

                         Standard orientation:
 ---------------------------------------------------------------------
 Center     Atomic      Atomic             Coordinates (Angstroms)
 Number     Number       Type             X           Y           Z
 ---------------------------------------------------------------------
      1          8           0        0.056000    2.188889   -0.000000
      2          1           0        0.054505    1.206289   -0.000000
      3          1           0       -0.873008    2.508969    0.000000
      4          8           0        0.056000   -2.009993   -0.000000
      5          1           0        0.749748   -2.705853   -0.000000
      6          1           0       -0.827238   -2.440570    0.000000
 ---------------------------------------------------------------------

 SCF Done:  E(RHF) =  -152.110279409     A.U. after   10 cycles
 E2 =    -0.5260335072D+00 EUMP2 =    -0.15263631291622D+03
 CCSD(T)
 CCSD(T)= -0.15266343807D+03

 The electronic state is 1-A'.
 Alpha  occ. eigenvalues --  -20.56812 -20.54300  -1.34082  -1.31625  -0.71482
 Alpha  occ. eigenvalues --   -0.69014  -0.57644  -0.55109  -0.51213  -0.48762
 Alpha virt. eigenvalues --    0.12355   0.16186   0.19395   0.23406   0.52992
 Alpha virt. eigenvalues --    0.55606   0.56207   0.58894   0.69003   0.69695
 Alpha virt. eigenvalues --    0.77618   0.78980   0.79920   0.80071   0.83419

 Mulliken charges:
               1
     1  O   -0.520337
     2  H    0.265572
     3  H    0.250249
     4  O   -0.511965
     5  H    0.260300
     6  H    0.256182
 Sum of Mulliken charges =   0.00000

 Dipole moment (field-independent basis, Debye):
    X=             -1.9054    Y=             -3.2528    Z=              0.0000  Tot=              3.7698
 Quadrupole moment (field-independent basis, Debye-Ang):
   XX=             -9.2886   YY=             -7.4198   ZZ=            -14.7210
   XY=             -4.2076   XZ=             -0.0000   YZ=              0.0000

 Normal termination of Gaussian 16 at Fri Aug 26 16:45:15 2022.
