 Gaussian 16, Revision A.03,
 Gaussian 16:  ES64L-G16RevA.03 25-Dec-2016

 ------------------
 #p CCSD(T)/cc-pVTZ
 ------------------

 ------------
 H2O_H2O_1218
 ------------
 Symbolic Z-matrix:
 Charge =  0 Multiplicity = 1

                         Standard orientation:
 ---------------------------------------------------------------------
 Center     Atomic      Atomic             Coordinates (Angstroms)
 Number     Number       Type             X           Y           Z
 ---------------------------------------------------------------------
      1          8           0        0.033892    1.589794    0.000000
      2          1           0        0.030547    0.607199    0.000000
      3          1           0       -0.894510    1.911623    0.000000
      4          8           0        0.033892   -1.412349    0.000000
      5          1           0        0.940411   -1.791462    0.000000
      6          1           0       -0.618724   -2.146923    0.000000
 ---------------------------------------------------------------------

 SCF Done:  E(RHF) =  -152.114180548     A.U. after   10 cycles
 E2 =    -0.5278131619D+00 EUMP2 =    -0.15264199371027D+03
 CCSD(T)
 CCSD(T)= -0.15266892131D+03

 The electronic state is 1-A'.
 Alpha  occ. eigenvalues --  -20.58390 -20.52277  -1.35769  -1.29836  -0.73084
 Alpha  occ. eigenvalues --   -0.67900  -0.59544  -0.53021  -0.52869  -0.46976
 Alpha virt. eigenvalues --    0.12013   0.18145   0.18746   0.30775   0.49339
 Alpha virt. eigenvalues --    0.54605   0.55886   0.61221   0.68584   0.72228
 Alpha virt. eigenvalues --    0.73268   0.77167   0.82110   0.82659   0.84778

 Mulliken charges:
               1
     1  O   -0.557093
     2  H    0.287062
     3  H    0.246348
     4  O   -0.499016
     5  H    0.265950
     6  H    0.256748
 Sum of Mulliken charges =  -0.00000

 Dipole moment (field-independent basis, Debye):
    X=             -1.1305    Y=             -3.6098    Z=             -0.0000  Tot=              3.7827
 Quadrupole moment (field-independent basis, Debye-Ang):
   XX=             -9.1830   YY=             -8.5547   ZZ=            -14.7326
   XY=             -3.7505   XZ=             -0.0000   YZ=             -0.0000

 CCSD(T)=-152.6689213\RMSD=6.696e-09\PG=CS [SG(H4O2)]\\@
 Normal termination of Gaussian 16 at Fri Aug 26 23:11:46 2022.
