 Gaussian 16, Revision A.03,
 Gaussian 16:  ES64L-G16RevA.03 25-Dec-2016

 ------------------
 #p CCSD(T)/cc-pVTZ
 ------------------

 ------------
 H2O_H2O_3104
 ------------
 Symbolic Z-matrix:
 Charge =  0 Multiplicity = 1

                         Standard orientation:
 ---------------------------------------------------------------------
 Center     Atomic      Atomic             Coordinates (Angstroms)
 Number     Number       Type             X           Y           Z
 ---------------------------------------------------------------------
      1          8           0        0.082804   -2.335195    0.000000
      2          1           0        0.082422   -1.352593    0.000000
      3          1           0       -0.846566   -2.654222    0.000000
      4          8           0        0.082804    2.180677    0.000000
      5          1           0        0.336752    3.129897    0.000000
      6          1           0       -0.897468    2.113059    0.000000
 ---------------------------------------------------------------------

 SCF Done:  E(RHF) =  -152.108682374     A.U. after   10 cycles
 E2 =    -0.5260026971D+00 EUMP2 =    -0.15263468507079D+03
 CCSD(T)
 CCSD(T)= -0.15266185525D+03

 The electronic state is 1-A'.
 Alpha  occ. eigenvalues --  -20.56606 -20.54868  -1.33896  -1.32177  -0.71317
 Alpha  occ. eigenvalues --   -0.69560  -0.57387  -0.55640  -0.51012  -0.49297
 Alpha virt. eigenvalues --    0.11997   0.15628   0.19380   0.22640   0.53902
 Alpha virt. eigenvalues --    0.54946   0.56397   0.58276   0.67732   0.69180
 Alpha virt. eigenvalues --    0.77887   0.78627   0.79560   0.80799   0.82785

 Mulliken charges:
               1
     1  O   -0.513201
     2  H    0.261624
     3  H    0.249775
     4  O   -0.510741
     5  H    0.259849
     6  H    0.252695
 Sum of Mulliken charges =  -0.00000

 Dipole moment (field-independent basis, Debye):
    X=             -2.8226    Y=              2.7699    Z=              0.0000  Tot=              3.9547
 Quadrupole moment (field-independent basis, Debye-Ang):
   XX=            -10.2539   YY=             -8.1775   ZZ=            -14.7154
   XY=              2.9989   XZ=              0.0000   YZ=              0.0000

 Normal termination of Gaussian 16 at Fri Aug 26 19:47:24 2022.
