 Gaussian 16, Revision A.03,
 Gaussian 16:  ES64L-G16RevA.03 25-Dec-2016

 ------------------
 #p CCSD(T)/cc-pVTZ
 ------------------

 ------------
 H2O_H2O_1262
 ------------
 Symbolic Z-matrix:
 Charge =  0 Multiplicity = 1

                         Standard orientation:
 ---------------------------------------------------------------------
 Center     Atomic      Atomic             Coordinates (Angstroms)
 Number     Number       Type             X           Y           Z
 ---------------------------------------------------------------------
      1          8           0        0.056051    1.610486   -0.000000
      2          1           0        0.053989    0.627886   -0.000000
      3          1           0       -0.872771    1.931102   -0.000000
      4          8           0        0.056051   -1.431655    0.000000
      5          1           0        0.749396   -2.127916    0.000000
      6          1           0       -0.827436   -1.861721    0.000000
 ---------------------------------------------------------------------

 SCF Done:  E(RHF) =  -152.113828302     A.U. after   10 cycles
 E2 =    -0.5277747584D+00 EUMP2 =    -0.15264160306069D+03
 CCSD(T)
 CCSD(T)= -0.15266854922D+03

 The electronic state is 1-A'.
 Alpha  occ. eigenvalues --  -20.58335 -20.52456  -1.35686  -1.29980  -0.72996
 Alpha  occ. eigenvalues --   -0.67952  -0.59423  -0.53207  -0.52791  -0.47114
 Alpha virt. eigenvalues --    0.11905   0.17619   0.19093   0.30393   0.48955
 Alpha virt. eigenvalues --    0.54856   0.56591   0.59679   0.69561   0.71865
 Alpha virt. eigenvalues --    0.73426   0.76828   0.81984   0.82721   0.84859

 Mulliken charges:
               1
     1  O   -0.549672
     2  H    0.286390
     3  H    0.241644
     4  O   -0.499971
     5  H    0.264094
     6  H    0.257515
 Sum of Mulliken charges =  -0.00000

 Dipole moment (field-independent basis, Debye):
    X=             -1.8654    Y=             -3.6092    Z=              0.0000  Tot=              4.0628
 Quadrupole moment (field-independent basis, Debye-Ang):
   XX=             -9.2967   YY=             -8.4963   ZZ=            -14.7324
   XY=             -3.4495   XZ=              0.0000   YZ=             -0.0000

 Normal termination of Gaussian 16 at Fri Aug 26 23:27:53 2022.
