 Gaussian 16, Revision A.03,
 Gaussian 16:  ES64L-G16RevA.03 25-Dec-2016

 ------------------
 #p CCSD(T)/cc-pVTZ
 ------------------

 ------------
 H2O_H2O_1228
 ------------
 Symbolic Z-matrix:
 Charge =  0 Multiplicity = 1

                         Standard orientation:
 ---------------------------------------------------------------------
 Center     Atomic      Atomic             Coordinates (Angstroms)
 Number     Number       Type             X           Y           Z
 ---------------------------------------------------------------------
      1          8           0        0.085611   -1.584615    0.000000
      2          1           0        0.085198   -0.602014    0.000000
      3          1           0       -0.843748   -1.903672    0.000000
      4          8           0        0.085611    1.435042    0.000000
      5          1           0        0.276903    2.398843    0.000000
      6          1           0       -0.888136    1.303425    0.000000
 ---------------------------------------------------------------------

 SCF Done:  E(RHF) =  -152.110083461     A.U. after   10 cycles
 E2 =    -0.5282996367D+00 EUMP2 =    -0.15263838309775D+03
 CCSD(T)
 CCSD(T)= -0.15266538665D+03

 The electronic state is 1-A'.
 Alpha  occ. eigenvalues --  -20.58304 -20.53488  -1.35747  -1.30942  -0.73495
 Alpha  occ. eigenvalues --   -0.68393  -0.59247  -0.54205  -0.52774  -0.48037
 Alpha virt. eigenvalues --    0.11575   0.16599   0.20130   0.29647   0.48923
 Alpha virt. eigenvalues --    0.54327   0.58137   0.58906   0.68718   0.72906
 Alpha virt. eigenvalues --    0.74598   0.77411   0.81291   0.81703   0.83591

 Mulliken charges:
               1
     1  O   -0.534225
     2  H    0.280674
     3  H    0.236221
     4  O   -0.468298
     5  H    0.242106
     6  H    0.243522
 Sum of Mulliken charges =  -0.00000

 Dipole moment (field-independent basis, Debye):
    X=             -2.8401    Y=              3.0247    Z=              0.0000  Tot=              4.1491
 Quadrupole moment (field-independent basis, Debye-Ang):
   XX=            -10.4493   YY=             -8.8544   ZZ=            -14.7115
   XY=              2.5680   XZ=              0.0000   YZ=              0.0000

 Normal termination of Gaussian 16 at Fri Aug 26 23:15:14 2022.
