 Gaussian 16, Revision A.03,
 Gaussian 16:  ES64L-G16RevA.03 25-Dec-2016

 ------------------
 #p CCSD(T)/cc-pVTZ
 ------------------

 ------------
 H2O_H2O_2335
 ------------
 Symbolic Z-matrix:
 Charge =  0 Multiplicity = 1

                         Standard orientation:
 ---------------------------------------------------------------------
 Center     Atomic      Atomic             Coordinates (Angstroms)
 Number     Number       Type             X           Y           Z
 ---------------------------------------------------------------------
      1          8           0        0.063252    2.037457   -0.000000
      2          1           0        0.061959    1.054856   -0.000000
      3          1           0       -0.865821    2.357346   -0.000000
      4          8           0        0.063252   -1.861972    0.000000
      5          1           0        0.660396   -2.642309    0.000000
      6          1           0       -0.868567   -2.173770    0.000000
 ---------------------------------------------------------------------

 SCF Done:  E(RHF) =  -152.110898118     A.U. after   10 cycles
 E2 =    -0.5262258440D+00 EUMP2 =    -0.15263712396227D+03
 CCSD(T)
 CCSD(T)= -0.15266422487D+03

 The electronic state is 1-A'.
 Alpha  occ. eigenvalues --  -20.57069 -20.54112  -1.34330  -1.31445  -0.71733
 Alpha  occ. eigenvalues --   -0.68835  -0.57926  -0.54917  -0.51462  -0.48585
 Alpha virt. eigenvalues --    0.12172   0.16487   0.19344   0.24638   0.52537
 Alpha virt. eigenvalues --    0.55715   0.56039   0.58841   0.68905   0.71352
 Alpha virt. eigenvalues --    0.77092   0.78552   0.80289   0.82107   0.83589

 Mulliken charges:
               1
     1  O   -0.522469
     2  H    0.266988
     3  H    0.248299
     4  O   -0.508429
     5  H    0.260394
     6  H    0.255216
 Sum of Mulliken charges =  -0.00000

 Dipole moment (field-independent basis, Debye):
    X=             -2.1453    Y=             -3.2398    Z=              0.0000  Tot=              3.8857
 Quadrupole moment (field-independent basis, Debye-Ang):
   XX=             -9.4632   YY=             -7.7553   ZZ=            -14.7230
   XY=             -3.7736   XZ=              0.0000   YZ=             -0.0000

 Normal termination of Gaussian 16 at Sun Aug 28 06:23:51 2022.
