 Gaussian 16, Revision A.03,
 Gaussian 16:  ES64L-G16RevA.03 25-Dec-2016

 ------------------
 #p CCSD(T)/cc-pVTZ
 ------------------

 ------------
 H2O_H2O_2864
 ------------
 Symbolic Z-matrix:
 Charge =  0 Multiplicity = 1

                         Standard orientation:
 ---------------------------------------------------------------------
 Center     Atomic      Atomic             Coordinates (Angstroms)
 Number     Number       Type             X           Y           Z
 ---------------------------------------------------------------------
      1          8           0        0.048590    2.249528    0.000000
      2          1           0        0.046846    1.266928    0.000000
      3          1           0       -0.880336    2.569844    0.000000
      4          8           0        0.048590   -2.069148   -0.000000
      5          1           0        0.827077   -2.668700   -0.000000
      6          1           0       -0.771029   -2.611118   -0.000000
 ---------------------------------------------------------------------

 SCF Done:  E(RHF) =  -152.110123611     A.U. after   10 cycles
 E2 =    -0.5259735568D+00 EUMP2 =    -0.15263609716785D+03
 CCSD(T)
 CCSD(T)= -0.15266323008D+03

 The electronic state is 1-A'.
 Alpha  occ. eigenvalues --  -20.56724 -20.54356  -1.33997  -1.31679  -0.71396
 Alpha  occ. eigenvalues --   -0.69072  -0.57553  -0.55167  -0.51128  -0.48817
 Alpha virt. eigenvalues --    0.12453   0.16074   0.19426   0.23014   0.53063
 Alpha virt. eigenvalues --    0.55533   0.56309   0.58743   0.68780   0.69345
 Alpha virt. eigenvalues --    0.77745   0.79109   0.79465   0.80011   0.83349

 Mulliken charges:
               1
     1  O   -0.520027
     2  H    0.265063
     3  H    0.251259
     4  O   -0.513442
     5  H    0.260259
     6  H    0.256889
 Sum of Mulliken charges =  -0.00000

 Dipole moment (field-independent basis, Debye):
    X=             -1.6552    Y=             -3.2634    Z=             -0.0000  Tot=              3.6591
 Quadrupole moment (field-independent basis, Debye-Ang):
   XX=             -9.1832   YY=             -7.2726   ZZ=            -14.7206
   XY=             -4.5642   XZ=             -0.0000   YZ=              0.0000

 Normal termination of Gaussian 16 at Fri Aug 26 17:51:16 2022.
