 Gaussian 16, Revision A.03,
 Gaussian 16:  ES64L-G16RevA.03 25-Dec-2016

 ------------------
 #p CCSD(T)/cc-pVTZ
 ------------------

 ------------
 H2O_H2O_2384
 ------------
 Symbolic Z-matrix:
 Charge =  0 Multiplicity = 1

                         Standard orientation:
 ---------------------------------------------------------------------
 Center     Atomic      Atomic             Coordinates (Angstroms)
 Number     Number       Type             X           Y           Z
 ---------------------------------------------------------------------
      1          8           0        0.066773    2.056096    0.000000
      2          1           0        0.065645    1.073495    0.000000
      3          1           0       -0.862353    2.375830    0.000000
      4          8           0        0.066773   -1.883012    0.000000
      5          1           0        0.611739   -2.700642    0.000000
      6          1           0       -0.883402   -2.133358    0.000000
 ---------------------------------------------------------------------

 SCF Done:  E(RHF) =  -152.110627781     A.U. after   10 cycles
 E2 =    -0.5262117187D+00 EUMP2 =    -0.15263683949955D+03
 CCSD(T)
 CCSD(T)= -0.15266394704D+03

 The electronic state is 1-A'.
 Alpha  occ. eigenvalues --  -20.57030 -20.54200  -1.34294  -1.31529  -0.71702
 Alpha  occ. eigenvalues --   -0.68915  -0.57875  -0.55001  -0.51424  -0.48667
 Alpha virt. eigenvalues --    0.12136   0.16396   0.19379   0.24418   0.52760
 Alpha virt. eigenvalues --    0.55784   0.55978   0.58756   0.68874   0.71134
 Alpha virt. eigenvalues --    0.77182   0.78727   0.80207   0.81715   0.83525

 Mulliken charges:
               1
     1  O   -0.521271
     2  H    0.266526
     3  H    0.248189
     4  O   -0.508360
     5  H    0.260139
     6  H    0.254777
 Sum of Mulliken charges =  -0.00000

 Dipole moment (field-independent basis, Debye):
    X=             -2.2655    Y=             -3.1870    Z=             -0.0000  Tot=              3.9102
 Quadrupole moment (field-independent basis, Debye-Ang):
   XX=             -9.5710   YY=             -7.7926   ZZ=            -14.7220
   XY=             -3.6627   XZ=             -0.0000   YZ=             -0.0000

 Normal termination of Gaussian 16 at Sun Aug 28 06:49:13 2022.
