 Gaussian 16, Revision A.03,
 Gaussian 16:  ES64L-G16RevA.03 25-Dec-2016

 ------------------
 #p CCSD(T)/cc-pVTZ
 ------------------

 ------------
 H2O_H2O_3584
 ------------
 Symbolic Z-matrix:
 Charge =  0 Multiplicity = 1

                         Standard orientation:
 ---------------------------------------------------------------------
 Center     Atomic      Atomic             Coordinates (Angstroms)
 Number     Number       Type             X           Y           Z
 ---------------------------------------------------------------------
      1          8           0        0.066754    2.534764    0.000000
      2          1           0        0.065846    1.552163    0.000000
      3          1           0       -0.862444    2.854289    0.000000
      4          8           0        0.066754   -2.361649   -0.000000
      5          1           0        0.611904   -3.179157   -0.000000
      6          1           0       -0.883365   -2.612209   -0.000000
 ---------------------------------------------------------------------

 SCF Done:  E(RHF) =  -152.108803137     A.U. after   10 cycles
 E2 =    -0.5258778200D+00 EUMP2 =    -0.15263468095730D+03
 CCSD(T)
 CCSD(T)= -0.15266185803D+03

 The electronic state is 1-A'.
 Alpha  occ. eigenvalues --  -20.56419 -20.54778  -1.33712  -1.32089  -0.71120
 Alpha  occ. eigenvalues --   -0.69481  -0.57216  -0.55562  -0.50833  -0.49213
 Alpha virt. eigenvalues --    0.12671   0.15409   0.19491   0.21722   0.53376
 Alpha virt. eigenvalues --    0.55059   0.56463   0.58019   0.66895   0.69255
 Alpha virt. eigenvalues --    0.78071   0.78829   0.79633   0.80073   0.82913

 Mulliken charges:
               1
     1  O   -0.514529
     2  H    0.261995
     3  H    0.251511
     4  O   -0.514231
     5  H    0.259828
     6  H    0.255426
 Sum of Mulliken charges =   0.00000

 Dipole moment (field-independent basis, Debye):
    X=             -2.2819    Y=             -3.0754    Z=             -0.0000  Tot=              3.8295
 Quadrupole moment (field-independent basis, Debye-Ang):
   XX=             -9.5625   YY=             -7.1388   ZZ=            -14.7162
   XY=             -4.1000   XZ=             -0.0000   YZ=              0.0000

 Normal termination of Gaussian 16 at Fri Aug 26 22:31:38 2022.
