 Gaussian 16, Revision A.03,
 Gaussian 16:  ES64L-G16RevA.03 25-Dec-2016

 ------------------
 #p CCSD(T)/cc-pVTZ
 ------------------

 ----------
 H2O_H2O_90
 ----------
 Symbolic Z-matrix:
 Charge =  0 Multiplicity = 1

                         Standard orientation:
 ---------------------------------------------------------------------
 Center     Atomic      Atomic             Coordinates (Angstroms)
 Number     Number       Type             X           Y           Z
 ---------------------------------------------------------------------
      1          8           0        0.045049    1.142564   -0.000000
      2          1           0        0.041170    0.159970   -0.000000
      3          1           0       -0.883179    1.464897    0.000000
      4          8           0        0.045049   -0.962354   -0.000000
      5          1           0        0.859891   -1.511478   -0.000000
      6          1           0       -0.738658   -1.555068    0.000000
 ---------------------------------------------------------------------

 SCF Done:  E(RHF) =  -152.047450007     A.U. after   11 cycles
 E2 =    -0.5354414129D+00 EUMP2 =    -0.15258289141980D+03
 CCSD(T)
 CCSD(T)= -0.15260849207D+03

 The electronic state is 1-A'.
 Alpha  occ. eigenvalues --  -20.61967 -20.44273  -1.43376  -1.24514  -0.78676
 Alpha  occ. eigenvalues --   -0.77784  -0.58430  -0.54818  -0.44496  -0.41012
 Alpha virt. eigenvalues --    0.10389   0.16521   0.21105   0.33068   0.46819
 Alpha virt. eigenvalues --    0.52040   0.63011   0.65228   0.70582   0.70792
 Alpha virt. eigenvalues --    0.78740   0.79648   0.81327   0.82289   0.87706

 Mulliken charges:
               1
     1  O   -0.672021
     2  H    0.290823
     3  H    0.204658
     4  O   -0.320026
     5  H    0.254939
     6  H    0.241626
 Sum of Mulliken charges =  -0.00000

 Dipole moment (field-independent basis, Debye):
    X=             -1.3633    Y=             -5.0487    Z=              0.0000  Tot=              5.2295
 Quadrupole moment (field-independent basis, Debye-Ang):
   XX=             -9.0995   YY=            -10.1990   ZZ=            -14.5664
   XY=             -2.6885   XZ=             -0.0000   YZ=              0.0000

 Normal termination of Gaussian 16 at Fri Aug 26 15:47:28 2022.
