 Gaussian 16, Revision A.03,
 Gaussian 16:  ES64L-G16RevA.03 25-Dec-2016

 ------------------
 #p CCSD(T)/cc-pVTZ
 ------------------

 ------------
 H2O_H2O_1586
 ------------
 Symbolic Z-matrix:
 Charge =  0 Multiplicity = 1

                         Standard orientation:
 ---------------------------------------------------------------------
 Center     Atomic      Atomic             Coordinates (Angstroms)
 Number     Number       Type             X           Y           Z
 ---------------------------------------------------------------------
      1          8           0        0.059683    1.739336   -0.000000
      2          1           0        0.057970    0.756736   -0.000000
      3          1           0       -0.869254    2.059622   -0.000000
      4          8           0        0.059683   -1.561947    0.000000
      5          1           0        0.706269   -2.301834    0.000000
      6          1           0       -0.849907   -1.933633    0.000000
 ---------------------------------------------------------------------

 SCF Done:  E(RHF) =  -152.113171005     A.U. after   10 cycles
 E2 =    -0.5270269848D+00 EUMP2 =    -0.15264019799028D+03
 CCSD(T)
 CCSD(T)= -0.15266721628D+03

 The electronic state is 1-A'.
 Alpha  occ. eigenvalues --  -20.57836 -20.53199  -1.35113  -1.30613  -0.72484
 Alpha  occ. eigenvalues --   -0.68169  -0.58877  -0.53985  -0.52240  -0.47758
 Alpha virt. eigenvalues --    0.12003   0.17261   0.19170   0.28360   0.49941
 Alpha virt. eigenvalues --    0.55005   0.56383   0.59071   0.69352   0.72496
 Alpha virt. eigenvalues --    0.74666   0.76819   0.81291   0.83067   0.84543

 Mulliken charges:
               1
     1  O   -0.535903
     2  H    0.275570
     3  H    0.244379
     4  O   -0.504243
     5  H    0.263460
     6  H    0.256736
 Sum of Mulliken charges =  -0.00000

 Dipole moment (field-independent basis, Debye):
    X=             -2.0027    Y=             -3.4465    Z=              0.0000  Tot=              3.9861
 Quadrupole moment (field-independent basis, Debye-Ang):
   XX=             -9.3766   YY=             -8.2301   ZZ=            -14.7325
   XY=             -3.5445   XZ=              0.0000   YZ=             -0.0000

 Normal termination of Gaussian 16 at Sat Aug 27 23:29:59 2022.
