 Gaussian 16, Revision A.03,
 Gaussian 16:  ES64L-G16RevA.03 25-Dec-2016

 ------------------
 #p CCSD(T)/cc-pVTZ
 ------------------

 ------------
 H2O_H2O_4906
 ------------
 Symbolic Z-matrix:
 Charge =  0 Multiplicity = 1

                         Standard orientation:
 ---------------------------------------------------------------------
 Center     Atomic      Atomic             Coordinates (Angstroms)
 Number     Number       Type             X           Y           Z
 ---------------------------------------------------------------------
      1          8           0        0.076746    3.057906   -0.000000
      2          1           0        0.076284    2.075305   -0.000000
      3          1           0       -0.852597    3.377009    0.000000
      4          8           0        0.076746   -2.894675   -0.000000
      5          1           0        0.452344   -3.802657   -0.000000
      6          1           0       -0.903971   -2.955506    0.000000
 ---------------------------------------------------------------------

 SCF Done:  E(RHF) =  -152.107940712     A.U. after   10 cycles
 E2 =    -0.5258362305D+00 EUMP2 =    -0.15263377694213D+03
 CCSD(T)
 CCSD(T)= -0.15266098571D+03

 The electronic state is 1-A'.
 Alpha  occ. eigenvalues --  -20.56132 -20.55161  -1.33434  -1.32464  -0.70843
 Alpha  occ. eigenvalues --   -0.69863  -0.56906  -0.55924  -0.50549  -0.49581
 Alpha virt. eigenvalues --    0.13398   0.14665   0.19532   0.20939   0.53599
 Alpha virt. eigenvalues --    0.54761   0.56669   0.57672   0.67076   0.68422
 Alpha virt. eigenvalues --    0.78337   0.79285   0.79701   0.80723   0.81961

 Mulliken charges:
               1
     1  O   -0.511357
     2  H    0.258617
     3  H    0.252709
     4  O   -0.512184
     5  H    0.257894
     6  H    0.254321
 Sum of Mulliken charges =  -0.00000

 Dipole moment (field-independent basis, Debye):
    X=             -2.6343    Y=             -2.8565    Z=              0.0000  Tot=              3.8858
 Quadrupole moment (field-independent basis, Debye-Ang):
   XX=             -9.9471   YY=             -7.0779   ZZ=            -14.7131
   XY=             -3.7986   XZ=             -0.0000   YZ=              0.0000

 Normal termination of Gaussian 16 at Sun Aug 28 06:48:26 2022.
