 Gaussian 16, Revision A.03,
 Gaussian 16:  ES64L-G16RevA.03 25-Dec-2016

 ------------------
 #p CCSD(T)/cc-pVTZ
 ------------------

 ------------
 H2O_H2O_1010
 ------------
 Symbolic Z-matrix:
 Charge =  0 Multiplicity = 1

                         Standard orientation:
 ---------------------------------------------------------------------
 Center     Atomic      Atomic             Coordinates (Angstroms)
 Number     Number       Type             X           Y           Z
 ---------------------------------------------------------------------
      1          8           0        0.063295    1.508914    0.000000
      2          1           0        0.061521    0.526314    0.000000
      3          1           0       -0.865621    1.829259    0.000000
      4          8           0        0.063295   -1.333492   -0.000000
      5          1           0        0.660057   -2.114121   -0.000000
      6          1           0       -0.868677   -1.644833   -0.000000
 ---------------------------------------------------------------------

 SCF Done:  E(RHF) =  -152.112469638     A.U. after   10 cycles
 E2 =    -0.5287563048D+00 EUMP2 =    -0.15264122594250D+03
 CCSD(T)
 CCSD(T)= -0.15266807973D+03

 The electronic state is 1-A'.
 Alpha  occ. eigenvalues --  -20.58814 -20.51836  -1.36326  -1.29502  -0.73633
 Alpha  occ. eigenvalues --   -0.68149  -0.59667  -0.53364  -0.52541  -0.46601
 Alpha virt. eigenvalues --    0.11707   0.17454   0.19387   0.31711   0.48286
 Alpha virt. eigenvalues --    0.54620   0.58245   0.59717   0.69843   0.72718
 Alpha virt. eigenvalues --    0.72763   0.76977   0.82063   0.82573   0.84559

 Mulliken charges:
               1
     1  O   -0.561411
     2  H    0.296465
     3  H    0.236126
     4  O   -0.482575
     5  H    0.257810
     6  H    0.253585
 Sum of Mulliken charges =  -0.00000

 Dipole moment (field-independent basis, Debye):
    X=             -2.0855    Y=             -3.6862    Z=             -0.0000  Tot=              4.2352
 Quadrupole moment (field-independent basis, Debye-Ang):
   XX=             -9.4725   YY=             -8.7612   ZZ=            -14.7212
   XY=             -3.1988   XZ=             -0.0000   YZ=              0.0000

 CCSD(T)=-152.6680797\RMSD=7.752e-09\PG=CS [SG(H4O2)]\\@
 Normal termination of Gaussian 16 at Fri Aug 26 21:53:25 2022.
