 Gaussian 16, Revision A.03,
 Gaussian 16:  ES64L-G16RevA.03 25-Dec-2016

 ------------------
 #p CCSD(T)/cc-pVTZ
 ------------------

 ------------
 H2O_H2O_2003
 ------------
 Symbolic Z-matrix:
 Charge =  0 Multiplicity = 1

                         Standard orientation:
 ---------------------------------------------------------------------
 Center     Atomic      Atomic             Coordinates (Angstroms)
 Number     Number       Type             X           Y           Z
 ---------------------------------------------------------------------
      1          8           0        0.085606   -1.893751    0.000000
      2          1           0        0.085263   -0.911149    0.000000
      3          1           0       -0.843776   -2.212742    0.000000
      4          8           0        0.085606    1.744166    0.000000
      5          1           0        0.276966    2.707954    0.000000
      6          1           0       -0.888150    1.612618    0.000000
 ---------------------------------------------------------------------

 SCF Done:  E(RHF) =  -152.109946291     A.U. after   10 cycles
 E2 =    -0.5266391686D+00 EUMP2 =    -0.15263658545971D+03
 CCSD(T)
 CCSD(T)= -0.15266369325D+03

 The electronic state is 1-A'.
 Alpha  occ. eigenvalues --  -20.57320 -20.54447  -1.34606  -1.31773  -0.72090
 Alpha  occ. eigenvalues --   -0.69124  -0.58153  -0.55205  -0.51712  -0.48895
 Alpha virt. eigenvalues --    0.11675   0.16298   0.19849   0.25623   0.51849
 Alpha virt. eigenvalues --    0.55672   0.56734   0.57695   0.68612   0.73478
 Alpha virt. eigenvalues --    0.76147   0.78750   0.80165   0.82737   0.83155

 Mulliken charges:
               1
     1  O   -0.518629
     2  H    0.266792
     3  H    0.244676
     4  O   -0.500930
     5  H    0.258600
     6  H    0.249491
 Sum of Mulliken charges =  -0.00000

 Dipole moment (field-independent basis, Debye):
    X=             -2.8879    Y=              2.8004    Z=              0.0000  Tot=              4.0227
 Quadrupole moment (field-independent basis, Debye-Ang):
   XX=            -10.4297   YY=             -8.6194   ZZ=            -14.7188
   XY=              2.6725   XZ=              0.0000   YZ=              0.0000

 Normal termination of Gaussian 16 at Sun Aug 28 03:28:16 2022.
