 Gaussian 16, Revision A.03,
 Gaussian 16:  ES64L-G16RevA.03 25-Dec-2016

 ------------------
 #p CCSD(T)/cc-pVTZ
 ------------------

 ------------
 H2O_H2O_4419
 ------------
 Symbolic Z-matrix:
 Charge =  0 Multiplicity = 1

                         Standard orientation:
 ---------------------------------------------------------------------
 Center     Atomic      Atomic             Coordinates (Angstroms)
 Number     Number       Type             X           Y           Z
 ---------------------------------------------------------------------
      1          8           0        0.030150    2.865210    0.000000
      2          1           0        0.028232    1.882610    0.000000
      3          1           0       -0.898719    3.185690    0.000000
      4          8           0        0.030150   -2.689576   -0.000000
      5          1           0        0.959987   -3.007238   -0.000000
      6          1           0       -0.571898   -3.466136   -0.000000
 ---------------------------------------------------------------------

 SCF Done:  E(RHF) =  -152.108525786     A.U. after   10 cycles
 E2 =    -0.5258005766D+00 EUMP2 =    -0.15263432636304D+03
 CCSD(T)
 CCSD(T)= -0.15266152106D+03

 The electronic state is 1-A'.
 Alpha  occ. eigenvalues --  -20.56196 -20.54951  -1.33497  -1.32259  -0.70901
 Alpha  occ. eigenvalues --   -0.69663  -0.56995  -0.55734  -0.50617  -0.49384
 Alpha virt. eigenvalues --    0.13298   0.14974   0.19632   0.21136   0.53572
 Alpha virt. eigenvalues --    0.54895   0.56663   0.57804   0.66793   0.68786
 Alpha virt. eigenvalues --    0.78270   0.79470   0.79504   0.80302   0.82686

 Mulliken charges:
               1
     1  O   -0.514584
     2  H    0.260374
     3  H    0.254052
     4  O   -0.515178
     5  H    0.257862
     6  H    0.257474
 Sum of Mulliken charges =  -0.00000

 Dipole moment (field-independent basis, Debye):
    X=             -1.0344    Y=             -3.0848    Z=             -0.0000  Tot=              3.2536
 Quadrupole moment (field-independent basis, Debye-Ang):
   XX=             -9.2303   YY=             -6.5332   ZZ=            -14.7152
   XY=             -6.6003   XZ=             -0.0000   YZ=              0.0000

 Normal termination of Gaussian 16 at Sun Aug 28 02:43:19 2022.
