 Gaussian 16, Revision A.03,
 Gaussian 16:  ES64L-G16RevA.03 25-Dec-2016

 ------------------
 #p CCSD(T)/cc-pVTZ
 ------------------

 ------------
 H2O_H2O_2101
 ------------
 Symbolic Z-matrix:
 Charge =  0 Multiplicity = 1

                         Standard orientation:
 ---------------------------------------------------------------------
 Center     Atomic      Atomic             Coordinates (Angstroms)
 Number     Number       Type             X           Y           Z
 ---------------------------------------------------------------------
      1          8           0        0.090686   -1.927729    0.000000
      2          1           0        0.090582   -0.945127    0.000000
      3          1           0       -0.838773   -2.246493    0.000000
      4          8           0        0.090686    1.789024    0.000000
      5          1           0        0.154848    2.769528    0.000000
      6          1           0       -0.857632    1.531731    0.000000
 ---------------------------------------------------------------------

 SCF Done:  E(RHF) =  -152.109108838     A.U. after   10 cycles
 E2 =    -0.5266002056D+00 EUMP2 =    -0.15263570904342D+03
 CCSD(T)
 CCSD(T)= -0.15266284110D+03

 The electronic state is 1-A'.
 Alpha  occ. eigenvalues --  -20.57221 -20.54762  -1.34513  -1.32074  -0.72018
 Alpha  occ. eigenvalues --   -0.69405  -0.58016  -0.55506  -0.51612  -0.49188
 Alpha virt. eigenvalues --    0.11516   0.16103   0.20038   0.25204   0.52370
 Alpha virt. eigenvalues --    0.55704   0.56855   0.57452   0.68257   0.73265
 Alpha virt. eigenvalues --    0.76411   0.79001   0.79879   0.81394   0.83098

 Mulliken charges:
               1
     1  O   -0.515325
     2  H    0.265274
     3  H    0.245082
     4  O   -0.500474
     5  H    0.258561
     6  H    0.246883
 Sum of Mulliken charges =  -0.00000

 Dipole moment (field-independent basis, Debye):
    X=             -3.0613    Y=              2.5770    Z=              0.0000  Tot=              4.0015
 Quadrupole moment (field-independent basis, Debye-Ang):
   XX=            -10.7331   YY=             -8.9514   ZZ=            -14.7152
   XY=              2.3261   XZ=              0.0000   YZ=              0.0000

 Normal termination of Gaussian 16 at Sun Aug 28 04:19:08 2022.
