 Gaussian 16, Revision A.03,
 Gaussian 16:  ES64L-G16RevA.03 25-Dec-2016

 ------------------
 #p CCSD(T)/cc-pVTZ
 ------------------

 ------------
 H2O_H2O_3300
 ------------
 Symbolic Z-matrix:
 Charge =  0 Multiplicity = 1

                         Standard orientation:
 ---------------------------------------------------------------------
 Center     Atomic      Atomic             Coordinates (Angstroms)
 Number     Number       Type             X           Y           Z
 ---------------------------------------------------------------------
      1          8           0        0.092949   -2.403167    0.000000
      2          1           0        0.092949   -1.420565    0.000000
      3          1           0       -0.836544   -2.721833    0.000000
      4          8           0        0.092949    2.270379    0.000000
      5          1           0        0.092950    3.252982    0.000000
      6          1           0       -0.836544    1.951713    0.000000
 ---------------------------------------------------------------------

 SCF Done:  E(RHF) =  -152.107902396     A.U. after   10 cycles
 E2 =    -0.5260056160D+00 EUMP2 =    -0.15263390801181D+03
 CCSD(T)
 CCSD(T)= -0.15266110320D+03

 The electronic state is 1-A'.
 Alpha  occ. eigenvalues --  -20.56528 -20.55210  -1.33825  -1.32511  -0.71254
 Alpha  occ. eigenvalues --   -0.69896  -0.57289  -0.55961  -0.50933  -0.49623
 Alpha virt. eigenvalues --    0.11629   0.15387   0.19139   0.23001   0.53813
 Alpha virt. eigenvalues --    0.54739   0.56457   0.58016   0.67305   0.68844
 Alpha virt. eigenvalues --    0.77972   0.78533   0.79252   0.81252   0.82488

 Mulliken charges:
               1
     1  O   -0.509906
     2  H    0.259013
     3  H    0.250111
     4  O   -0.509277
     5  H    0.259673
     6  H    0.250387
 Sum of Mulliken charges =  -0.00000

 Dipole moment (field-independent basis, Debye):
    X=             -3.1712    Y=              2.3660    Z=              0.0000  Tot=              3.9566
 Quadrupole moment (field-independent basis, Debye-Ang):
   XX=            -10.8543   YY=             -9.2346   ZZ=            -14.7123
   XY=              2.1509   XZ=              0.0000   YZ=              0.0000

 Normal termination of Gaussian 16 at Fri Aug 26 20:54:50 2022.
