 Gaussian 16, Revision A.03,
 Gaussian 16:  ES64L-G16RevA.03 25-Dec-2016

 ------------------
 #p CCSD(T)/cc-pVTZ
 ------------------

 ------------
 H2O_H2O_3524
 ------------
 Symbolic Z-matrix:
 Charge =  0 Multiplicity = 1

                         Standard orientation:
 ---------------------------------------------------------------------
 Center     Atomic      Atomic             Coordinates (Angstroms)
 Number     Number       Type             X           Y           Z
 ---------------------------------------------------------------------
      1          8           0       -0.013504    2.497335    0.000000
      2          1           0       -0.010716    1.514737    0.000000
      3          1           0        0.915081    2.818637    0.000000
      4          8           0       -0.013504   -2.338068    0.000000
      5          1           0       -0.996102   -2.340855    0.000000
      6          1           0        0.307798   -3.266653    0.000000
 ---------------------------------------------------------------------

 SCF Done:  E(RHF) =  -152.109080199     A.U. after   10 cycles
 E2 =    -0.5258435650D+00 EUMP2 =    -0.15263492376426D+03
 CCSD(T)
 CCSD(T)= -0.15266209710D+03

 The electronic state is 1-A'.
 Alpha  occ. eigenvalues --  -20.56416 -20.54866  -1.33713  -1.32179  -0.71121
 Alpha  occ. eigenvalues --   -0.69587  -0.57226  -0.55663  -0.50835  -0.49309
 Alpha virt. eigenvalues --    0.12471   0.15481   0.19190   0.22322   0.53308
 Alpha virt. eigenvalues --    0.55364   0.56551   0.57938   0.66945   0.69217
 Alpha virt. eigenvalues --    0.78065   0.78698   0.79536   0.80814   0.82884

 Mulliken charges:
               1
     1  O   -0.516999
     2  H    0.260941
     3  H    0.255062
     4  O   -0.515874
     5  H    0.257723
     6  H    0.259147
 Sum of Mulliken charges =  -0.00000

 Dipole moment (field-independent basis, Debye):
    X=              0.4651    Y=             -2.8289    Z=              0.0000  Tot=              2.8669
 Quadrupole moment (field-independent basis, Debye-Ang):
   XX=             -9.6478   YY=             -7.8075   ZZ=            -14.7170
   XY=              6.7571   XZ=              0.0000   YZ=              0.0000

 Normal termination of Gaussian 16 at Fri Aug 26 22:11:43 2022.
