 Gaussian 16, Revision A.03,
 Gaussian 16:  ES64L-G16RevA.03 25-Dec-2016

 ------------------
 #p CCSD(T)/cc-pVTZ
 ------------------

 ------------
 H2O_H2O_3078
 ------------
 Symbolic Z-matrix:
 Charge =  0 Multiplicity = 1

                         Standard orientation:
 ---------------------------------------------------------------------
 Center     Atomic      Atomic             Coordinates (Angstroms)
 Number     Number       Type             X           Y           Z
 ---------------------------------------------------------------------
      1          8           0        0.085601   -2.322550    0.000000
      2          1           0        0.085324   -1.339948    0.000000
      3          1           0       -0.843802   -2.641479    0.000000
      4          8           0        0.085601    2.172954    0.000000
      5          1           0        0.277025    3.136729    0.000000
      6          1           0       -0.888164    2.041469    0.000000
 ---------------------------------------------------------------------

 SCF Done:  E(RHF) =  -152.108545638     A.U. after   10 cycles
 E2 =    -0.5260210118D+00 EUMP2 =    -0.15263456664992D+03
 CCSD(T)
 CCSD(T)= -0.15266173979D+03

 The electronic state is 1-A'.
 Alpha  occ. eigenvalues --  -20.56617 -20.54931  -1.33908  -1.32238  -0.71332
 Alpha  occ. eigenvalues --   -0.69620  -0.57394  -0.55698  -0.51022  -0.49356
 Alpha virt. eigenvalues --    0.11881   0.15613   0.19373   0.22778   0.54048
 Alpha virt. eigenvalues --    0.54839   0.56419   0.58233   0.67796   0.69121
 Alpha virt. eigenvalues --    0.77874   0.78585   0.79506   0.80932   0.82729

 Mulliken charges:
               1
     1  O   -0.512576
     2  H    0.261255
     3  H    0.249610
     4  O   -0.510079
     5  H    0.259794
     6  H    0.251996
 Sum of Mulliken charges =  -0.00000

 Dipole moment (field-independent basis, Debye):
    X=             -2.9171    Y=              2.6823    Z=              0.0000  Tot=              3.9629
 Quadrupole moment (field-independent basis, Debye-Ang):
   XX=            -10.4078   YY=             -8.4067   ZZ=            -14.7148
   XY=              2.7913   XZ=              0.0000   YZ=              0.0000

 CCSD(T)=-152.6617398\RMSD=7.142e-09\PG=CS [SG(H4O2)]\\@
 Normal termination of Gaussian 16 at Fri Aug 26 19:38:55 2022.
