 Gaussian 16, Revision A.03,
 Gaussian 16:  ES64L-G16RevA.03 25-Dec-2016

 ------------------
 #p CCSD(T)/cc-pVTZ
 ------------------

 ------------
 H2O_H2O_2863
 ------------
 Symbolic Z-matrix:
 Charge =  0 Multiplicity = 1

                         Standard orientation:
 ---------------------------------------------------------------------
 Center     Atomic      Atomic             Coordinates (Angstroms)
 Number     Number       Type             X           Y           Z
 ---------------------------------------------------------------------
      1          8           0        0.052305    2.249257   -0.000000
      2          1           0        0.050707    1.266657   -0.000000
      3          1           0       -0.876668    2.569435   -0.000000
      4          8           0        0.052305   -2.069374    0.000000
      5          1           0        0.790011   -2.718449    0.000000
      6          1           0       -0.800932   -2.556706    0.000000
 ---------------------------------------------------------------------

 SCF Done:  E(RHF) =  -152.110065417     A.U. after   10 cycles
 E2 =    -0.5259802404D+00 EUMP2 =    -0.15263604565777D+03
 CCSD(T)
 CCSD(T)= -0.15266317955D+03

 The electronic state is 1-A'.
 Alpha  occ. eigenvalues --  -20.56725 -20.54368  -1.33999  -1.31690  -0.71399
 Alpha  occ. eigenvalues --   -0.69082  -0.57552  -0.55176  -0.51129  -0.48827
 Alpha virt. eigenvalues --    0.12435   0.16061   0.19428   0.23002   0.53085
 Alpha virt. eigenvalues --    0.55525   0.56283   0.58753   0.68759   0.69350
 Alpha virt. eigenvalues --    0.77744   0.79107   0.79483   0.80002   0.83333

 Mulliken charges:
               1
     1  O   -0.519652
     2  H    0.265018
     3  H    0.250949
     4  O   -0.513177
     5  H    0.260268
     6  H    0.256595
 Sum of Mulliken charges =  -0.00000

 Dipole moment (field-independent basis, Debye):
    X=             -1.7816    Y=             -3.2543    Z=              0.0000  Tot=              3.7101
 Quadrupole moment (field-independent basis, Debye-Ang):
   XX=             -9.2269   YY=             -7.2904   ZZ=            -14.7204
   XY=             -4.4256   XZ=              0.0000   YZ=              0.0000

 Normal termination of Gaussian 16 at Fri Aug 26 17:50:53 2022.
