 Gaussian 16, Revision A.03,
 Gaussian 16:  ES64L-G16RevA.03 25-Dec-2016

 ------------------
 #p CCSD(T)/cc-pVTZ
 ------------------

 ------------
 H2O_H2O_3786
 ------------
 Symbolic Z-matrix:
 Charge =  0 Multiplicity = 1

                         Standard orientation:
 ---------------------------------------------------------------------
 Center     Atomic      Atomic             Coordinates (Angstroms)
 Number     Number       Type             X           Y           Z
 ---------------------------------------------------------------------
      1          8           0        0.059629    2.616901    0.000000
      2          1           0        0.058511    1.634300    0.000000
      3          1           0       -0.869501    2.936625    0.000000
      4          8           0        0.059629   -2.439440   -0.000000
      5          1           0        0.706663   -3.178935   -0.000000
      6          1           0       -0.849736   -2.811676   -0.000000
 ---------------------------------------------------------------------

 SCF Done:  E(RHF) =  -152.108765647     A.U. after   10 cycles
 E2 =    -0.5258475638D+00 EUMP2 =    -0.15263461321074D+03
 CCSD(T)
 CCSD(T)= -0.15266179468D+03

 The electronic state is 1-A'.
 Alpha  occ. eigenvalues --  -20.56355 -20.54789  -1.33650  -1.32100  -0.71055
 Alpha  occ. eigenvalues --   -0.69495  -0.57154  -0.55574  -0.50770  -0.49225
 Alpha virt. eigenvalues --    0.12889   0.15302   0.19570   0.21487   0.53448
 Alpha virt. eigenvalues --    0.54977   0.56523   0.57902   0.66739   0.69199
 Alpha virt. eigenvalues --    0.78128   0.79075   0.79622   0.79867   0.82909

 Mulliken charges:
               1
     1  O   -0.514759
     2  H    0.261909
     3  H    0.252132
     4  O   -0.514934
     5  H    0.259553
     6  H    0.256099
 Sum of Mulliken charges =   0.00000

 Dipole moment (field-independent basis, Debye):
    X=             -2.0401    Y=             -3.1423    Z=             -0.0000  Tot=              3.7465
 Quadrupole moment (field-independent basis, Debye-Ang):
   XX=             -9.3626   YY=             -6.8199   ZZ=            -14.7161
   XY=             -4.5671   XZ=             -0.0000   YZ=              0.0000

 Normal termination of Gaussian 16 at Fri Aug 26 23:39:57 2022.
