 Gaussian 16, Revision A.03,
 Gaussian 16:  ES64L-G16RevA.03 25-Dec-2016

 ------------------
 #p CCSD(T)/cc-pVTZ
 ------------------

 -----------
 H2O_H2O_747
 -----------
 Symbolic Z-matrix:
 Charge =  0 Multiplicity = 1

                         Standard orientation:
 ---------------------------------------------------------------------
 Center     Atomic      Atomic             Coordinates (Angstroms)
 Number     Number       Type             X           Y           Z
 ---------------------------------------------------------------------
      1          8           0       -0.020030    1.394673    0.000000
      2          1           0       -0.015300    0.412083    0.000000
      3          1           0        0.907918    1.717810    0.000000
      4          8           0       -0.020030   -1.227650    0.000000
      5          1           0       -0.993597   -1.360593    0.000000
      6          1           0        0.421465   -2.105482    0.000000
 ---------------------------------------------------------------------

 SCF Done:  E(RHF) =  -152.108318871     A.U. after   10 cycles
 E2 =    -0.5300321001D+00 EUMP2 =    -0.15263835097114D+03
 CCSD(T)
 CCSD(T)= -0.15266501841D+03

 The electronic state is 1-A'.
 Alpha  occ. eigenvalues --  -20.59365 -20.50718  -1.37300  -1.28689  -0.74905
 Alpha  occ. eigenvalues --   -0.68395  -0.59891  -0.54158  -0.51302  -0.45755
 Alpha virt. eigenvalues --    0.11761   0.18275   0.19086   0.33313   0.48120
 Alpha virt. eigenvalues --    0.54104   0.57295   0.66109   0.68212   0.72275
 Alpha virt. eigenvalues --    0.73827   0.76795   0.80519   0.83495   0.84077

 Mulliken charges:
               1
     1  O   -0.593115
     2  H    0.298214
     3  H    0.244750
     4  O   -0.449896
     5  H    0.260503
     6  H    0.239544
 Sum of Mulliken charges =  -0.00000

 Dipole moment (field-independent basis, Debye):
    X=              0.6640    Y=             -3.7459    Z=              0.0000  Tot=              3.8043
 Quadrupole moment (field-independent basis, Debye-Ang):
   XX=             -9.4203   YY=             -9.0876   ZZ=            -14.6976
   XY=              3.5450   XZ=              0.0000   YZ=              0.0000

 Normal termination of Gaussian 16 at Fri Aug 26 20:15:33 2022.
