 Gaussian 16, Revision A.03,
 Gaussian 16:  ES64L-G16RevA.03 25-Dec-2016

 ------------------
 #p CCSD(T)/cc-pVTZ
 ------------------

 -----------
 H2O_H2O_547
 -----------
 Symbolic Z-matrix:
 Charge =  0 Multiplicity = 1

                         Standard orientation:
 ---------------------------------------------------------------------
 Center     Atomic      Atomic             Coordinates (Angstroms)
 Number     Number       Type             X           Y           Z
 ---------------------------------------------------------------------
      1          8           0       -0.020056    1.314892    0.000000
      2          1           0       -0.015020    0.332303    0.000000
      3          1           0        0.907791    1.638319    0.000000
      4          8           0       -0.020056   -1.147882    0.000000
      5          1           0       -0.993581   -1.281129    0.000000
      6          1           0        0.421712   -2.025576    0.000000
 ---------------------------------------------------------------------

 SCF Done:  E(RHF) =  -152.100572732     A.U. after   11 cycles
 E2 =    -0.5315165163D+00 EUMP2 =    -0.15263208924860D+03
 CCSD(T)
 CCSD(T)= -0.15265852325D+03

 The electronic state is 1-A'.
 Alpha  occ. eigenvalues --  -20.59960 -20.49445  -1.38441  -1.27785  -0.76147
 Alpha  occ. eigenvalues --   -0.69410  -0.59338  -0.55038  -0.49941  -0.44780
 Alpha virt. eigenvalues --    0.11524   0.18032   0.19509   0.33912   0.47698
 Alpha virt. eigenvalues --    0.53530   0.58418   0.68233   0.69138   0.72175
 Alpha virt. eigenvalues --    0.74233   0.76890   0.79468   0.83882   0.84141

 Mulliken charges:
               1
     1  O   -0.613840
     2  H    0.299367
     3  H    0.240070
     4  O   -0.421698
     5  H    0.259762
     6  H    0.236339
 Sum of Mulliken charges =  -0.00000

 Dipole moment (field-independent basis, Debye):
    X=              0.6542    Y=             -3.9736    Z=              0.0000  Tot=              4.0271
 Quadrupole moment (field-independent basis, Debye-Ang):
   XX=             -9.4011   YY=             -9.3340   ZZ=            -14.6705
   XY=              3.3286   XZ=              0.0000   YZ=              0.0000

 Normal termination of Gaussian 16 at Fri Aug 26 18:58:26 2022.
