 Gaussian 16, Revision A.03,
 Gaussian 16:  ES64L-G16RevA.03 25-Dec-2016

 ------------------
 #p CCSD(T)/cc-pVTZ
 ------------------

 ------------
 H2O_H2O_3734
 ------------
 Symbolic Z-matrix:
 Charge =  0 Multiplicity = 1

                         Standard orientation:
 ---------------------------------------------------------------------
 Center     Atomic      Atomic             Coordinates (Angstroms)
 Number     Number       Type             X           Y           Z
 ---------------------------------------------------------------------
      1          8           0        0.066752    2.594597   -0.000000
      2          1           0        0.065865    1.611996   -0.000000
      3          1           0       -0.862453    2.914102    0.000000
      4          8           0        0.066752   -2.421480   -0.000000
      5          1           0        0.611919   -3.238975   -0.000000
      6          1           0       -0.883362   -2.672059    0.000000
 ---------------------------------------------------------------------

 SCF Done:  E(RHF) =  -152.108676082     A.U. after   10 cycles
 E2 =    -0.5258628259D+00 EUMP2 =    -0.15263453890806D+03
 CCSD(T)
 CCSD(T)= -0.15266172146D+03

 The electronic state is 1-A'.
 Alpha  occ. eigenvalues --  -20.56372 -20.54824  -1.33667  -1.32134  -0.71075
 Alpha  occ. eigenvalues --   -0.69528  -0.57167  -0.55605  -0.50787  -0.49258
 Alpha virt. eigenvalues --    0.12775   0.15307   0.19504   0.21568   0.53374
 Alpha virt. eigenvalues --    0.55020   0.56497   0.57940   0.66767   0.69190
 Alpha virt. eigenvalues --    0.78113   0.78910   0.79591   0.80128   0.82870

 Mulliken charges:
               1
     1  O   -0.514142
     2  H    0.261638
     3  H    0.251746
     4  O   -0.514338
     5  H    0.259664
     6  H    0.255431
 Sum of Mulliken charges =  -0.00000

 Dipole moment (field-independent basis, Debye):
    X=             -2.2833    Y=             -3.0675    Z=              0.0000  Tot=              3.8239
 Quadrupole moment (field-independent basis, Debye-Ang):
   XX=             -9.5619   YY=             -7.0584   ZZ=            -14.7157
   XY=             -4.1547   XZ=              0.0000   YZ=              0.0000

 CCSD(T)=-152.6617215\RMSD=7.114e-09\PG=CS [SG(H4O2)]\\@
 Normal termination of Gaussian 16 at Fri Aug 26 23:22:39 2022.
