 Gaussian 16, Revision A.03,
 Gaussian 16:  ES64L-G16RevA.03 25-Dec-2016

 ------------------
 #p CCSD(T)/cc-pVTZ
 ------------------

 ------------
 H2O_H2O_2614
 ------------
 Symbolic Z-matrix:
 Charge =  0 Multiplicity = 1

                         Standard orientation:
 ---------------------------------------------------------------------
 Center     Atomic      Atomic             Coordinates (Angstroms)
 Number     Number       Type             X           Y           Z
 ---------------------------------------------------------------------
      1          8           0        0.048598    2.149805    0.000000
      2          1           0        0.046769    1.167205    0.000000
      3          1           0       -0.880301    2.470200   -0.000000
      4          8           0        0.048598   -1.969432    0.000000
      5          1           0        0.827034   -2.569052    0.000000
      6          1           0       -0.771067   -2.511333   -0.000000
 ---------------------------------------------------------------------

 SCF Done:  E(RHF) =  -152.110636240     A.U. after   10 cycles
 E2 =    -0.5260526366D+00 EUMP2 =    -0.15263668887640D+03
 CCSD(T)
 CCSD(T)= -0.15266380450D+03

 The electronic state is 1-A'.
 Alpha  occ. eigenvalues --  -20.56872 -20.54202  -1.34137  -1.31531  -0.71533
 Alpha  occ. eigenvalues --   -0.68924  -0.57717  -0.55018  -0.51271  -0.48672
 Alpha virt. eigenvalues --    0.12370   0.16320   0.19360   0.23746   0.52801
 Alpha virt. eigenvalues --    0.55611   0.56277   0.58961   0.69055   0.70147
 Alpha virt. eigenvalues --    0.77516   0.78832   0.80162   0.80274   0.83569

 Mulliken charges:
               1
     1  O   -0.522050
     2  H    0.266137
     3  H    0.250643
     4  O   -0.511893
     5  H    0.260442
     6  H    0.256721
 Sum of Mulliken charges =  -0.00000

 Dipole moment (field-independent basis, Debye):
    X=             -1.6526    Y=             -3.2924    Z=             -0.0000  Tot=              3.6839
 Quadrupole moment (field-independent basis, Debye-Ang):
   XX=             -9.1838   YY=             -7.4377   ZZ=            -14.7222
   XY=             -4.4106   XZ=              0.0000   YZ=             -0.0000

 Normal termination of Gaussian 16 at Fri Aug 26 16:02:48 2022.
