 Gaussian 16, Revision A.03,
 Gaussian 16:  ES64L-G16RevA.03 25-Dec-2016

 ------------------
 #p CCSD(T)/cc-pVTZ
 ------------------

 ------------
 H2O_H2O_3005
 ------------
 Symbolic Z-matrix:
 Charge =  0 Multiplicity = 1

                         Standard orientation:
 ---------------------------------------------------------------------
 Center     Atomic      Atomic             Coordinates (Angstroms)
 Number     Number       Type             X           Y           Z
 ---------------------------------------------------------------------
      1          8           0        0.079853    2.297775   -0.000000
      2          1           0        0.079352    1.315173   -0.000000
      3          1           0       -0.849478    2.616915   -0.000000
      4          8           0        0.079853   -2.138715    0.000000
      5          1           0        0.395225   -3.069331    0.000000
      6          1           0       -0.902743   -2.135235    0.000000
 ---------------------------------------------------------------------

 SCF Done:  E(RHF) =  -152.108940222     A.U. after   10 cycles
 E2 =    -0.5260168293D+00 EUMP2 =    -0.15263495705143D+03
 CCSD(T)
 CCSD(T)= -0.15266211858D+03

 The electronic state is 1-A'.
 Alpha  occ. eigenvalues --  -20.56651 -20.54768  -1.33938  -1.32079  -0.71357
 Alpha  occ. eigenvalues --   -0.69462  -0.57440  -0.55546  -0.51056  -0.49202
 Alpha virt. eigenvalues --    0.12048   0.15730   0.19419   0.22739   0.53895
 Alpha virt. eigenvalues --    0.55034   0.56363   0.58376   0.68024   0.69245
 Alpha virt. eigenvalues --    0.77835   0.78731   0.79652   0.80600   0.82881

 Mulliken charges:
               1
     1  O   -0.514298
     2  H    0.262434
     3  H    0.249597
     4  O   -0.510780
     5  H    0.259863
     6  H    0.253184
 Sum of Mulliken charges =  -0.00000

 Dipole moment (field-independent basis, Debye):
    X=             -2.7206    Y=             -2.8598    Z=              0.0000  Tot=              3.9472
 Quadrupole moment (field-independent basis, Debye-Ang):
   XX=            -10.1036   YY=             -8.0098   ZZ=            -14.7163
   XY=             -3.1793   XZ=              0.0000   YZ=             -0.0000

 Normal termination of Gaussian 16 at Fri Aug 26 19:12:14 2022.
