 Gaussian 16, Revision A.03,
 Gaussian 16:  ES64L-G16RevA.03 25-Dec-2016

 ------------------
 #p CCSD(T)/cc-pVTZ
 ------------------

 ------------
 H2O_H2O_1996
 ------------
 Symbolic Z-matrix:
 Charge =  0 Multiplicity = 1

                         Standard orientation:
 ---------------------------------------------------------------------
 Center     Atomic      Atomic             Coordinates (Angstroms)
 Number     Number       Type             X           Y           Z
 ---------------------------------------------------------------------
      1          8           0       -0.023266    1.895072    0.000000
      2          1           0       -0.019996    0.912476    0.000000
      3          1           0        0.905161    2.216830    0.000000
      4          8           0       -0.023266   -1.724717    0.000000
      5          1           0       -0.986344   -1.919619    0.000000
      6          1           0        0.473437   -2.572532    0.000000
 ---------------------------------------------------------------------

 SCF Done:  E(RHF) =  -152.112250037     A.U. after   10 cycles
 E2 =    -0.5263953091D+00 EUMP2 =    -0.15263864534617D+03
 CCSD(T)
 CCSD(T)= -0.15266571197D+03

 The electronic state is 1-A'.
 Alpha  occ. eigenvalues --  -20.57326 -20.53821  -1.34592  -1.31181  -0.71997
 Alpha  occ. eigenvalues --   -0.68616  -0.58281  -0.54641  -0.51727  -0.48336
 Alpha virt. eigenvalues --    0.12229   0.16992   0.19179   0.26306   0.52438
 Alpha virt. eigenvalues --    0.54654   0.56135   0.59004   0.68955   0.72721
 Alpha virt. eigenvalues --    0.76186   0.78224   0.80623   0.83430   0.84121

 Mulliken charges:
               1
     1  O   -0.531267
     2  H    0.268129
     3  H    0.252611
     4  O   -0.509398
     5  H    0.261610
     6  H    0.258314
 Sum of Mulliken charges =  -0.00000

 Dipole moment (field-independent basis, Debye):
    X=              0.7915    Y=             -3.2039    Z=              0.0000  Tot=              3.3002
 Quadrupole moment (field-independent basis, Debye-Ang):
   XX=             -9.3626   YY=             -8.0802   ZZ=            -14.7283
   XY=              4.7156   XZ=              0.0000   YZ=              0.0000

 Normal termination of Gaussian 16 at Sun Aug 28 03:24:35 2022.
