 Gaussian 16, Revision A.03,
 Gaussian 16:  ES64L-G16RevA.03 25-Dec-2016

 ------------------
 #p CCSD(T)/cc-pVTZ
 ------------------

 -----------
 H2O_H2O_595
 -----------
 Symbolic Z-matrix:
 Charge =  0 Multiplicity = 1

                         Standard orientation:
 ---------------------------------------------------------------------
 Center     Atomic      Atomic             Coordinates (Angstroms)
 Number     Number       Type             X           Y           Z
 ---------------------------------------------------------------------
      1          8           0        0.026834    1.338150    0.000000
      2          1           0        0.022339    0.355559    0.000000
      3          1           0       -0.901192    1.661065    0.000000
      4          8           0        0.026834   -1.165034   -0.000000
      5          1           0        0.974781   -1.423689   -0.000000
      6          1           0       -0.525269   -1.977861   -0.000000
 ---------------------------------------------------------------------

 SCF Done:  E(RHF) =  -152.103917751     A.U. after   11 cycles
 E2 =    -0.5310164287D+00 EUMP2 =    -0.15263493418017D+03
 CCSD(T)
 CCSD(T)= -0.15266142403D+03

 The electronic state is 1-A'.
 Alpha  occ. eigenvalues --  -20.59857 -20.49547  -1.38120  -1.27817  -0.75410
 Alpha  occ. eigenvalues --   -0.69634  -0.59275  -0.54841  -0.50087  -0.44822
 Alpha virt. eigenvalues --    0.11524   0.18056   0.19418   0.33717   0.47607
 Alpha virt. eigenvalues --    0.53846   0.58623   0.67211   0.68455   0.72275
 Alpha virt. eigenvalues --    0.73612   0.77594   0.80326   0.83746   0.83951

 Mulliken charges:
               1
     1  O   -0.609362
     2  H    0.304719
     3  H    0.237786
     4  O   -0.437776
     5  H    0.261698
     6  H    0.242935
 Sum of Mulliken charges =   0.00000

 Dipole moment (field-independent basis, Debye):
    X=             -0.8717    Y=             -4.0459    Z=             -0.0000  Tot=              4.1388
 Quadrupole moment (field-independent basis, Debye-Ang):
   XX=             -9.2537   YY=             -9.2795   ZZ=            -14.6828
   XY=             -3.2737   XZ=             -0.0000   YZ=              0.0000

 Normal termination of Gaussian 16 at Fri Aug 26 19:17:30 2022.
