 Gaussian 16, Revision A.03,
 Gaussian 16:  ES64L-G16RevA.03 25-Dec-2016

 ------------------
 #p CCSD(T)/cc-pVTZ
 ------------------

 ------------
 H2O_H2O_3889
 ------------
 Symbolic Z-matrix:
 Charge =  0 Multiplicity = 1

                         Standard orientation:
 ---------------------------------------------------------------------
 Center     Atomic      Atomic             Coordinates (Angstroms)
 Number     Number       Type             X           Y           Z
 ---------------------------------------------------------------------
      1          8           0        0.048565    2.658390   -0.000000
      2          1           0        0.047098    1.675790   -0.000000
      3          1           0       -0.880452    2.978444   -0.000000
      4          8           0        0.048565   -2.477982    0.000000
      5          1           0        0.827222   -3.077315    0.000000
      6          1           0       -0.770900   -3.020185    0.000000
 ---------------------------------------------------------------------

 SCF Done:  E(RHF) =  -152.108816682     A.U. after   10 cycles
 E2 =    -0.5258279915D+00 EUMP2 =    -0.15263464467397D+03
 CCSD(T)
 CCSD(T)= -0.15266182683D+03

 The electronic state is 1-A'.
 Alpha  occ. eigenvalues --  -20.56322 -20.54782  -1.33618  -1.32093  -0.71021
 Alpha  occ. eigenvalues --   -0.69491  -0.57126  -0.55570  -0.50740  -0.49220
 Alpha virt. eigenvalues --    0.13014   0.15265   0.19625   0.21398   0.53531
 Alpha virt. eigenvalues --    0.54933   0.56564   0.57856   0.66697   0.69167
 Alpha virt. eigenvalues --    0.78156   0.79407   0.79570   0.79627   0.82919

 Mulliken charges:
               1
     1  O   -0.515318
     2  H    0.261932
     3  H    0.252788
     4  O   -0.515549
     5  H    0.259228
     6  H    0.256919
 Sum of Mulliken charges =  -0.00000

 Dipole moment (field-independent basis, Debye):
    X=             -1.6624    Y=             -3.1896    Z=              0.0000  Tot=              3.5968
 Quadrupole moment (field-independent basis, Debye-Ang):
   XX=             -9.1822   YY=             -6.6129   ZZ=            -14.7163
   XY=             -5.1931   XZ=              0.0000   YZ=             -0.0000

 Normal termination of Gaussian 16 at Sat Aug 27 00:17:57 2022.
