 Gaussian 16, Revision A.03,
 Gaussian 16:  ES64L-G16RevA.03 25-Dec-2016

 ------------------
 #p CCSD(T)/cc-pVTZ
 ------------------

 ------------
 H2O_H2O_4546
 ------------
 Symbolic Z-matrix:
 Charge =  0 Multiplicity = 1

                         Standard orientation:
 ---------------------------------------------------------------------
 Center     Atomic      Atomic             Coordinates (Angstroms)
 Number     Number       Type             X           Y           Z
 ---------------------------------------------------------------------
      1          8           0       -0.023164    2.912234    0.000000
      2          1           0       -0.021070    1.929634    0.000000
      3          1           0        0.905648    3.232880    0.000000
      4          8           0       -0.023164   -2.741822    0.000000
      5          1           0       -0.986474   -2.935571    0.000000
      6          1           0        0.472523   -3.590232    0.000000
 ---------------------------------------------------------------------

 SCF Done:  E(RHF) =  -152.108446559     A.U. after   10 cycles
 E2 =    -0.5257987103D+00 EUMP2 =    -0.15263424526881D+03
 CCSD(T)
 CCSD(T)= -0.15266144271D+03

 The electronic state is 1-A'.
 Alpha  occ. eigenvalues --  -20.56172 -20.55016  -1.33474  -1.32324  -0.70879
 Alpha  occ. eigenvalues --   -0.69729  -0.56968  -0.55797  -0.50593  -0.49448
 Alpha virt. eigenvalues --    0.13323   0.14900   0.19573   0.21131   0.53544
 Alpha virt. eigenvalues --    0.54884   0.56679   0.57784   0.66863   0.68670
 Alpha virt. eigenvalues --    0.78292   0.79409   0.79540   0.80537   0.82504

 Mulliken charges:
               1
     1  O   -0.514324
     2  H    0.259771
     3  H    0.254448
     4  O   -0.514880
     5  H    0.257371
     6  H    0.257614
 Sum of Mulliken charges =   0.00000

 Dipole moment (field-independent basis, Debye):
    X=              0.7955    Y=             -2.9892    Z=              0.0000  Tot=              3.0932
 Quadrupole moment (field-independent basis, Debye-Ang):
   XX=             -9.3622   YY=             -6.7673   ZZ=            -14.7149
   XY=              7.1666   XZ=              0.0000   YZ=              0.0000

 Normal termination of Gaussian 16 at Sun Aug 28 03:45:35 2022.
