 Gaussian 16, Revision A.03,
 Gaussian 16:  ES64L-G16RevA.03 25-Dec-2016

 ------------------
 #p CCSD(T)/cc-pVTZ
 ------------------

 -----------
 H2O_H2O_180
 -----------
 Symbolic Z-matrix:
 Charge =  0 Multiplicity = 1

                         Standard orientation:
 ---------------------------------------------------------------------
 Center     Atomic      Atomic             Coordinates (Angstroms)
 Number     Number       Type             X           Y           Z
 ---------------------------------------------------------------------
      1          8           0        0.079895   -1.170904    0.000000
      2          1           0        0.078876   -0.188303    0.000000
      3          1           0       -0.849268   -1.490534    0.000000
      4          8           0        0.079895    1.011929    0.000000
      5          1           0        0.394778    1.942711    0.000000
      6          1           0       -0.902699    1.007931    0.000000
 ---------------------------------------------------------------------

 SCF Done:  E(RHF) =  -152.059551012     A.U. after   11 cycles
 E2 =    -0.5363523551D+00 EUMP2 =    -0.15259590336739D+03
 CCSD(T)
 CCSD(T)= -0.15262172016D+03

 The electronic state is 1-A'.
 Alpha  occ. eigenvalues --  -20.61371 -20.47182  -1.42179  -1.26432  -0.80703
 Alpha  occ. eigenvalues --   -0.72093  -0.57389  -0.56586  -0.47748  -0.43192
 Alpha virt. eigenvalues --    0.10668   0.16129   0.21273   0.32297   0.49266
 Alpha virt. eigenvalues --    0.51784   0.59893   0.65011   0.71430   0.72446
 Alpha virt. eigenvalues --    0.76687   0.78135   0.80575   0.85234   0.85531

 Mulliken charges:
               1
     1  O   -0.616731
     2  H    0.279806
     3  H    0.198671
     4  O   -0.329503
     5  H    0.230301
     6  H    0.237456
 Sum of Mulliken charges =  -0.00000

 Dipole moment (field-independent basis, Debye):
    X=             -2.4741    Y=              4.3184    Z=              0.0000  Tot=              4.9769
 Quadrupole moment (field-independent basis, Debye-Ang):
   XX=            -10.0772   YY=             -9.8155   ZZ=            -14.5679
   XY=              2.4777   XZ=              0.0000   YZ=              0.0000

 Normal termination of Gaussian 16 at Fri Aug 26 16:25:10 2022.
