 Gaussian 16, Revision A.03,
 Gaussian 16:  ES64L-G16RevA.03 25-Dec-2016

 ------------------
 #p CCSD(T)/cc-pVTZ
 ------------------

 ------------
 H2O_H2O_1743
 ------------
 Symbolic Z-matrix:
 Charge =  0 Multiplicity = 1

                         Standard orientation:
 ---------------------------------------------------------------------
 Center     Atomic      Atomic             Coordinates (Angstroms)
 Number     Number       Type             X           Y           Z
 ---------------------------------------------------------------------
      1          8           0        0.033855    1.799218   -0.000000
      2          1           0        0.030919    0.816621   -0.000000
      3          1           0       -0.894682    2.120660   -0.000000
      4          8           0        0.033855   -1.621745    0.000000
      5          1           0        0.940534   -2.000480    0.000000
      6          1           0       -0.618454   -2.356590    0.000000
 ---------------------------------------------------------------------

 SCF Done:  E(RHF) =  -152.113259916     A.U. after   10 cycles
 E2 =    -0.5266883567D+00 EUMP2 =    -0.15263994827314D+03
 CCSD(T)
 CCSD(T)= -0.15266698166D+03

 The electronic state is 1-A'.
 Alpha  occ. eigenvalues --  -20.57623 -20.53362  -1.34886  -1.30756  -0.72260
 Alpha  occ. eigenvalues --   -0.68258  -0.58660  -0.54173  -0.52024  -0.47913
 Alpha virt. eigenvalues --    0.12190   0.17369   0.19044   0.27624   0.51186
 Alpha virt. eigenvalues --    0.54450   0.56193   0.59393   0.69041   0.72566
 Alpha virt. eigenvalues --    0.75289   0.77234   0.81085   0.83252   0.84581

 Mulliken charges:
               1
     1  O   -0.536455
     2  H    0.272166
     3  H    0.249859
     4  O   -0.507929
     5  H    0.263481
     6  H    0.258877
 Sum of Mulliken charges =  -0.00000

 Dipole moment (field-independent basis, Debye):
    X=             -1.1426    Y=             -3.4033    Z=              0.0000  Tot=              3.5900
 Quadrupole moment (field-independent basis, Debye-Ang):
   XX=             -9.1878   YY=             -8.1109   ZZ=            -14.7329
   XY=             -4.1920   XZ=              0.0000   YZ=              0.0000

 Normal termination of Gaussian 16 at Sun Aug 28 01:09:55 2022.
