 Gaussian 16, Revision A.03,
 Gaussian 16:  ES64L-G16RevA.03 25-Dec-2016

 ------------------
 #p CCSD(T)/cc-pVTZ
 ------------------

 ------------
 H2O_H2O_3012
 ------------
 Symbolic Z-matrix:
 Charge =  0 Multiplicity = 1

                         Standard orientation:
 ---------------------------------------------------------------------
 Center     Atomic      Atomic             Coordinates (Angstroms)
 Number     Number       Type             X           Y           Z
 ---------------------------------------------------------------------
      1          8           0        0.055992    2.308557   -0.000000
      2          1           0        0.054578    1.325956   -0.000000
      3          1           0       -0.873041    2.628560   -0.000000
      4          8           0        0.055992   -2.129652    0.000000
      5          1           0        0.749797   -2.825455    0.000000
      6          1           0       -0.827210   -2.560301    0.000000
 ---------------------------------------------------------------------

 SCF Done:  E(RHF) =  -152.109739105     A.U. after   10 cycles
 E2 =    -0.5259503754D+00 EUMP2 =    -0.15263568948053D+03
 CCSD(T)
 CCSD(T)= -0.15266283386D+03

 The electronic state is 1-A'.
 Alpha  occ. eigenvalues --  -20.56649 -20.54465  -1.33928  -1.31784  -0.71330
 Alpha  occ. eigenvalues --   -0.69175  -0.57466  -0.55268  -0.51056  -0.48918
 Alpha virt. eigenvalues --    0.12470   0.15910   0.19460   0.22632   0.53232
 Alpha virt. eigenvalues --    0.55401   0.56315   0.58574   0.68218   0.69333
 Alpha virt. eigenvalues --    0.77839   0.79079   0.79425   0.79913   0.83221

 Mulliken charges:
               1
     1  O   -0.518265
     2  H    0.264331
     3  H    0.251015
     4  O   -0.513631
     5  H    0.260198
     6  H    0.256353
 Sum of Mulliken charges =  -0.00000

 Dipole moment (field-independent basis, Debye):
    X=             -1.9088    Y=             -3.2217    Z=              0.0000  Tot=              3.7447
 Quadrupole moment (field-independent basis, Debye-Ang):
   XX=             -9.2875   YY=             -7.2304   ZZ=            -14.7194
   XY=             -4.3614   XZ=              0.0000   YZ=             -0.0000

 Normal termination of Gaussian 16 at Fri Aug 26 19:14:55 2022.
