 Gaussian 16, Revision A.03,
 Gaussian 16:  ES64L-G16RevA.03 25-Dec-2016

 ------------------
 #p CCSD(T)/cc-pVTZ
 ------------------

 -----------
 H2O_H2O_158
 -----------
 Symbolic Z-matrix:
 Charge =  0 Multiplicity = 1

                         Standard orientation:
 ---------------------------------------------------------------------
 Center     Atomic      Atomic             Coordinates (Angstroms)
 Number     Number       Type             X           Y           Z
 ---------------------------------------------------------------------
      1          8           0        0.070279    1.166985   -0.000000
      2          1           0        0.068494    0.184385   -0.000000
      3          1           0       -0.858634    1.487339   -0.000000
      4          8           0        0.070279   -0.996873    0.000000
      5          1           0        0.560034   -1.848722    0.000000
      6          1           0       -0.894361   -1.183895    0.000000
 ---------------------------------------------------------------------

 SCF Done:  E(RHF) =  -152.059357585     A.U. after   11 cycles
 E2 =    -0.5358466844D+00 EUMP2 =    -0.15259520426909D+03
 CCSD(T)
 CCSD(T)= -0.15262095480D+03

 The electronic state is 1-A'.
 Alpha  occ. eigenvalues --  -20.61572 -20.46147  -1.42367  -1.25702  -0.79899
 Alpha  occ. eigenvalues --   -0.73996  -0.57674  -0.55884  -0.46597  -0.42378
 Alpha virt. eigenvalues --    0.10567   0.16253   0.21156   0.32527   0.48793
 Alpha virt. eigenvalues --    0.52044   0.60552   0.64341   0.71312   0.71949
 Alpha virt. eigenvalues --    0.77871   0.78747   0.81167   0.84183   0.86110

 Mulliken charges:
               1
     1  O   -0.635574
     2  H    0.288558
     3  H    0.200399
     4  O   -0.330621
     5  H    0.235977
     6  H    0.241262
 Sum of Mulliken charges =   0.00000

 Dipole moment (field-independent basis, Debye):
    X=             -2.1581    Y=             -4.6284    Z=              0.0000  Tot=              5.1068
 Quadrupole moment (field-independent basis, Debye-Ang):
   XX=             -9.6565   YY=             -9.9283   ZZ=            -14.5741
   XY=             -2.6426   XZ=              0.0000   YZ=              0.0000

 Normal termination of Gaussian 16 at Fri Aug 26 16:16:01 2022.
