 Gaussian 16, Revision A.03,
 Gaussian 16:  ES64L-G16RevA.03 25-Dec-2016

 ------------------
 #p CCSD(T)/cc-pVTZ
 ------------------

 -----------
 H2O_H2O_634
 -----------
 Symbolic Z-matrix:
 Charge =  0 Multiplicity = 1

                         Standard orientation:
 ---------------------------------------------------------------------
 Center     Atomic      Atomic             Coordinates (Angstroms)
 Number     Number       Type             X           Y           Z
 ---------------------------------------------------------------------
      1          8           0        0.066828    1.358019    0.000000
      2          1           0        0.065080    0.375419    0.000000
      3          1           0       -0.862097    1.678339    0.000000
      4          8           0        0.066828   -1.185019   -0.000000
      5          1           0        0.611278   -2.002993   -0.000000
      6          1           0       -0.883505   -1.434766   -0.000000
 ---------------------------------------------------------------------

 SCF Done:  E(RHF) =  -152.104796963     A.U. after   11 cycles
 E2 =    -0.5310449721D+00 EUMP2 =    -0.15263584193459D+03
 CCSD(T)
 CCSD(T)= -0.15266239989D+03

 The electronic state is 1-A'.
 Alpha  occ. eigenvalues --  -20.59775 -20.50158  -1.37893  -1.28277  -0.75163
 Alpha  occ. eigenvalues --   -0.69561  -0.59165  -0.54659  -0.50796  -0.45276
 Alpha virt. eigenvalues --    0.11346   0.17157   0.19936   0.33036   0.48061
 Alpha virt. eigenvalues --    0.53776   0.60037   0.61817   0.70891   0.72255
 Alpha virt. eigenvalues --    0.73509   0.77934   0.80563   0.83498   0.84172

 Mulliken charges:
               1
     1  O   -0.589080
     2  H    0.306984
     3  H    0.225441
     4  O   -0.438561
     5  H    0.248713
     6  H    0.246502
 Sum of Mulliken charges =  -0.00000

 Dipole moment (field-independent basis, Debye):
    X=             -2.1533    Y=             -3.9703    Z=             -0.0000  Tot=              4.5167
 Quadrupole moment (field-independent basis, Debye-Ang):
   XX=             -9.5746   YY=             -9.1974   ZZ=            -14.6843
   XY=             -2.9581   XZ=             -0.0000   YZ=              0.0000

 Normal termination of Gaussian 16 at Fri Aug 26 19:32:04 2022.
