 Gaussian 16, Revision A.03,
 Gaussian 16:  ES64L-G16RevA.03 25-Dec-2016

 ------------------
 #p CCSD(T)/cc-pVTZ
 ------------------

 ------------
 H2O_H2O_1226
 ------------
 Symbolic Z-matrix:
 Charge =  0 Multiplicity = 1

                         Standard orientation:
 ---------------------------------------------------------------------
 Center     Atomic      Atomic             Coordinates (Angstroms)
 Number     Number       Type             X           Y           Z
 ---------------------------------------------------------------------
      1          8           0        0.090688   -1.578709    0.000000
      2          1           0        0.090560   -0.596107    0.000000
      3          1           0       -0.838764   -1.897495    0.000000
      4          8           0        0.090688    1.440008    0.000000
      5          1           0        0.154826    2.420514    0.000000
      6          1           0       -0.857624    1.182692    0.000000
 ---------------------------------------------------------------------

 SCF Done:  E(RHF) =  -152.108641874     A.U. after   10 cycles
 E2 =    -0.5284865013D+00 EUMP2 =    -0.15263712837516D+03
 CCSD(T)
 CCSD(T)= -0.15266416285D+03

 The electronic state is 1-A'.
 Alpha  occ. eigenvalues --  -20.58280 -20.53876  -1.35752  -1.31306  -0.73691
 Alpha  occ. eigenvalues --   -0.68542  -0.59176  -0.54589  -0.52751  -0.48388
 Alpha virt. eigenvalues --    0.11501   0.16422   0.20474   0.29389   0.48894
 Alpha virt. eigenvalues --    0.53796   0.57970   0.59258   0.68110   0.72592
 Alpha virt. eigenvalues --    0.74237   0.77936   0.80904   0.81393   0.83282

 Mulliken charges:
               1
     1  O   -0.528605
     2  H    0.278502
     3  H    0.235526
     4  O   -0.464813
     5  H    0.241338
     6  H    0.238051
 Sum of Mulliken charges =  -0.00000

 Dipole moment (field-independent basis, Debye):
    X=             -3.0074    Y=              2.8053    Z=              0.0000  Tot=              4.1126
 Quadrupole moment (field-independent basis, Debye-Ang):
   XX=            -10.7569   YY=             -9.0522   ZZ=            -14.7048
   XY=              2.2654   XZ=              0.0000   YZ=              0.0000

 Normal termination of Gaussian 16 at Fri Aug 26 23:14:31 2022.
