 Gaussian 16, Revision A.03,
 Gaussian 16:  ES64L-G16RevA.03 25-Dec-2016

 ------------------
 #p CCSD(T)/cc-pVTZ
 ------------------

 ------------
 H2O_H2O_3972
 ------------
 Symbolic Z-matrix:
 Charge =  0 Multiplicity = 1

                         Standard orientation:
 ---------------------------------------------------------------------
 Center     Atomic      Atomic             Coordinates (Angstroms)
 Number     Number       Type             X           Y           Z
 ---------------------------------------------------------------------
      1          8           0       -0.019831    2.681092    0.000000
      2          1           0       -0.017443    1.698493    0.000000
      3          1           0        0.908885    3.002016    0.000000
      4          8           0       -0.019831   -2.513974    0.000000
      5          1           0       -0.993712   -2.644596    0.000000
      6          1           0        0.419570   -3.392856    0.000000
 ---------------------------------------------------------------------

 SCF Done:  E(RHF) =  -152.108776922     A.U. after   10 cycles
 E2 =    -0.5258107198D+00 EUMP2 =    -0.15263458764182D+03
 CCSD(T)
 CCSD(T)= -0.15266177330D+03

 The electronic state is 1-A'.
 Alpha  occ. eigenvalues --  -20.56290 -20.54913  -1.33590  -1.32223  -0.70995
 Alpha  occ. eigenvalues --   -0.69629  -0.57095  -0.55702  -0.50711  -0.49351
 Alpha virt. eigenvalues --    0.12913   0.15201   0.19391   0.21605   0.53301
 Alpha virt. eigenvalues --    0.55101   0.56611   0.57847   0.66685   0.69028
 Alpha virt. eigenvalues --    0.78182   0.79045   0.79499   0.80533   0.82791

 Mulliken charges:
               1
     1  O   -0.515706
     2  H    0.260691
     3  H    0.254581
     4  O   -0.515887
     5  H    0.257839
     6  H    0.258481
 Sum of Mulliken charges =  -0.00000

 Dipole moment (field-independent basis, Debye):
    X=              0.6807    Y=             -2.9490    Z=              0.0000  Tot=              3.0266
 Quadrupole moment (field-independent basis, Debye-Ang):
   XX=             -9.4469   YY=             -7.2306   ZZ=            -14.7160
   XY=              6.8221   XZ=              0.0000   YZ=              0.0000

 Normal termination of Gaussian 16 at Sat Aug 27 00:46:03 2022.
