 Gaussian 16, Revision A.03,
 Gaussian 16:  ES64L-G16RevA.03 25-Dec-2016

 ------------------
 #p CCSD(T)/cc-pVTZ
 ------------------

 ------------
 H2O_H2O_2839
 ------------
 Symbolic Z-matrix:
 Charge =  0 Multiplicity = 1

                         Standard orientation:
 ---------------------------------------------------------------------
 Center     Atomic      Atomic             Coordinates (Angstroms)
 Number     Number       Type             X           Y           Z
 ---------------------------------------------------------------------
      1          8           0        0.048591    2.239556    0.000000
      2          1           0        0.046839    1.256956    0.000000
      3          1           0       -0.880332    2.559879   -0.000000
      4          8           0        0.048591   -2.059176    0.000000
      5          1           0        0.827073   -2.658734    0.000000
      6          1           0       -0.771032   -2.601140   -0.000000
 ---------------------------------------------------------------------

 SCF Done:  E(RHF) =  -152.110170590     A.U. after   10 cycles
 E2 =    -0.5259803045D+00 EUMP2 =    -0.15263615089419D+03
 CCSD(T)
 CCSD(T)= -0.15266328217D+03

 The electronic state is 1-A'.
 Alpha  occ. eigenvalues --  -20.56737 -20.54342  -1.34010  -1.31665  -0.71408
 Alpha  occ. eigenvalues --   -0.69058  -0.57568  -0.55153  -0.51141  -0.48803
 Alpha virt. eigenvalues --    0.12444   0.16098   0.19420   0.23080   0.53041
 Alpha virt. eigenvalues --    0.55547   0.56303   0.58771   0.68857   0.69367
 Alpha virt. eigenvalues --    0.77727   0.79087   0.79520   0.80024   0.83366

 Mulliken charges:
               1
     1  O   -0.520210
     2  H    0.265165
     3  H    0.251202
     4  O   -0.513307
     5  H    0.260276
     6  H    0.256873
 Sum of Mulliken charges =  -0.00000

 Dipole moment (field-independent basis, Debye):
    X=             -1.6549    Y=             -3.2660    Z=             -0.0000  Tot=              3.6614
 Quadrupole moment (field-independent basis, Debye-Ang):
   XX=             -9.1832   YY=             -7.2890   ZZ=            -14.7208
   XY=             -4.5488   XZ=             -0.0000   YZ=             -0.0000

 Normal termination of Gaussian 16 at Fri Aug 26 17:40:50 2022.
