 Gaussian 16, Revision A.03,
 Gaussian 16:  ES64L-G16RevA.03 25-Dec-2016

 ------------------
 #p CCSD(T)/cc-pVTZ
 ------------------

 ------------
 H2O_H2O_1164
 ------------
 Symbolic Z-matrix:
 Charge =  0 Multiplicity = 1

                         Standard orientation:
 ---------------------------------------------------------------------
 Center     Atomic      Atomic             Coordinates (Angstroms)
 Number     Number       Type             X           Y           Z
 ---------------------------------------------------------------------
      1          8           0        0.048663    1.571399    0.000000
      2          1           0        0.046121    0.588801    0.000000
      3          1           0       -0.880002    1.892469    0.000000
      4          8           0        0.048663   -1.391097    0.000000
      5          1           0        0.826663   -1.991282    0.000000
      6          1           0       -0.771395   -1.932402    0.000000
 ---------------------------------------------------------------------

 SCF Done:  E(RHF) =  -152.114031110     A.U. after   10 cycles
 E2 =    -0.5280418541D+00 EUMP2 =    -0.15264207296371D+03
 CCSD(T)
 CCSD(T)= -0.15266898273D+03

 The electronic state is 1-A'.
 Alpha  occ. eigenvalues --  -20.58516 -20.52092  -1.35909  -1.29678  -0.73166
 Alpha  occ. eigenvalues --   -0.67936  -0.59585  -0.53003  -0.52830  -0.46807
 Alpha virt. eigenvalues --    0.11904   0.17908   0.18949   0.31067   0.48828
 Alpha virt. eigenvalues --    0.54777   0.56379   0.60363   0.69249   0.71520
 Alpha virt. eigenvalues --    0.73131   0.77147   0.82258   0.82642   0.84947

 Mulliken charges:
               1
     1  O   -0.557405
     2  H    0.290851
     3  H    0.241947
     4  O   -0.499608
     5  H    0.265841
     6  H    0.258373
 Sum of Mulliken charges =  -0.00000

 Dipole moment (field-independent basis, Debye):
    X=             -1.6152    Y=             -3.6947    Z=              0.0000  Tot=              4.0324
 Quadrupole moment (field-independent basis, Debye-Ang):
   XX=             -9.1856   YY=             -8.5882   ZZ=            -14.7319
   XY=             -3.5001   XZ=              0.0000   YZ=              0.0000

 Normal termination of Gaussian 16 at Fri Aug 26 22:50:56 2022.
