 Gaussian 16, Revision A.03,
 Gaussian 16:  ES64L-G16RevA.03 25-Dec-2016

 ------------------
 #p CCSD(T)/cc-pVTZ
 ------------------

 ------------
 H2O_H2O_3456
 ------------
 Symbolic Z-matrix:
 Charge =  0 Multiplicity = 1

                         Standard orientation:
 ---------------------------------------------------------------------
 Center     Atomic      Atomic             Coordinates (Angstroms)
 Number     Number       Type             X           Y           Z
 ---------------------------------------------------------------------
      1          8           0        0.076755    2.479526    0.000000
      2          1           0        0.076182    1.496924    0.000000
      3          1           0       -0.852552    2.798734    0.000000
      4          8           0        0.076755   -2.316312    0.000000
      5          1           0        0.452252   -3.224336    0.000000
      6          1           0       -0.903969   -2.377032    0.000000
 ---------------------------------------------------------------------

 SCF Done:  E(RHF) =  -152.108629642     A.U. after   10 cycles
 E2 =    -0.5259160576D+00 EUMP2 =    -0.15263454570003D+03
 CCSD(T)
 CCSD(T)= -0.15266172437D+03

 The electronic state is 1-A'.
 Alpha  occ. eigenvalues --  -20.56466 -20.54860  -1.33759  -1.32169  -0.71172
 Alpha  occ. eigenvalues --   -0.69559  -0.57253  -0.55636  -0.50877  -0.49291
 Alpha virt. eigenvalues --    0.12386   0.15439   0.19372   0.21999   0.53402
 Alpha virt. eigenvalues --    0.55080   0.56424   0.58111   0.67033   0.69214
 Alpha virt. eigenvalues --    0.78029   0.78675   0.79561   0.80539   0.82817

 Mulliken charges:
               1
     1  O   -0.513378
     2  H    0.261383
     3  H    0.250857
     4  O   -0.512860
     5  H    0.259878
     6  H    0.254121
 Sum of Mulliken charges =  -0.00000

 Dipole moment (field-independent basis, Debye):
    X=             -2.6219    Y=             -2.9050    Z=              0.0000  Tot=              3.9132
 Quadrupole moment (field-independent basis, Debye-Ang):
   XX=             -9.9528   YY=             -7.6612   ZZ=            -14.7154
   XY=             -3.4694   XZ=              0.0000   YZ=              0.0000

 Normal termination of Gaussian 16 at Fri Aug 26 21:47:56 2022.
