 Gaussian 16, Revision A.03,
 Gaussian 16:  ES64L-G16RevA.03 25-Dec-2016

 ------------------
 #p CCSD(T)/cc-pVTZ
 ------------------

 ------------
 H2O_H2O_4085
 ------------
 Symbolic Z-matrix:
 Charge =  0 Multiplicity = 1

                         Standard orientation:
 ---------------------------------------------------------------------
 Center     Atomic      Atomic             Coordinates (Angstroms)
 Number     Number       Type             X           Y           Z
 ---------------------------------------------------------------------
      1          8           0        0.063222    2.735513    0.000000
      2          1           0        0.062269    1.752912    0.000000
      3          1           0       -0.865962    3.055081    0.000000
      4          8           0        0.063222   -2.559985    0.000000
      5          1           0        0.660636   -3.340115    0.000000
      6          1           0       -0.868490   -2.872107    0.000000
 ---------------------------------------------------------------------

 SCF Done:  E(RHF) =  -152.108492490     A.U. after   10 cycles
 E2 =    -0.5258344077D+00 EUMP2 =    -0.15263432689751D+03
 CCSD(T)
 CCSD(T)= -0.15266151849D+03

 The electronic state is 1-A'.
 Alpha  occ. eigenvalues --  -20.56277 -20.54894  -1.33576  -1.32202  -0.70982
 Alpha  occ. eigenvalues --   -0.69599  -0.57070  -0.55672  -0.50694  -0.49325
 Alpha virt. eigenvalues --    0.13060   0.15105   0.19579   0.21272   0.53476
 Alpha virt. eigenvalues --    0.54929   0.56575   0.57831   0.66692   0.69005
 Alpha virt. eigenvalues --    0.78199   0.79238   0.79528   0.80129   0.82796

 Mulliken charges:
               1
     1  O   -0.513737
     2  H    0.261049
     3  H    0.252331
     4  O   -0.514485
     5  H    0.259160
     6  H    0.255683
 Sum of Mulliken charges =  -0.00000

 Dipole moment (field-independent basis, Debye):
    X=             -2.1653    Y=             -3.0948    Z=             -0.0000  Tot=              3.7771
 Quadrupole moment (field-independent basis, Debye-Ang):
   XX=             -9.4544   YY=             -6.7417   ZZ=            -14.7151
   XY=             -4.4960   XZ=             -0.0000   YZ=             -0.0000

 Normal termination of Gaussian 16 at Sat Aug 27 23:23:25 2022.
