 Gaussian 16, Revision A.03,
 Gaussian 16:  ES64L-G16RevA.03 25-Dec-2016

 ------------------
 #p CCSD(T)/cc-pVTZ
 ------------------

 ----------
 H2O_H2O_45
 ----------
 Symbolic Z-matrix:
 Charge =  0 Multiplicity = 1

                         Standard orientation:
 ---------------------------------------------------------------------
 Center     Atomic      Atomic             Coordinates (Angstroms)
 Number     Number       Type             X           Y           Z
 ---------------------------------------------------------------------
      1          8           0        0.026918    1.118744   -0.000000
      2          1           0        0.021467    0.136158   -0.000000
      3          1           0       -0.900793    1.442562   -0.000000
      4          8           0        0.026918   -0.945680    0.000000
      5          1           0        0.974613   -1.205257    0.000000
      6          1           0       -0.525976   -1.757971    0.000000
 ---------------------------------------------------------------------

 SCF Done:  E(RHF) =  -152.032763299     A.U. after   11 cycles
 E2 =    -0.5361676792D+00 EUMP2 =    -0.15256893097774D+03
 CCSD(T)
 CCSD(T)= -0.15259440710D+03

 The electronic state is 1-A'.
 Alpha  occ. eigenvalues --  -20.62042 -20.43865  -1.44300  -1.24308  -0.81636
 Alpha  occ. eigenvalues --   -0.75742  -0.58811  -0.54894  -0.43902  -0.40795
 Alpha virt. eigenvalues --    0.10427   0.16691   0.21071   0.33291   0.46925
 Alpha virt. eigenvalues --    0.51718   0.61041   0.68515   0.70412   0.70659
 Alpha virt. eigenvalues --    0.76632   0.77903   0.81317   0.84232   0.88565

 Mulliken charges:
               1
     1  O   -0.687096
     2  H    0.275709
     3  H    0.213270
     4  O   -0.298738
     5  H    0.264815
     6  H    0.232039
 Sum of Mulliken charges =  -0.00000

 Dipole moment (field-independent basis, Debye):
    X=             -0.8060    Y=             -4.9898    Z=              0.0000  Tot=              5.0545
 Quadrupole moment (field-independent basis, Debye-Ang):
   XX=             -9.1784   YY=            -10.2259   ZZ=            -14.5412
   XY=             -2.6929   XZ=              0.0000   YZ=             -0.0000

 Normal termination of Gaussian 16 at Fri Aug 26 15:29:39 2022.
