 Gaussian 16, Revision A.03,
 Gaussian 16:  ES64L-G16RevA.03 25-Dec-2016

 ------------------
 #p CCSD(T)/cc-pVTZ
 ------------------

 ------------
 H2O_H2O_1303
 ------------
 Symbolic Z-matrix:
 Charge =  0 Multiplicity = 1

                         Standard orientation:
 ---------------------------------------------------------------------
 Center     Atomic      Atomic             Coordinates (Angstroms)
 Number     Number       Type             X           Y           Z
 ---------------------------------------------------------------------
      1          8           0        0.085611   -1.614531    0.000000
      2          1           0        0.085206   -0.631930    0.000000
      3          1           0       -0.843751   -1.933581    0.000000
      4          8           0        0.085611    1.464957    0.000000
      5          1           0        0.276910    2.428757    0.000000
      6          1           0       -0.888136    1.333348    0.000000
 ---------------------------------------------------------------------

 SCF Done:  E(RHF) =  -152.110304342     A.U. after   10 cycles
 E2 =    -0.5280370949D+00 EUMP2 =    -0.15263834143645D+03
 CCSD(T)
 CCSD(T)= -0.15266536352D+03

 The electronic state is 1-A'.
 Alpha  occ. eigenvalues --  -20.58179 -20.53634  -1.35586  -1.31063  -0.73287
 Alpha  occ. eigenvalues --   -0.68476  -0.59124  -0.54357  -0.52630  -0.48164
 Alpha virt. eigenvalues --    0.11593   0.16585   0.20098   0.29206   0.49151
 Alpha virt. eigenvalues --    0.54503   0.58065   0.58554   0.68715   0.73198
 Alpha virt. eigenvalues --    0.74662   0.77382   0.81197   0.81853   0.83613

 Mulliken charges:
               1
     1  O   -0.531820
     2  H    0.278830
     3  H    0.237424
     4  O   -0.473886
     5  H    0.244646
     6  H    0.244806
 Sum of Mulliken charges =  -0.00000

 Dipole moment (field-independent basis, Debye):
    X=             -2.8465    Y=              2.9919    Z=              0.0000  Tot=              4.1297
 Quadrupole moment (field-independent basis, Debye-Ang):
   XX=            -10.4479   YY=             -8.8227   ZZ=            -14.7139
   XY=              2.5798   XZ=              0.0000   YZ=              0.0000

 Normal termination of Gaussian 16 at Fri Aug 26 23:43:00 2022.
