 Gaussian 16, Revision A.03,
 Gaussian 16:  ES64L-G16RevA.03 25-Dec-2016

 ------------------
 #p CCSD(T)/cc-pVTZ
 ------------------

 ------------
 H2O_H2O_2798
 ------------
 Symbolic Z-matrix:
 Charge =  0 Multiplicity = 1

                         Standard orientation:
 ---------------------------------------------------------------------
 Center     Atomic      Atomic             Coordinates (Angstroms)
 Number     Number       Type             X           Y           Z
 ---------------------------------------------------------------------
      1          8           0       -0.016642    2.210386    0.000000
      2          1           0       -0.013599    1.227789    0.000000
      3          1           0        0.911860    2.531929    0.000000
      4          8           0       -0.016642   -2.047002    0.000000
      5          1           0       -0.996935   -2.114303    0.000000
      6          1           0        0.364941   -2.952486    0.000000
 ---------------------------------------------------------------------

 SCF Done:  E(RHF) =  -152.110128910     A.U. after   10 cycles
 E2 =    -0.5259722039D+00 EUMP2 =    -0.15263610111369D+03
 CCSD(T)
 CCSD(T)= -0.15266323556D+03

 The electronic state is 1-A'.
 Alpha  occ. eigenvalues --  -20.56727 -20.54532  -1.34010  -1.31855  -0.71419
 Alpha  occ. eigenvalues --   -0.69262  -0.57563  -0.55346  -0.51138  -0.48995
 Alpha virt. eigenvalues --    0.12246   0.16088   0.19263   0.23550   0.53837
 Alpha virt. eigenvalues --    0.55583   0.56336   0.58403   0.68619   0.69576
 Alpha virt. eigenvalues --    0.77703   0.78983   0.79848   0.80569   0.83290

 Mulliken charges:
               1
     1  O   -0.521657
     2  H    0.263714
     3  H    0.254501
     4  O   -0.514088
     5  H    0.258914
     6  H    0.258615
 Sum of Mulliken charges =   0.00000

 Dipole moment (field-independent basis, Debye):
    X=              0.5714    Y=             -2.9562    Z=              0.0000  Tot=              3.0109
 Quadrupole moment (field-independent basis, Debye-Ang):
   XX=             -9.5432   YY=             -7.9000   ZZ=            -14.7204
   XY=              5.7998   XZ=              0.0000   YZ=              0.0000

 CCSD(T)=-152.6632356\RMSD=6.769e-09\PG=CS [SG(H4O2)]\\@
 Normal termination of Gaussian 16 at Fri Aug 26 17:23:42 2022.
