 Gaussian 16, Revision A.03,
 Gaussian 16:  ES64L-G16RevA.03 25-Dec-2016

 ------------------
 #p CCSD(T)/cc-pVTZ
 ------------------

 ------------
 H2O_H2O_4464
 ------------
 Symbolic Z-matrix:
 Charge =  0 Multiplicity = 1

                         Standard orientation:
 ---------------------------------------------------------------------
 Center     Atomic      Atomic             Coordinates (Angstroms)
 Number     Number       Type             X           Y           Z
 ---------------------------------------------------------------------
      1          8           0        0.048554    2.887751   -0.000000
      2          1           0        0.047207    1.905150   -0.000000
      3          1           0       -0.880502    3.207690   -0.000000
      4          8           0        0.048554   -2.707331    0.000000
      5          1           0        0.827284   -3.306569    0.000000
      6          1           0       -0.770846   -3.249633    0.000000
 ---------------------------------------------------------------------

 SCF Done:  E(RHF) =  -152.108436989     A.U. after   10 cycles
 E2 =    -0.5258093953D+00 EUMP2 =    -0.15263424638392D+03
 CCSD(T)
 CCSD(T)= -0.15266144280D+03

 The electronic state is 1-A'.
 Alpha  occ. eigenvalues --  -20.56192 -20.54933  -1.33493  -1.32241  -0.70897
 Alpha  occ. eigenvalues --   -0.69641  -0.56987  -0.55712  -0.50612  -0.49364
 Alpha virt. eigenvalues --    0.13348   0.14952   0.19698   0.21058   0.53654
 Alpha virt. eigenvalues --    0.54853   0.56658   0.57801   0.66815   0.68788
 Alpha virt. eigenvalues --    0.78275   0.79491   0.79677   0.80066   0.82706

 Mulliken charges:
               1
     1  O   -0.513941
     2  H    0.260568
     3  H    0.253228
     4  O   -0.514684
     5  H    0.258360
     6  H    0.256469
 Sum of Mulliken charges =   0.00000

 Dipole moment (field-independent basis, Debye):
    X=             -1.6650    Y=             -3.1683    Z=              0.0000  Tot=              3.5791
 Quadrupole moment (field-independent basis, Debye-Ang):
   XX=             -9.1821   YY=             -6.2402   ZZ=            -14.7149
   XY=             -5.5456   XZ=              0.0000   YZ=              0.0000

 09103\MP4DQ=-152.643366\MP4SDQ=-152.6464132\CCSD=-152.6458285\CCSD(T)=
 Normal termination of Gaussian 16 at Sun Aug 28 03:09:41 2022.
