 Gaussian 16, Revision A.03,
 Gaussian 16:  ES64L-G16RevA.03 25-Dec-2016

 ------------------
 #p CCSD(T)/cc-pVTZ
 ------------------

 -----------
 H2O_H2O_122
 -----------
 Symbolic Z-matrix:
 Charge =  0 Multiplicity = 1

                         Standard orientation:
 ---------------------------------------------------------------------
 Center     Atomic      Atomic             Coordinates (Angstroms)
 Number     Number       Type             X           Y           Z
 ---------------------------------------------------------------------
      1          8           0        0.020125   -1.145355    0.000000
      2          1           0        0.014284   -0.162771    0.000000
      3          1           0       -0.907458   -1.469541    0.000000
      4          8           0        0.020125    0.978378    0.000000
      5          1           0        0.993540    1.112422    0.000000
      6          1           0       -0.422363    1.855709    0.000000
 ---------------------------------------------------------------------

 SCF Done:  E(RHF) =  -152.049712737     A.U. after   11 cycles
 E2 =    -0.5357283405D+00 EUMP2 =    -0.15258544107747D+03
 CCSD(T)
 CCSD(T)= -0.15261106329D+03

 The electronic state is 1-A'.
 Alpha  occ. eigenvalues --  -20.61613 -20.45196  -1.43043  -1.25085  -0.81079
 Alpha  occ. eigenvalues --   -0.73554  -0.58004  -0.56150  -0.45330  -0.41745
 Alpha virt. eigenvalues --    0.10728   0.17072   0.20729   0.33629   0.47380
 Alpha virt. eigenvalues --    0.51905   0.60264   0.68993   0.71064   0.71573
 Alpha virt. eigenvalues --    0.76441   0.77303   0.80425   0.84992   0.86555

 Mulliken charges:
               1
     1  O   -0.672184
     2  H    0.280337
     3  H    0.223221
     4  O   -0.326829
     5  H    0.264596
     6  H    0.230859
 Sum of Mulliken charges =  -0.00000

 Dipole moment (field-independent basis, Debye):
    X=             -0.6116    Y=              4.6822    Z=              0.0000  Tot=              4.7220
 Quadrupole moment (field-independent basis, Debye-Ang):
   XX=             -9.3291   YY=            -10.0232   ZZ=            -14.5637
   XY=              2.8496   XZ=              0.0000   YZ=              0.0000

 Normal termination of Gaussian 16 at Fri Aug 26 16:00:38 2022.
