 Gaussian 16, Revision A.03,
 Gaussian 16:  ES64L-G16RevA.03 25-Dec-2016

 ------------------
 #p CCSD(T)/cc-pVTZ
 ------------------

 ------------
 H2O_H2O_2404
 ------------
 Symbolic Z-matrix:
 Charge =  0 Multiplicity = 1

                         Standard orientation:
 ---------------------------------------------------------------------
 Center     Atomic      Atomic             Coordinates (Angstroms)
 Number     Number       Type             X           Y           Z
 ---------------------------------------------------------------------
      1          8           0        0.082808   -2.055976    0.000000
      2          1           0        0.082373   -1.073375    0.000000
      3          1           0       -0.846544   -2.375054    0.000000
      4          8           0        0.082808    1.901468    0.000000
      5          1           0        0.336704    2.850701    0.000000
      6          1           0       -0.897461    1.833796    0.000000
 ---------------------------------------------------------------------

 SCF Done:  E(RHF) =  -152.109575619     A.U. after   10 cycles
 E2 =    -0.5262832894D+00 EUMP2 =    -0.15263585890811D+03
 CCSD(T)
 CCSD(T)= -0.15266298891D+03

 The electronic state is 1-A'.
 Alpha  occ. eigenvalues --  -20.56999 -20.54585  -1.34279  -1.31901  -0.71717
 Alpha  occ. eigenvalues --   -0.69270  -0.57804  -0.55357  -0.51395  -0.49026
 Alpha virt. eigenvalues --    0.11796   0.16111   0.19617   0.24224   0.53311
 Alpha virt. eigenvalues --    0.55608   0.56383   0.58070   0.68670   0.71246
 Alpha virt. eigenvalues --    0.77199   0.79302   0.79892   0.80849   0.83247

 Mulliken charges:
               1
     1  O   -0.516671
     2  H    0.264669
     3  H    0.247147
     4  O   -0.505846
     5  H    0.259294
     6  H    0.251407
 Sum of Mulliken charges =  -0.00000

 Dipole moment (field-independent basis, Debye):
    X=             -2.8075    Y=              2.8347    Z=              0.0000  Tot=              3.9897
 Quadrupole moment (field-independent basis, Debye-Ang):
   XX=            -10.2652   YY=             -8.3648   ZZ=            -14.7179
   XY=              2.8970   XZ=              0.0000   YZ=              0.0000

 Normal termination of Gaussian 16 at Sun Aug 28 07:02:45 2022.
