 Gaussian 16, Revision A.03,
 Gaussian 16:  ES64L-G16RevA.03 25-Dec-2016

 ------------------
 #p CCSD(T)/cc-pVTZ
 ------------------

 -----------
 H2O_H2O_639
 -----------
 Symbolic Z-matrix:
 Charge =  0 Multiplicity = 1

                         Standard orientation:
 ---------------------------------------------------------------------
 Center     Atomic      Atomic             Coordinates (Angstroms)
 Number     Number       Type             X           Y           Z
 ---------------------------------------------------------------------
      1          8           0        0.048702    1.361969    0.000000
      2          1           0        0.045741    0.379372    0.000000
      3          1           0       -0.879827    1.683434    0.000000
      4          8           0        0.048702   -1.181708   -0.000000
      5          1           0        0.826446   -1.782224   -0.000000
      6          1           0       -0.771587   -1.722663   -0.000000
 ---------------------------------------------------------------------

 SCF Done:  E(RHF) =  -152.106455086     A.U. after   11 cycles
 E2 =    -0.5306794810D+00 EUMP2 =    -0.15263713456689D+03
 CCSD(T)
 CCSD(T)= -0.15266367411D+03

 The electronic state is 1-A'.
 Alpha  occ. eigenvalues --  -20.59796 -20.49685  -1.37864  -1.27881  -0.74688
 Alpha  occ. eigenvalues --   -0.69984  -0.59098  -0.54683  -0.50297  -0.44885
 Alpha virt. eigenvalues --    0.11437   0.17736   0.19565   0.33338   0.47631
 Alpha virt. eigenvalues --    0.53950   0.60136   0.62503   0.70076   0.72351
 Alpha virt. eigenvalues --    0.72708   0.78298   0.81651   0.82716   0.84305

 Mulliken charges:
               1
     1  O   -0.600558
     2  H    0.313201
     3  H    0.230541
     4  O   -0.457601
     5  H    0.261786
     6  H    0.252631
 Sum of Mulliken charges =  -0.00000

 Dipole moment (field-independent basis, Debye):
    X=             -1.5720    Y=             -4.1380    Z=             -0.0000  Tot=              4.4266
 Quadrupole moment (field-independent basis, Debye-Ang):
   XX=             -9.1694   YY=             -9.2327   ZZ=            -14.6942
   XY=             -3.1358   XZ=             -0.0000   YZ=             -0.0000

 Normal termination of Gaussian 16 at Fri Aug 26 19:33:55 2022.
