 Gaussian 16, Revision A.03,
 Gaussian 16:  ES64L-G16RevA.03 25-Dec-2016

 ------------------
 #p CCSD(T)/cc-pVTZ
 ------------------

 -----------
 H2O_H2O_573
 -----------
 Symbolic Z-matrix:
 Charge =  0 Multiplicity = 1

                         Standard orientation:
 ---------------------------------------------------------------------
 Center     Atomic      Atomic             Coordinates (Angstroms)
 Number     Number       Type             X           Y           Z
 ---------------------------------------------------------------------
      1          8           0        0.016822   -1.322855    0.000000
      2          1           0        0.011605   -0.340267    0.000000
      3          1           0       -0.910965   -1.646452    0.000000
      4          8           0        0.016822    1.159545    0.000000
      5          1           0        0.996965    1.229015    0.000000
      6          1           0       -0.366763    2.064182    0.000000
 ---------------------------------------------------------------------

 SCF Done:  E(RHF) =  -152.101265611     A.U. after   11 cycles
 E2 =    -0.5313770993D+00 EUMP2 =    -0.15263264271004D+03
 CCSD(T)
 CCSD(T)= -0.15265911833D+03

 The electronic state is 1-A'.
 Alpha  occ. eigenvalues --  -20.59847 -20.49786  -1.38276  -1.28045  -0.76192
 Alpha  occ. eigenvalues --   -0.68924  -0.59601  -0.54888  -0.50285  -0.45058
 Alpha virt. eigenvalues --    0.11598   0.18088   0.19448   0.33906   0.47846
 Alpha virt. eigenvalues --    0.53467   0.58077   0.68020   0.69244   0.72125
 Alpha virt. eigenvalues --    0.74395   0.76566   0.79302   0.83900   0.84125

 Mulliken charges:
               1
     1  O   -0.610301
     2  H    0.297110
     3  H    0.242674
     4  O   -0.422576
     5  H    0.258672
     6  H    0.234422
 Sum of Mulliken charges =  -0.00000

 Dipole moment (field-independent basis, Debye):
    X=             -0.5537    Y=              3.8598    Z=              0.0000  Tot=              3.8993
 Quadrupole moment (field-independent basis, Debye-Ang):
   XX=             -9.4968   YY=             -9.2995   ZZ=            -14.6719
   XY=              3.4247   XZ=              0.0000   YZ=              0.0000

 Normal termination of Gaussian 16 at Fri Aug 26 19:09:22 2022.
