 Gaussian 16, Revision A.03,
 Gaussian 16:  ES64L-G16RevA.03 25-Dec-2016

 ------------------
 #p CCSD(T)/cc-pVTZ
 ------------------

 ------------
 H2O_H2O_3782
 ------------
 Symbolic Z-matrix:
 Charge =  0 Multiplicity = 1

                         Standard orientation:
 ---------------------------------------------------------------------
 Center     Atomic      Atomic             Coordinates (Angstroms)
 Number     Number       Type             X           Y           Z
 ---------------------------------------------------------------------
      1          8           0        0.073529    2.611192   -0.000000
      2          1           0        0.072877    1.628591   -0.000000
      3          1           0       -0.855752    2.930475   -0.000000
      4          8           0        0.073529   -2.444239    0.000000
      5          1           0        0.507539   -3.325796    0.000000
      6          1           0       -0.901134   -2.568893    0.000000
 ---------------------------------------------------------------------

 SCF Done:  E(RHF) =  -152.108480640     A.U. after   10 cycles
 E2 =    -0.5258711933D+00 EUMP2 =    -0.15263435183366D+03
 CCSD(T)
 CCSD(T)= -0.15266153960D+03

 The electronic state is 1-A'.
 Alpha  occ. eigenvalues --  -20.56360 -20.54907  -1.33657  -1.32215  -0.71067
 Alpha  occ. eigenvalues --   -0.69608  -0.57148  -0.55683  -0.50775  -0.49337
 Alpha virt. eigenvalues --    0.12697   0.15242   0.19416   0.21602   0.53302
 Alpha virt. eigenvalues --    0.55035   0.56493   0.57937   0.66742   0.69115
 Alpha virt. eigenvalues --    0.78125   0.78865   0.79517   0.80450   0.82781

 Mulliken charges:
               1
     1  O   -0.513172
     2  H    0.260982
     3  H    0.251558
     4  O   -0.513644
     5  H    0.259598
     6  H    0.254677
 Sum of Mulliken charges =  -0.00000

 Dipole moment (field-independent basis, Debye):
    X=             -2.5154    Y=             -2.9553    Z=              0.0000  Tot=              3.8809
 Quadrupole moment (field-independent basis, Debye-Ang):
   XX=             -9.8114   YY=             -7.3408   ZZ=            -14.7150
   XY=             -3.7586   XZ=              0.0000   YZ=             -0.0000

 Normal termination of Gaussian 16 at Fri Aug 26 23:38:37 2022.
