 Gaussian 16, Revision A.03,
 Gaussian 16:  ES64L-G16RevA.03 25-Dec-2016

 ------------------
 #p CCSD(T)/cc-pVTZ
 ------------------

 -----------
 H2O_H2O_658
 -----------
 Symbolic Z-matrix:
 Charge =  0 Multiplicity = 1

                         Standard orientation:
 ---------------------------------------------------------------------
 Center     Atomic      Atomic             Coordinates (Angstroms)
 Number     Number       Type             X           Y           Z
 ---------------------------------------------------------------------
      1          8           0        0.070255    1.366443    0.000000
      2          1           0        0.068748    0.383843    0.000000
      3          1           0       -0.858748    1.686535    0.000000
      4          8           0        0.070255   -1.196292   -0.000000
      5          1           0        0.560250   -2.048003   -0.000000
      6          1           0       -0.894332   -1.383586   -0.000000
 ---------------------------------------------------------------------

 SCF Done:  E(RHF) =  -152.105115530     A.U. after   11 cycles
 E2 =    -0.5309605802D+00 EUMP2 =    -0.15263607611064D+03
 CCSD(T)
 CCSD(T)= -0.15266267032D+03

 The electronic state is 1-A'.
 Alpha  occ. eigenvalues --  -20.59686 -20.50467  -1.37761  -1.28519  -0.75192
 Alpha  occ. eigenvalues --   -0.69246  -0.59295  -0.54538  -0.51115  -0.45527
 Alpha virt. eigenvalues --    0.11358   0.17059   0.19986   0.32902   0.48131
 Alpha virt. eigenvalues --    0.53758   0.59673   0.61902   0.70684   0.72224
 Alpha virt. eigenvalues --    0.73758   0.77809   0.80399   0.83533   0.84109

 Mulliken charges:
               1
     1  O   -0.583635
     2  H    0.304317
     3  H    0.225439
     4  O   -0.436282
     5  H    0.245363
     6  H    0.244798
 Sum of Mulliken charges =  -0.00000

 Dipole moment (field-independent basis, Debye):
    X=             -2.2680    Y=             -3.8791    Z=             -0.0000  Tot=              4.4934
 Quadrupole moment (field-independent basis, Debye-Ang):
   XX=             -9.7006   YY=             -9.1598   ZZ=            -14.6845
   XY=             -2.9120   XZ=             -0.0000   YZ=             -0.0000

 Normal termination of Gaussian 16 at Fri Aug 26 19:40:42 2022.
