 Gaussian 16, Revision A.03,
 Gaussian 16:  ES64L-G16RevA.03 25-Dec-2016

 ------------------
 #p CCSD(T)/cc-pVTZ
 ------------------

 ------------
 H2O_H2O_2072
 ------------
 Symbolic Z-matrix:
 Charge =  0 Multiplicity = 1

                         Standard orientation:
 ---------------------------------------------------------------------
 Center     Atomic      Atomic             Coordinates (Angstroms)
 Number     Number       Type             X           Y           Z
 ---------------------------------------------------------------------
      1          8           0       -0.019915    1.923208    0.000000
      2          1           0       -0.016543    0.940613    0.000000
      3          1           0        0.908479    2.245062    0.000000
      4          8           0       -0.019915   -1.756130    0.000000
      5          1           0       -0.993664   -1.887727    0.000000
      6          1           0        0.420366   -2.634571    0.000000
 ---------------------------------------------------------------------

 SCF Done:  E(RHF) =  -152.111913992     A.U. after   10 cycles
 E2 =    -0.5263318591D+00 EUMP2 =    -0.15263824585067D+03
 CCSD(T)
 CCSD(T)= -0.15266532251D+03

 The electronic state is 1-A'.
 Alpha  occ. eigenvalues --  -20.57245 -20.53963  -1.34515  -1.31314  -0.71928
 Alpha  occ. eigenvalues --   -0.68740  -0.58179  -0.54782  -0.51648  -0.48468
 Alpha virt. eigenvalues --    0.12219   0.16871   0.19215   0.25971   0.52837
 Alpha virt. eigenvalues --    0.54732   0.56090   0.58913   0.68858   0.72627
 Alpha virt. eigenvalues --    0.76416   0.78566   0.80483   0.83475   0.83776

 Mulliken charges:
               1
     1  O   -0.529890
     2  H    0.267176
     3  H    0.253365
     4  O   -0.509886
     5  H    0.261021
     6  H    0.258214
 Sum of Mulliken charges =  -0.00000

 Dipole moment (field-independent basis, Debye):
    X=              0.6800    Y=             -3.1257    Z=              0.0000  Tot=              3.1988
 Quadrupole moment (field-independent basis, Debye-Ang):
   XX=             -9.4482   YY=             -8.1159   ZZ=            -14.7268
   XY=              4.9095   XZ=              0.0000   YZ=              0.0000

 Normal termination of Gaussian 16 at Sun Aug 28 04:07:41 2022.
