 Gaussian 16, Revision A.03,
 Gaussian 16:  ES64L-G16RevA.03 25-Dec-2016

 ------------------
 #p CCSD(T)/cc-pVTZ
 ------------------

 -----------
 H2O_H2O_280
 -----------
 Symbolic Z-matrix:
 Charge =  0 Multiplicity = 1

                         Standard orientation:
 ---------------------------------------------------------------------
 Center     Atomic      Atomic             Coordinates (Angstroms)
 Number     Number       Type             X           Y           Z
 ---------------------------------------------------------------------
      1          8           0        0.079892   -1.210795    0.000000
      2          1           0        0.078909   -0.228194    0.000000
      3          1           0       -0.849282   -1.530391    0.000000
      4          8           0        0.079892    1.051814    0.000000
      5          1           0        0.394808    1.982584    0.000000
      6          1           0       -0.902702    1.047852    0.000000
 ---------------------------------------------------------------------

 SCF Done:  E(RHF) =  -152.074842303     A.U. after   11 cycles
 E2 =    -0.5351095893D+00 EUMP2 =    -0.15260995189242D+03
 CCSD(T)
 CCSD(T)= -0.15263598699D+03

 The electronic state is 1-A'.
 Alpha  occ. eigenvalues --  -20.60954 -20.48223  -1.40876  -1.27092  -0.79301
 Alpha  occ. eigenvalues --   -0.71111  -0.57482  -0.56607  -0.48843  -0.43926
 Alpha virt. eigenvalues --    0.10842   0.16325   0.21007   0.32586   0.49055
 Alpha virt. eigenvalues --    0.52145   0.59689   0.64899   0.71738   0.72674
 Alpha virt. eigenvalues --    0.76620   0.77220   0.79916   0.84149   0.85257

 Mulliken charges:
               1
     1  O   -0.605536
     2  H    0.286319
     3  H    0.205286
     4  O   -0.353171
     5  H    0.230809
     6  H    0.236293
 Sum of Mulliken charges =  -0.00000

 Dipole moment (field-independent basis, Debye):
    X=             -2.5014    Y=              4.1424    Z=              0.0000  Tot=              4.8391
 Quadrupole moment (field-independent basis, Debye-Ang):
   XX=            -10.0939   YY=             -9.6524   ZZ=            -14.5983
   XY=              2.5257   XZ=              0.0000   YZ=              0.0000

 Normal termination of Gaussian 16 at Fri Aug 26 17:08:08 2022.
