 Gaussian 16, Revision A.03,
 Gaussian 16:  ES64L-G16RevA.03 25-Dec-2016

 ------------------
 #p CCSD(T)/cc-pVTZ
 ------------------

 ------------
 H2O_H2O_1508
 ------------
 Symbolic Z-matrix:
 Charge =  0 Multiplicity = 1

                         Standard orientation:
 ---------------------------------------------------------------------
 Center     Atomic      Atomic             Coordinates (Angstroms)
 Number     Number       Type             X           Y           Z
 ---------------------------------------------------------------------
      1          8           0        0.070228    1.705511   -0.000000
      2          1           0        0.069036    0.722910   -0.000000
      3          1           0       -0.858878    2.025304   -0.000000
      4          8           0        0.070228   -1.535315    0.000000
      5          1           0        0.560497   -2.386867    0.000000
      6          1           0       -0.894298   -1.722918    0.000000
 ---------------------------------------------------------------------

 SCF Done:  E(RHF) =  -152.112548819     A.U. after   10 cycles
 E2 =    -0.5272500480D+00 EUMP2 =    -0.15263979886729D+03
 CCSD(T)
 CCSD(T)= -0.15266681673D+03

 The electronic state is 1-A'.
 Alpha  occ. eigenvalues --  -20.57925 -20.53304  -1.35228  -1.30721  -0.72651
 Alpha  occ. eigenvalues --   -0.68267  -0.58943  -0.54069  -0.52339  -0.47855
 Alpha virt. eigenvalues --    0.11869   0.17031   0.19409   0.28567   0.49599
 Alpha virt. eigenvalues --    0.55137   0.56868   0.58760   0.69639   0.73452
 Alpha virt. eigenvalues --    0.74304   0.76818   0.81273   0.82861   0.84268

 Mulliken charges:
               1
     1  O   -0.534461
     2  H    0.276650
     3  H    0.242062
     4  O   -0.497959
     5  H    0.259478
     6  H    0.254230
 Sum of Mulliken charges =  -0.00000

 Dipole moment (field-independent basis, Debye):
    X=             -2.3511    Y=             -3.3288    Z=              0.0000  Tot=              4.0754
 Quadrupole moment (field-independent basis, Debye-Ang):
   XX=             -9.7060   YY=             -8.3848   ZZ=            -14.7288
   XY=             -3.2389   XZ=              0.0000   YZ=              0.0000

 Normal termination of Gaussian 16 at Sat Aug 27 01:01:00 2022.
