 Gaussian 16, Revision A.03,
 Gaussian 16:  ES64L-G16RevA.03 25-Dec-2016

 ------------------
 #p CCSD(T)/cc-pVTZ
 ------------------

 ------------
 H2O_H2O_2892
 ------------
 Symbolic Z-matrix:
 Charge =  0 Multiplicity = 1

                         Standard orientation:
 ---------------------------------------------------------------------
 Center     Atomic      Atomic             Coordinates (Angstroms)
 Number     Number       Type             X           Y           Z
 ---------------------------------------------------------------------
      1          8           0        0.037454    2.258728    0.000000
      2          1           0        0.035283    1.276129    0.000000
      3          1           0       -0.891332    2.579448    0.000000
      4          8           0        0.037454   -2.079771   -0.000000
      5          1           0        0.917760   -2.516312   -0.000000
      6          1           0       -0.660982   -2.770924   -0.000000
 ---------------------------------------------------------------------

 SCF Done:  E(RHF) =  -152.110166399     A.U. after   10 cycles
 E2 =    -0.5259526071D+00 EUMP2 =    -0.15263611900592D+03
 CCSD(T)
 CCSD(T)= -0.15266325236D+03

 The electronic state is 1-A'.
 Alpha  occ. eigenvalues --  -20.56702 -20.54378  -1.33977  -1.31701  -0.71376
 Alpha  occ. eigenvalues --   -0.69099  -0.57535  -0.55192  -0.51109  -0.48840
 Alpha virt. eigenvalues --    0.12469   0.16065   0.19410   0.22999   0.53155
 Alpha virt. eigenvalues --    0.55541   0.56385   0.58631   0.68683   0.69341
 Alpha virt. eigenvalues --    0.77767   0.79071   0.79606   0.79987   0.83330

 Mulliken charges:
               1
     1  O   -0.520663
     2  H    0.264827
     3  H    0.252308
     4  O   -0.514185
     5  H    0.260061
     6  H    0.257653
 Sum of Mulliken charges =  -0.00000

 Dipole moment (field-independent basis, Debye):
    X=             -1.2767    Y=             -3.2342    Z=             -0.0000  Tot=              3.4770
 Quadrupole moment (field-independent basis, Debye-Ang):
   XX=             -9.1590   YY=             -7.3007   ZZ=            -14.7208
   XY=             -4.9956   XZ=             -0.0000   YZ=              0.0000

 Normal termination of Gaussian 16 at Fri Aug 26 18:08:10 2022.
