 Gaussian 16, Revision A.03,
 Gaussian 16:  ES64L-G16RevA.03 25-Dec-2016

 ------------------
 #p CCSD(T)/cc-pVTZ
 ------------------

 ------------
 H2O_H2O_3887
 ------------
 Symbolic Z-matrix:
 Charge =  0 Multiplicity = 1

                         Standard orientation:
 ---------------------------------------------------------------------
 Center     Atomic      Atomic             Coordinates (Angstroms)
 Number     Number       Type             X           Y           Z
 ---------------------------------------------------------------------
      1          8           0        0.055975    2.657585   -0.000000
      2          1           0        0.054753    1.674984   -0.000000
      3          1           0       -0.873121    2.977407   -0.000000
      4          8           0        0.055975   -2.478658    0.000000
      5          1           0        0.749915   -3.174326    0.000000
      6          1           0       -0.827144   -2.909480    0.000000
 ---------------------------------------------------------------------

 SCF Done:  E(RHF) =  -152.108736614     A.U. after   10 cycles
 E2 =    -0.5258359374D+00 EUMP2 =    -0.15263457255124D+03
 CCSD(T)
 CCSD(T)= -0.15266175627D+03

 The electronic state is 1-A'.
 Alpha  occ. eigenvalues --  -20.56325 -20.54802  -1.33621  -1.32112  -0.71026
 Alpha  occ. eigenvalues --   -0.69509  -0.57125  -0.55587  -0.50742  -0.49237
 Alpha virt. eigenvalues --    0.12983   0.15248   0.19604   0.21396   0.53499
 Alpha virt. eigenvalues --    0.54941   0.56551   0.57864   0.66698   0.69155
 Alpha virt. eigenvalues --    0.78155   0.79232   0.79610   0.79784   0.82897

 Mulliken charges:
               1
     1  O   -0.514808
     2  H    0.261798
     3  H    0.252421
     4  O   -0.515150
     5  H    0.259371
     6  H    0.256368
 Sum of Mulliken charges =   0.00000

 Dipole moment (field-independent basis, Debye):
    X=             -1.9159    Y=             -3.1635    Z=              0.0000  Tot=              3.6984
 Quadrupole moment (field-independent basis, Debye-Ang):
   XX=             -9.2856   YY=             -6.6872   ZZ=            -14.7160
   XY=             -4.8093   XZ=              0.0000   YZ=             -0.0000

 Normal termination of Gaussian 16 at Sat Aug 27 00:17:17 2022.
