 Gaussian 16, Revision A.03,
 Gaussian 16:  ES64L-G16RevA.03 25-Dec-2016

 ------------------
 #p CCSD(T)/cc-pVTZ
 ------------------

 ------------
 H2O_H2O_1196
 ------------
 Symbolic Z-matrix:
 Charge =  0 Multiplicity = 1

                         Standard orientation:
 ---------------------------------------------------------------------
 Center     Atomic      Atomic             Coordinates (Angstroms)
 Number     Number       Type             X           Y           Z
 ---------------------------------------------------------------------
      1          8           0       -0.023327    1.575956    0.000000
      2          1           0       -0.019357    0.593363    0.000000
      3          1           0        0.904871    1.898375    0.000000
      4          8           0       -0.023327   -1.405633    0.000000
      5          1           0       -0.986266   -1.601222    0.000000
      6          1           0        0.473979   -2.253096    0.000000
 ---------------------------------------------------------------------

 SCF Done:  E(RHF) =  -152.113686480     A.U. after   10 cycles
 E2 =    -0.5278808611D+00 EUMP2 =    -0.15264156734077D+03
 CCSD(T)
 CCSD(T)= -0.15266849534D+03

 The electronic state is 1-A'.
 Alpha  occ. eigenvalues --  -20.58388 -20.52405  -1.35802  -1.29965  -0.73228
 Alpha  occ. eigenvalues --   -0.67929  -0.59584  -0.53133  -0.52885  -0.47105
 Alpha virt. eigenvalues --    0.12049   0.18094   0.18841   0.30864   0.49501
 Alpha virt. eigenvalues --    0.54592   0.55822   0.61958   0.68569   0.73136
 Alpha virt. eigenvalues --    0.73313   0.76969   0.82011   0.82438   0.84456

 Mulliken charges:
               1
     1  O   -0.558840
     2  H    0.285384
     3  H    0.249311
     4  O   -0.490288
     5  H    0.264294
     6  H    0.250139
 Sum of Mulliken charges =  -0.00000

 Dipole moment (field-independent basis, Debye):
    X=              0.7834    Y=             -3.4780    Z=              0.0000  Tot=              3.5651
 Quadrupole moment (field-independent basis, Debye-Ang):
   XX=             -9.3564   YY=             -8.6308   ZZ=            -14.7286
   XY=              3.9335   XZ=              0.0000   YZ=              0.0000

 Normal termination of Gaussian 16 at Fri Aug 26 23:03:41 2022.
