 Gaussian 16, Revision A.03,
 Gaussian 16:  ES64L-G16RevA.03 25-Dec-2016

 ------------------
 #p CCSD(T)/cc-pVTZ
 ------------------

 ------------
 H2O_H2O_3761
 ------------
 Symbolic Z-matrix:
 Charge =  0 Multiplicity = 1

                         Standard orientation:
 ---------------------------------------------------------------------
 Center     Atomic      Atomic             Coordinates (Angstroms)
 Number     Number       Type             X           Y           Z
 ---------------------------------------------------------------------
      1          8           0        0.059629    2.606929   -0.000000
      2          1           0        0.058507    1.624328   -0.000000
      3          1           0       -0.869499    2.926657   -0.000000
      4          8           0        0.059629   -2.429468    0.000000
      5          1           0        0.706660   -3.168967    0.000000
      6          1           0       -0.849737   -2.801700    0.000000
 ---------------------------------------------------------------------

 SCF Done:  E(RHF) =  -152.108786597     A.U. after   10 cycles
 E2 =    -0.5258495277D+00 EUMP2 =    -0.15263463612458D+03
 CCSD(T)
 CCSD(T)= -0.15266181673D+03

 The electronic state is 1-A'.
 Alpha  occ. eigenvalues --  -20.56362 -20.54781  -1.33657  -1.32092  -0.71062
 Alpha  occ. eigenvalues --   -0.69487  -0.57161  -0.55567  -0.50778  -0.49217
 Alpha virt. eigenvalues --    0.12872   0.15318   0.19567   0.21510   0.53444
 Alpha virt. eigenvalues --    0.54984   0.56518   0.57912   0.66753   0.69211
 Alpha virt. eigenvalues --    0.78122   0.79058   0.79629   0.79856   0.82917

 Mulliken charges:
               1
     1  O   -0.514826
     2  H    0.261969
     3  H    0.252100
     4  O   -0.514934
     5  H    0.259585
     6  H    0.256106
 Sum of Mulliken charges =  -0.00000

 Dipole moment (field-independent basis, Debye):
    X=             -2.0400    Y=             -3.1435    Z=              0.0000  Tot=              3.7474
 Quadrupole moment (field-independent basis, Debye-Ang):
   XX=             -9.3627   YY=             -6.8349   ZZ=            -14.7161
   XY=             -4.5556   XZ=              0.0000   YZ=             -0.0000

 CCSD(T)=-152.6618167\RMSD=7.089e-09\PG=CS [SG(H4O2)]\\@
 Normal termination of Gaussian 16 at Fri Aug 26 23:31:39 2022.
