 Gaussian 16, Revision A.03,
 Gaussian 16:  ES64L-G16RevA.03 25-Dec-2016

 ------------------
 #p CCSD(T)/cc-pVTZ
 ------------------

 ------------
 H2O_H2O_2199
 ------------
 Symbolic Z-matrix:
 Charge =  0 Multiplicity = 1

                         Standard orientation:
 ---------------------------------------------------------------------
 Center     Atomic      Atomic             Coordinates (Angstroms)
 Number     Number       Type             X           Y           Z
 ---------------------------------------------------------------------
      1          8           0       -0.013567    1.968814    0.000000
      2          1           0       -0.010000    0.986219    0.000000
      3          1           0        0.914763    2.290853    0.000000
      4          8           0       -0.013567   -1.809569    0.000000
      5          1           0       -0.996163   -1.813136    0.000000
      6          1           0        0.308472   -2.737899    0.000000
 ---------------------------------------------------------------------

 SCF Done:  E(RHF) =  -152.111290895     A.U. after   10 cycles
 E2 =    -0.5262453960D+00 EUMP2 =    -0.15263753629087D+03
 CCSD(T)
 CCSD(T)= -0.15266463166D+03

 The electronic state is 1-A'.
 Alpha  occ. eigenvalues --  -20.57117 -20.54224  -1.34395  -1.31563  -0.71823
 Alpha  occ. eigenvalues --   -0.68978  -0.58016  -0.55040  -0.51524  -0.48713
 Alpha virt. eigenvalues --    0.12165   0.16654   0.19268   0.25517   0.53552
 Alpha virt. eigenvalues --    0.54816   0.56012   0.58807   0.68630   0.72379
 Alpha virt. eigenvalues --    0.76750   0.79134   0.80229   0.82418   0.83533

 Mulliken charges:
               1
     1  O   -0.527630
     2  H    0.265585
     3  H    0.254699
     4  O   -0.510646
     5  H    0.259729
     6  H    0.258263
 Sum of Mulliken charges =  -0.00000

 Dipole moment (field-independent basis, Debye):
    X=              0.4687    Y=             -2.9538    Z=              0.0000  Tot=              2.9907
 Quadrupole moment (field-independent basis, Debye-Ang):
   XX=             -9.6499   YY=             -8.2697   ZZ=            -14.7242
   XY=              5.3110   XZ=              0.0000   YZ=              0.0000

 Normal termination of Gaussian 16 at Sun Aug 28 05:22:45 2022.
