 Gaussian 16, Revision A.03,
 Gaussian 16:  ES64L-G16RevA.03 25-Dec-2016

 ------------------
 #p CCSD(T)/cc-pVTZ
 ------------------

 ------------
 H2O_H2O_1997
 ------------
 Symbolic Z-matrix:
 Charge =  0 Multiplicity = 1

                         Standard orientation:
 ---------------------------------------------------------------------
 Center     Atomic      Atomic             Coordinates (Angstroms)
 Number     Number       Type             X           Y           Z
 ---------------------------------------------------------------------
      1          8           0       -0.019920    1.893291    0.000000
      2          1           0       -0.016492    0.910696    0.000000
      3          1           0        0.908456    2.215198    0.000000
      4          8           0       -0.019920   -1.726216    0.000000
      5          1           0       -0.993662   -1.857868    0.000000
      6          1           0        0.420411   -2.604632    0.000000
 ---------------------------------------------------------------------

 SCF Done:  E(RHF) =  -152.112126299     A.U. after   10 cycles
 E2 =    -0.5263960323D+00 EUMP2 =    -0.15263852233088D+03
 CCSD(T)
 CCSD(T)= -0.15266559209D+03

 The electronic state is 1-A'.
 Alpha  occ. eigenvalues --  -20.57315 -20.53887  -1.34585  -1.31245  -0.72001
 Alpha  occ. eigenvalues --   -0.68677  -0.58267  -0.54705  -0.51718  -0.48400
 Alpha virt. eigenvalues --    0.12215   0.16959   0.19203   0.26307   0.52599
 Alpha virt. eigenvalues --    0.54607   0.56056   0.59049   0.68882   0.72860
 Alpha virt. eigenvalues --    0.76177   0.78398   0.80573   0.83418   0.84017

 Mulliken charges:
               1
     1  O   -0.531128
     2  H    0.267691
     3  H    0.253263
     4  O   -0.509420
     5  H    0.261356
     6  H    0.258238
 Sum of Mulliken charges =  -0.00000

 Dipole moment (field-independent basis, Debye):
    X=              0.6798    Y=             -3.1405    Z=              0.0000  Tot=              3.2132
 Quadrupole moment (field-independent basis, Debye-Ang):
   XX=             -9.4483   YY=             -8.1549   ZZ=            -14.7277
   XY=              4.8336   XZ=              0.0000   YZ=              0.0000

 Normal termination of Gaussian 16 at Sun Aug 28 03:25:02 2022.
