 Gaussian 16, Revision A.03,
 Gaussian 16:  ES64L-G16RevA.03 25-Dec-2016

 ------------------
 #p CCSD(T)/cc-pVTZ
 ------------------

 ------------
 H2O_H2O_4084
 ------------
 Symbolic Z-matrix:
 Charge =  0 Multiplicity = 1

                         Standard orientation:
 ---------------------------------------------------------------------
 Center     Atomic      Atomic             Coordinates (Angstroms)
 Number     Number       Type             X           Y           Z
 ---------------------------------------------------------------------
      1          8           0        0.066748    2.734207    0.000000
      2          1           0        0.065908    1.751606    0.000000
      3          1           0       -0.862473    3.053667    0.000000
      4          8           0        0.066748   -2.561083   -0.000000
      5          1           0        0.611954   -3.378553   -0.000000
      6          1           0       -0.883354   -2.811709   -0.000000
 ---------------------------------------------------------------------

 SCF Done:  E(RHF) =  -152.108434276     A.U. after   10 cycles
 E2 =    -0.5258393709D+00 EUMP2 =    -0.15263427364672D+03
 CCSD(T)
 CCSD(T)= -0.15266146649D+03

 The electronic state is 1-A'.
 Alpha  occ. eigenvalues --  -20.56278 -20.54918  -1.33578  -1.32226  -0.70985
 Alpha  occ. eigenvalues --   -0.69623  -0.57069  -0.55695  -0.50695  -0.49348
 Alpha virt. eigenvalues --    0.13023   0.15091   0.19541   0.21293   0.53433
 Alpha virt. eigenvalues --    0.54944   0.56567   0.57835   0.66697   0.68986
 Alpha virt. eigenvalues --    0.78198   0.79184   0.79506   0.80254   0.82768

 Mulliken charges:
               1
     1  O   -0.513404
     2  H    0.260857
     3  H    0.252200
     4  O   -0.514203
     5  H    0.259181
     6  H    0.255369
 Sum of Mulliken charges =  -0.00000

 Dipole moment (field-independent basis, Debye):
    X=             -2.2860    Y=             -3.0523    Z=             -0.0000  Tot=              3.8135
 Quadrupole moment (field-independent basis, Debye-Ang):
   XX=             -9.5609   YY=             -6.8698   ZZ=            -14.7148
   XY=             -4.2821   XZ=             -0.0000   YZ=              0.0000

 Normal termination of Gaussian 16 at Sat Aug 27 23:23:00 2022.
