 Gaussian 16, Revision A.03,
 Gaussian 16:  ES64L-G16RevA.03 25-Dec-2016

 ------------------
 #p CCSD(T)/cc-pVTZ
 ------------------

 -----------
 H2O_H2O_518
 -----------
 Symbolic Z-matrix:
 Charge =  0 Multiplicity = 1

                         Standard orientation:
 ---------------------------------------------------------------------
 Center     Atomic      Atomic             Coordinates (Angstroms)
 Number     Number       Type             X           Y           Z
 ---------------------------------------------------------------------
      1          8           0        0.033961    1.310556   -0.000000
      2          1           0        0.029852    0.327963   -0.000000
      3          1           0       -0.894191    1.633107   -0.000000
      4          8           0        0.033961   -1.133163    0.000000
      5          1           0        0.940186   -1.512981    0.000000
      6          1           0       -0.619226   -1.867229    0.000000
 ---------------------------------------------------------------------

 SCF Done:  E(RHF) =  -152.100664381     A.U. after   11 cycles
 E2 =    -0.5315550008D+00 EUMP2 =    -0.15263221938169D+03
 CCSD(T)
 CCSD(T)= -0.15265860010D+03

 The electronic state is 1-A'.
 Alpha  occ. eigenvalues --  -20.60154 -20.48823  -1.38625  -1.27297  -0.75520
 Alpha  occ. eigenvalues --   -0.70774  -0.58701  -0.55257  -0.49353  -0.44253
 Alpha virt. eigenvalues --    0.11354   0.17831   0.19675   0.33743   0.47325
 Alpha virt. eigenvalues --    0.53669   0.59771   0.66421   0.69128   0.72261
 Alpha virt. eigenvalues --    0.74033   0.78299   0.80565   0.83285   0.83899

 Mulliken charges:
               1
     1  O   -0.617569
     2  H    0.309221
     3  H    0.231979
     4  O   -0.432175
     5  H    0.262063
     6  H    0.246481
 Sum of Mulliken charges =  -0.00000

 Dipole moment (field-independent basis, Debye):
    X=             -1.0904    Y=             -4.2383    Z=              0.0000  Tot=              4.3764
 Quadrupole moment (field-independent basis, Debye-Ang):
   XX=             -9.1511   YY=             -9.4077   ZZ=            -14.6743
   XY=             -3.1273   XZ=              0.0000   YZ=             -0.0000

 Normal termination of Gaussian 16 at Fri Aug 26 18:47:28 2022.
