 Gaussian 16, Revision A.03,
 Gaussian 16:  ES64L-G16RevA.03 25-Dec-2016

 ------------------
 #p CCSD(T)/cc-pVTZ
 ------------------

 -----------
 H2O_H2O_860
 -----------
 Symbolic Z-matrix:
 Charge =  0 Multiplicity = 1

                         Standard orientation:
 ---------------------------------------------------------------------
 Center     Atomic      Atomic             Coordinates (Angstroms)
 Number     Number       Type             X           Y           Z
 ---------------------------------------------------------------------
      1          8           0        0.063302    1.449078   -0.000000
      2          1           0        0.061449    0.466478   -0.000000
      3          1           0       -0.865588    1.769496   -0.000000
      4          8           0        0.063302   -1.273665    0.000000
      5          1           0        0.660001   -2.054341    0.000000
      6          1           0       -0.868696   -1.584933    0.000000
 ---------------------------------------------------------------------

 SCF Done:  E(RHF) =  -152.110842091     A.U. after   10 cycles
 E2 =    -0.5294971384D+00 EUMP2 =    -0.15264033922930D+03
 CCSD(T)
 CCSD(T)= -0.15266710058D+03

 The electronic state is 1-A'.
 Alpha  occ. eigenvalues --  -20.59162 -20.51229  -1.36838  -1.29038  -0.74093
 Alpha  occ. eigenvalues --   -0.68513  -0.59644  -0.53809  -0.51906  -0.46108
 Alpha virt. eigenvalues --    0.11594   0.17430   0.19527   0.32422   0.48081
 Alpha virt. eigenvalues --    0.54362   0.59288   0.60034   0.70018   0.72475
 Alpha virt. eigenvalues --    0.72905   0.77302   0.81658   0.82946   0.84441

 Mulliken charges:
               1
     1  O   -0.572427
     2  H    0.302861
     3  H    0.232851
     4  O   -0.471026
     5  H    0.256035
     6  H    0.251707
 Sum of Mulliken charges =  -0.00000

 Dipole moment (field-independent basis, Debye):
    X=             -2.0701    Y=             -3.8014    Z=              0.0000  Tot=              4.3285
 Quadrupole moment (field-independent basis, Debye-Ang):
   XX=             -9.4699   YY=             -8.9251   ZZ=            -14.7113
   XY=             -3.1251   XZ=              0.0000   YZ=             -0.0000

 Normal termination of Gaussian 16 at Fri Aug 26 20:57:27 2022.
