 Gaussian 16, Revision A.03,
 Gaussian 16:  ES64L-G16RevA.03 25-Dec-2016

 ------------------
 #p CCSD(T)/cc-pVTZ
 ------------------

 ------------
 H2O_H2O_2631
 ------------
 Symbolic Z-matrix:
 Charge =  0 Multiplicity = 1

                         Standard orientation:
 ---------------------------------------------------------------------
 Center     Atomic      Atomic             Coordinates (Angstroms)
 Number     Number       Type             X           Y           Z
 ---------------------------------------------------------------------
      1          8           0        0.076763    2.150445    0.000000
      2          1           0        0.076099    1.167843    0.000000
      3          1           0       -0.852514    2.469739    0.000000
      4          8           0        0.076763   -1.987245    0.000000
      5          1           0        0.452175   -2.895305    0.000000
      6          1           0       -0.903967   -2.047874    0.000000
 ---------------------------------------------------------------------

 SCF Done:  E(RHF) =  -152.109624433     A.U. after   10 cycles
 E2 =    -0.5261331591D+00 EUMP2 =    -0.15263575759223D+03
 CCSD(T)
 CCSD(T)= -0.15266289333D+03

 The electronic state is 1-A'.
 Alpha  occ. eigenvalues --  -20.56855 -20.54540  -1.34133  -1.31857  -0.71553
 Alpha  occ. eigenvalues --   -0.69235  -0.57661  -0.55324  -0.51254  -0.48985
 Alpha virt. eigenvalues --    0.12006   0.16049   0.19473   0.23565   0.53639
 Alpha virt. eigenvalues --    0.55395   0.56257   0.58508   0.68775   0.70005
 Alpha virt. eigenvalues --    0.77532   0.79100   0.79881   0.80568   0.83113

 Mulliken charges:
               1
     1  O   -0.517077
     2  H    0.264471
     3  H    0.248467
     4  O   -0.508835
     5  H    0.259647
     6  H    0.253326
 Sum of Mulliken charges =  -0.00000

 Dipole moment (field-independent basis, Debye):
    X=             -2.6088    Y=             -2.9706    Z=              0.0000  Tot=              3.9535
 Quadrupole moment (field-independent basis, Debye-Ang):
   XX=             -9.9613   YY=             -7.9868   ZZ=            -14.7184
   XY=             -3.2820   XZ=             -0.0000   YZ=              0.0000

 CCSD(T)=-152.6628933\RMSD=6.925e-09\PG=CS [SG(H4O2)]\\@
 Normal termination of Gaussian 16 at Fri Aug 26 16:10:02 2022.
