 Gaussian 16, Revision A.03,
 Gaussian 16:  ES64L-G16RevA.03 25-Dec-2016

 ------------------
 #p CCSD(T)/cc-pVTZ
 ------------------

 ------------
 H2O_H2O_4106
 ------------
 Symbolic Z-matrix:
 Charge =  0 Multiplicity = 1

                         Standard orientation:
 ---------------------------------------------------------------------
 Center     Atomic      Atomic             Coordinates (Angstroms)
 Number     Number       Type             X           Y           Z
 ---------------------------------------------------------------------
      1          8           0        0.076751    2.738800   -0.000000
      2          1           0        0.076234    1.756199   -0.000000
      3          1           0       -0.852574    3.057956   -0.000000
      4          8           0        0.076751   -2.575578    0.000000
      5          1           0        0.452299   -3.483580    0.000000
      6          1           0       -0.903970   -2.636353    0.000000
 ---------------------------------------------------------------------

 SCF Done:  E(RHF) =  -152.108213425     A.U. after   10 cycles
 E2 =    -0.5258552233D+00 EUMP2 =    -0.15263406864856D+03
 CCSD(T)
 CCSD(T)= -0.15266126674D+03

 The electronic state is 1-A'.
 Alpha  occ. eigenvalues --  -20.56278 -20.55022  -1.33578  -1.32328  -0.70989
 Alpha  occ. eigenvalues --   -0.69723  -0.57060  -0.55791  -0.50694  -0.49447
 Alpha virt. eigenvalues --    0.12883   0.15030   0.19376   0.21409   0.53299
 Alpha virt. eigenvalues --    0.54973   0.56546   0.57840   0.66720   0.68893
 Alpha virt. eigenvalues --    0.78200   0.79136   0.79413   0.80662   0.82642

 Mulliken charges:
               1
     1  O   -0.512222
     2  H    0.260022
     3  H    0.251913
     4  O   -0.513174
     5  H    0.259128
     6  H    0.254333
 Sum of Mulliken charges =  -0.00000

 Dipole moment (field-independent basis, Debye):
    X=             -2.6287    Y=             -2.8763    Z=              0.0000  Tot=              3.8966
 Quadrupole moment (field-independent basis, Debye-Ang):
   XX=             -9.9492   YY=             -7.4042   ZZ=            -14.7140
   XY=             -3.6169   XZ=              0.0000   YZ=             -0.0000

 Normal termination of Gaussian 16 at Sat Aug 27 23:31:59 2022.
