 Gaussian 16, Revision A.03,
 Gaussian 16:  ES64L-G16RevA.03 25-Dec-2016

 ------------------
 #p CCSD(T)/cc-pVTZ
 ------------------

 ------------
 H2O_H2O_3228
 ------------
 Symbolic Z-matrix:
 Charge =  0 Multiplicity = 1

                         Standard orientation:
 ---------------------------------------------------------------------
 Center     Atomic      Atomic             Coordinates (Angstroms)
 Number     Number       Type             X           Y           Z
 ---------------------------------------------------------------------
      1          8           0        0.085601   -2.382382    0.000000
      2          1           0        0.085330   -1.399780    0.000000
      3          1           0       -0.843805   -2.701304    0.000000
      4          8           0        0.085601    2.232784    0.000000
      5          1           0        0.277032    3.196558    0.000000
      6          1           0       -0.888166    2.101308    0.000000
 ---------------------------------------------------------------------

 SCF Done:  E(RHF) =  -152.108422905     A.U. after   10 cycles
 E2 =    -0.5259854362D+00 EUMP2 =    -0.15263440834105D+03
 CCSD(T)
 CCSD(T)= -0.15266158782D+03

 The electronic state is 1-A'.
 Alpha  occ. eigenvalues --  -20.56554 -20.54972  -1.33847  -1.32278  -0.71269
 Alpha  occ. eigenvalues --   -0.69663  -0.57329  -0.55738  -0.50961  -0.49396
 Alpha virt. eigenvalues --    0.11955   0.15516   0.19307   0.22567   0.53792
 Alpha virt. eigenvalues --    0.54914   0.56422   0.58175   0.67425   0.69105
 Alpha virt. eigenvalues --    0.77944   0.78569   0.79465   0.80991   0.82685

 Mulliken charges:
               1
     1  O   -0.512124
     2  H    0.260746
     3  H    0.250032
     4  O   -0.510716
     5  H    0.259815
     6  H    0.252247
 Sum of Mulliken charges =  -0.00000

 Dipole moment (field-independent basis, Debye):
    X=             -2.9198    Y=              2.6729    Z=              0.0000  Tot=              3.9585
 Quadrupole moment (field-independent basis, Debye-Ang):
   XX=            -10.4059   YY=             -8.3780   ZZ=            -14.7144
   XY=              2.8071   XZ=              0.0000   YZ=              0.0000

 Normal termination of Gaussian 16 at Fri Aug 26 20:30:57 2022.
