 Gaussian 16, Revision A.03,
 Gaussian 16:  ES64L-G16RevA.03 25-Dec-2016

 ------------------
 #p CCSD(T)/cc-pVTZ
 ------------------

 ------------
 H2O_H2O_2987
 ------------
 Symbolic Z-matrix:
 Charge =  0 Multiplicity = 1

                         Standard orientation:
 ---------------------------------------------------------------------
 Center     Atomic      Atomic             Coordinates (Angstroms)
 Number     Number       Type             X           Y           Z
 ---------------------------------------------------------------------
      1          8           0        0.055993    2.298584    0.000000
      2          1           0        0.054573    1.315984    0.000000
      3          1           0       -0.873039    2.618594    0.000000
      4          8           0        0.055993   -2.119680    0.000000
      5          1           0        0.749793   -2.815488    0.000000
      6          1           0       -0.827213   -2.550324    0.000000
 ---------------------------------------------------------------------

 SCF Done:  E(RHF) =  -152.109779375     A.U. after   10 cycles
 E2 =    -0.5259561266D+00 EUMP2 =    -0.15263573550182D+03
 CCSD(T)
 CCSD(T)= -0.15266287840D+03

 The electronic state is 1-A'.
 Alpha  occ. eigenvalues --  -20.56662 -20.54452  -1.33939  -1.31772  -0.71341
 Alpha  occ. eigenvalues --   -0.69163  -0.57480  -0.55256  -0.51068  -0.48906
 Alpha virt. eigenvalues --    0.12460   0.15932   0.19455   0.22688   0.53218
 Alpha virt. eigenvalues --    0.55420   0.56306   0.58605   0.68303   0.69332
 Alpha virt. eigenvalues --    0.77825   0.79092   0.79428   0.79925   0.83234

 Mulliken charges:
               1
     1  O   -0.518416
     2  H    0.264426
     3  H    0.250958
     4  O   -0.513518
     5  H    0.260208
     6  H    0.256342
 Sum of Mulliken charges =  -0.00000

 Dipole moment (field-independent basis, Debye):
    X=             -1.9085    Y=             -3.2240    Z=             -0.0000  Tot=              3.7466
 Quadrupole moment (field-independent basis, Debye-Ang):
   XX=             -9.2875   YY=             -7.2460   ZZ=            -14.7195
   XY=             -4.3485   XZ=             -0.0000   YZ=             -0.0000

 CCSD(T)=-152.6628784\RMSD=6.879e-09\PG=CS [SG(H4O2)]\\@
 Normal termination of Gaussian 16 at Fri Aug 26 19:03:26 2022.
