 Gaussian 16, Revision A.03,
 Gaussian 16:  ES64L-G16RevA.03 25-Dec-2016

 ------------------
 #p CCSD(T)/cc-pVTZ
 ------------------

 ------------
 H2O_H2O_2201
 ------------
 Symbolic Z-matrix:
 Charge =  0 Multiplicity = 1

                         Standard orientation:
 ---------------------------------------------------------------------
 Center     Atomic      Atomic             Coordinates (Angstroms)
 Number     Number       Type             X           Y           Z
 ---------------------------------------------------------------------
      1          8           0        0.090686   -1.967616    0.000000
      2          1           0        0.090584   -0.985015    0.000000
      3          1           0       -0.838774   -2.286379    0.000000
      4          8           0        0.090686    1.828911    0.000000
      5          1           0        0.154850    2.809415    0.000000
      6          1           0       -0.857633    1.571620    0.000000
 ---------------------------------------------------------------------

 SCF Done:  E(RHF) =  -152.108998125     A.U. after   10 cycles
 E2 =    -0.5265046827D+00 EUMP2 =    -0.15263550280745D+03
 CCSD(T)
 CCSD(T)= -0.15266264095D+03

 The electronic state is 1-A'.
 Alpha  occ. eigenvalues --  -20.57139 -20.54811  -1.34429  -1.32120  -0.71918
 Alpha  occ. eigenvalues --   -0.69461  -0.57927  -0.55557  -0.51531  -0.49235
 Alpha virt. eigenvalues --    0.11515   0.16050   0.19975   0.24876   0.52728
 Alpha virt. eigenvalues --    0.55797   0.56718   0.57518   0.68300   0.72734
 Alpha virt. eigenvalues --    0.76706   0.79331   0.79793   0.80544   0.83225

 Mulliken charges:
               1
     1  O   -0.514660
     2  H    0.264553
     3  H    0.245708
     4  O   -0.501761
     5  H    0.258851
     6  H    0.247309
 Sum of Mulliken charges =  -0.00000

 Dipole moment (field-independent basis, Debye):
    X=             -3.0651    Y=              2.5631    Z=              0.0000  Tot=              3.9956
 Quadrupole moment (field-independent basis, Debye-Ang):
   XX=            -10.7302   YY=             -8.9479   ZZ=            -14.7150
   XY=              2.3311   XZ=              0.0000   YZ=              0.0000

 52015\MP4DQ=-152.6444293\MP4SDQ=-152.6475285\CCSD=-152.646918\CCSD(T)=
 Normal termination of Gaussian 16 at Sun Aug 28 05:23:44 2022.
