 Gaussian 16, Revision A.03,
 Gaussian 16:  ES64L-G16RevA.03 25-Dec-2016

 ------------------
 #p CCSD(T)/cc-pVTZ
 ------------------

 ------------
 H2O_H2O_1223
 ------------
 Symbolic Z-matrix:
 Charge =  0 Multiplicity = 1

                         Standard orientation:
 ---------------------------------------------------------------------
 Center     Atomic      Atomic             Coordinates (Angstroms)
 Number     Number       Type             X           Y           Z
 ---------------------------------------------------------------------
      1          8           0       -0.016747    1.582137    0.000000
      2          1           0       -0.012431    0.599545    0.000000
      3          1           0        0.911337    1.904883    0.000000
      4          8           0       -0.016747   -1.418796    0.000000
      5          1           0       -0.996954   -1.487368    0.000000
      6          1           0        0.366007   -2.323785    0.000000
 ---------------------------------------------------------------------

 SCF Done:  E(RHF) =  -152.113185408     A.U. after   10 cycles
 E2 =    -0.5278188387D+00 EUMP2 =    -0.15264100424677D+03
 CCSD(T)
 CCSD(T)= -0.15266795269D+03

 The electronic state is 1-A'.
 Alpha  occ. eigenvalues --  -20.58304 -20.52684  -1.35727  -1.30218  -0.73265
 Alpha  occ. eigenvalues --   -0.67989  -0.59527  -0.53409  -0.52801  -0.47360
 Alpha virt. eigenvalues --    0.12084   0.17903   0.19024   0.30661   0.49750
 Alpha virt. eigenvalues --    0.54626   0.55636   0.62018   0.68619   0.73136
 Alpha virt. eigenvalues --    0.74109   0.76735   0.81819   0.82264   0.84310

 Mulliken charges:
               1
     1  O   -0.556836
     2  H    0.282293
     3  H    0.251768
     4  O   -0.485487
     5  H    0.262812
     6  H    0.245450
 Sum of Mulliken charges =  -0.00000

 Dipole moment (field-independent basis, Debye):
    X=              0.5698    Y=             -3.3219    Z=              0.0000  Tot=              3.3704
 Quadrupole moment (field-independent basis, Debye-Ang):
   XX=             -9.5385   YY=             -8.6804   ZZ=            -14.7257
   XY=              4.1363   XZ=              0.0000   YZ=              0.0000

 Normal termination of Gaussian 16 at Fri Aug 26 23:13:28 2022.
