 Gaussian 16, Revision A.03,
 Gaussian 16:  ES64L-G16RevA.03 25-Dec-2016

 ------------------
 #p CCSD(T)/cc-pVTZ
 ------------------

 -----------
 H2O_H2O_631
 -----------
 Symbolic Z-matrix:
 Charge =  0 Multiplicity = 1

                         Standard orientation:
 ---------------------------------------------------------------------
 Center     Atomic      Atomic             Coordinates (Angstroms)
 Number     Number       Type             X           Y           Z
 ---------------------------------------------------------------------
      1          8           0        0.076798   -1.352658    0.000000
      2          1           0        0.075717   -0.370057    0.000000
      3          1           0       -0.852344   -1.672346    0.000000
      4          8           0        0.076798    1.189523    0.000000
      5          1           0        0.451824    2.097743    0.000000
      6          1           0       -0.903958    1.249736    0.000000
 ---------------------------------------------------------------------

 SCF Done:  E(RHF) =  -152.102732744     A.U. after   11 cycles
 E2 =    -0.5313959482D+00 EUMP2 =    -0.15263412869193D+03
 CCSD(T)
 CCSD(T)= -0.15266071587D+03

 The electronic state is 1-A'.
 Alpha  occ. eigenvalues --  -20.59730 -20.50690  -1.37924  -1.28731  -0.75721
 Alpha  occ. eigenvalues --   -0.69013  -0.59333  -0.54619  -0.51351  -0.45729
 Alpha virt. eigenvalues --    0.11301   0.16820   0.20225   0.32757   0.48282
 Alpha virt. eigenvalues --    0.53417   0.59237   0.62701   0.70674   0.72073
 Alpha virt. eigenvalues --    0.74052   0.78028   0.79685   0.83669   0.83875

 Mulliken charges:
               1
     1  O   -0.578479
     2  H    0.299392
     3  H    0.222939
     4  O   -0.421825
     5  H    0.238098
     6  H    0.239875
 Sum of Mulliken charges =  -0.00000

 Dipole moment (field-independent basis, Debye):
    X=             -2.4759    Y=              3.7524    Z=              0.0000  Tot=              4.4956
 Quadrupole moment (field-independent basis, Debye-Ang):
   XX=             -9.9789   YY=             -9.1898   ZZ=            -14.6739
   XY=              2.7536   XZ=              0.0000   YZ=              0.0000

 Normal termination of Gaussian 16 at Fri Aug 26 19:30:56 2022.
