 Gaussian 16, Revision A.03,
 Gaussian 16:  ES64L-G16RevA.03 25-Dec-2016

 ------------------
 #p CCSD(T)/cc-pVTZ
 ------------------

 ------------
 H2O_H2O_2005
 ------------
 Symbolic Z-matrix:
 Charge =  0 Multiplicity = 1

                         Standard orientation:
 ---------------------------------------------------------------------
 Center     Atomic      Atomic             Coordinates (Angstroms)
 Number     Number       Type             X           Y           Z
 ---------------------------------------------------------------------
      1          8           0        0.079862    1.898888    0.000000
      2          1           0        0.079251    0.916287    0.000000
      3          1           0       -0.849433    2.218133   -0.000000
      4          8           0        0.079862   -1.739847    0.000000
      5          1           0        0.395129   -2.670498    0.000000
      6          1           0       -0.902734   -1.736256   -0.000000
 ---------------------------------------------------------------------

 SCF Done:  E(RHF) =  -152.110583492     A.U. after   10 cycles
 E2 =    -0.5265805965D+00 EUMP2 =    -0.15263716408830D+03
 CCSD(T)
 CCSD(T)= -0.15266425794D+03

 The electronic state is 1-A'.
 Alpha  occ. eigenvalues --  -20.57331 -20.54221  -1.34608  -1.31556  -0.72059
 Alpha  occ. eigenvalues --   -0.68930  -0.58191  -0.54994  -0.51723  -0.48685
 Alpha virt. eigenvalues --    0.11818   0.16449   0.19637   0.25727   0.51728
 Alpha virt. eigenvalues --    0.55699   0.56418   0.58017   0.68859   0.73063
 Alpha virt. eigenvalues --    0.76197   0.78624   0.80330   0.83236   0.83272

 Mulliken charges:
               1
     1  O   -0.520964
     2  H    0.267416
     3  H    0.245104
     4  O   -0.502795
     5  H    0.259432
     6  H    0.251808
 Sum of Mulliken charges =  -0.00000

 Dipole moment (field-independent basis, Debye):
    X=             -2.6960    Y=             -2.9817    Z=             -0.0000  Tot=              4.0198
 Quadrupole moment (field-independent basis, Debye-Ang):
   XX=            -10.1215   YY=             -8.3557   ZZ=            -14.7217
   XY=             -2.9915   XZ=             -0.0000   YZ=             -0.0000

 Normal termination of Gaussian 16 at Sun Aug 28 03:32:12 2022.
