 Gaussian 16, Revision A.03,
 Gaussian 16:  ES64L-G16RevA.03 25-Dec-2016

 ------------------
 #p CCSD(T)/cc-pVTZ
 ------------------

 -----------
 H2O_H2O_417
 -----------
 Symbolic Z-matrix:
 Charge =  0 Multiplicity = 1

                         Standard orientation:
 ---------------------------------------------------------------------
 Center     Atomic      Atomic             Coordinates (Angstroms)
 Number     Number       Type             X           Y           Z
 ---------------------------------------------------------------------
      1          8           0        0.037620    1.271442   -0.000000
      2          1           0        0.033634    0.288849   -0.000000
      3          1           0       -0.890573    1.593876   -0.000000
      4          8           0        0.037620   -1.092624    0.000000
      5          1           0        0.917118   -1.530788    0.000000
      6          1           0       -0.662092   -1.782486    0.000000
 ---------------------------------------------------------------------

 SCF Done:  E(RHF) =  -152.094038225     A.U. after   11 cycles
 E2 =    -0.5323891316D+00 EUMP2 =    -0.15262642735642D+03
 CCSD(T)
 CCSD(T)= -0.15265265003D+03

 The electronic state is 1-A'.
 Alpha  occ. eigenvalues --  -20.60537 -20.47927  -1.39410  -1.26698  -0.75973
 Alpha  occ. eigenvalues --   -0.72168  -0.57973  -0.55848  -0.48421  -0.43582
 Alpha virt. eigenvalues --    0.11156   0.17565   0.19991   0.33744   0.47111
 Alpha virt. eigenvalues --    0.53349   0.60832   0.66326   0.69657   0.72156
 Alpha virt. eigenvalues --    0.75461   0.78756   0.80464   0.82858   0.83813

 Mulliken charges:
               1
     1  O   -0.628567
     2  H    0.309401
     3  H    0.226414
     4  O   -0.414392
     5  H    0.261028
     6  H    0.246116
 Sum of Mulliken charges =  -0.00000

 Dipole moment (field-independent basis, Debye):
    X=             -1.1937    Y=             -4.4162    Z=              0.0000  Tot=              4.5747
 Quadrupole moment (field-independent basis, Debye-Ang):
   XX=             -9.1198   YY=             -9.5775   ZZ=            -14.6566
   XY=             -3.0103   XZ=              0.0000   YZ=             -0.0000

 Normal termination of Gaussian 16 at Fri Aug 26 18:07:20 2022.
