 Gaussian 16, Revision A.03,
 Gaussian 16:  ES64L-G16RevA.03 25-Dec-2016

 ------------------
 #p CCSD(T)/cc-pVTZ
 ------------------

 ------------
 H2O_H2O_1161
 ------------
 Symbolic Z-matrix:
 Charge =  0 Multiplicity = 1

                         Standard orientation:
 ---------------------------------------------------------------------
 Center     Atomic      Atomic             Coordinates (Angstroms)
 Number     Number       Type             X           Y           Z
 ---------------------------------------------------------------------
      1          8           0        0.059700    1.569801   -0.000000
      2          1           0        0.057791    0.587202   -0.000000
      3          1           0       -0.869172    1.890273    0.000000
      4          8           0        0.059700   -1.392436   -0.000000
      5          1           0        0.706138   -2.132452   -0.000000
      6          1           0       -0.849965   -1.763941    0.000000
 ---------------------------------------------------------------------

 SCF Done:  E(RHF) =  -152.113465333     A.U. after   10 cycles
 E2 =    -0.5281261951D+00 EUMP2 =    -0.15264159152828D+03
 CCSD(T)
 CCSD(T)= -0.15266850739D+03

 The electronic state is 1-A'.
 Alpha  occ. eigenvalues --  -20.58514 -20.52241  -1.35917  -1.29812  -0.73224
 Alpha  occ. eigenvalues --   -0.67993  -0.59547  -0.53001  -0.52974  -0.46934
 Alpha virt. eigenvalues --    0.11826   0.17554   0.19206   0.30937   0.48629
 Alpha virt. eigenvalues --    0.54809   0.57172   0.59664   0.69758   0.72175
 Alpha virt. eigenvalues --    0.73103   0.76855   0.82173   0.82528   0.84754

 Mulliken charges:
               1
     1  O   -0.553704
     2  H    0.290378
     3  H    0.239487
     4  O   -0.494178
     5  H    0.261866
     6  H    0.256150
 Sum of Mulliken charges =  -0.00000

 Dipole moment (field-independent basis, Debye):
    X=             -1.9796    Y=             -3.6324    Z=              0.0000  Tot=              4.1368
 Quadrupole moment (field-independent basis, Debye-Ang):
   XX=             -9.3768   YY=             -8.6017   ZZ=            -14.7290
   XY=             -3.3348   XZ=              0.0000   YZ=              0.0000

 Normal termination of Gaussian 16 at Fri Aug 26 22:49:50 2022.
