 Gaussian 16, Revision A.03,
 Gaussian 16:  ES64L-G16RevA.03 25-Dec-2016

 ------------------
 #p CCSD(T)/cc-pVTZ
 ------------------

 ------------
 H2O_H2O_3909
 ------------
 Symbolic Z-matrix:
 Charge =  0 Multiplicity = 1

                         Standard orientation:
 ---------------------------------------------------------------------
 Center     Atomic      Atomic             Coordinates (Angstroms)
 Number     Number       Type             X           Y           Z
 ---------------------------------------------------------------------
      1          8           0        0.066750    2.664402    0.000000
      2          1           0        0.065887    1.681801    0.000000
      3          1           0       -0.862463    2.983884    0.000000
      4          8           0        0.066750   -2.491281   -0.000000
      5          1           0        0.611937   -3.308763   -0.000000
      6          1           0       -0.883357   -2.741885   -0.000000
 ---------------------------------------------------------------------

 SCF Done:  E(RHF) =  -152.108546402     A.U. after   10 cycles
 E2 =    -0.5258492860D+00 EUMP2 =    -0.15263439568792D+03
 CCSD(T)
 CCSD(T)= -0.15266158381D+03

 The electronic state is 1-A'.
 Alpha  occ. eigenvalues --  -20.56323 -20.54873  -1.33620  -1.32182  -0.71027
 Alpha  occ. eigenvalues --   -0.69577  -0.57115  -0.55652  -0.50739  -0.49305
 Alpha virt. eigenvalues --    0.12900   0.15195   0.19521   0.21418   0.53394
 Alpha virt. eigenvalues --    0.54980   0.56534   0.57877   0.66698   0.69095
 Alpha virt. eigenvalues --    0.78158   0.79038   0.79547   0.80191   0.82820

 Mulliken charges:
               1
     1  O   -0.513750
     2  H    0.261242
     3  H    0.251988
     4  O   -0.514329
     5  H    0.259438
     6  H    0.255412
 Sum of Mulliken charges =  -0.00000

 Dipole moment (field-independent basis, Debye):
    X=             -2.2847    Y=             -3.0593    Z=             -0.0000  Tot=              3.8183
 Quadrupole moment (field-independent basis, Debye-Ang):
   XX=             -9.5614   YY=             -6.9643   ZZ=            -14.7152
   XY=             -4.2184   XZ=             -0.0000   YZ=              0.0000

 CCSD(T)=-152.6615838\RMSD=7.139e-09\PG=CS [SG(H4O2)]\\@
 Normal termination of Gaussian 16 at Sat Aug 27 00:24:49 2022.
