 Gaussian 16, Revision A.03,
 Gaussian 16:  ES64L-G16RevA.03 25-Dec-2016

 ------------------
 #p CCSD(T)/cc-pVTZ
 ------------------

 ------------
 H2O_H2O_3755
 ------------
 Symbolic Z-matrix:
 Charge =  0 Multiplicity = 1

                         Standard orientation:
 ---------------------------------------------------------------------
 Center     Atomic      Atomic             Coordinates (Angstroms)
 Number     Number       Type             X           Y           Z
 ---------------------------------------------------------------------
      1          8           0        0.079848    2.596937    0.000000
      2          1           0        0.079406    1.614336    0.000000
      3          1           0       -0.849502    2.916021    0.000000
      4          8           0        0.079848   -2.437868    0.000000
      5          1           0        0.395277   -3.368465    0.000000
      6          1           0       -0.902747   -2.434448    0.000000
 ---------------------------------------------------------------------

 SCF Done:  E(RHF) =  -152.108312794     A.U. after   10 cycles
 E2 =    -0.5258878993D+00 EUMP2 =    -0.15263420069337D+03
 CCSD(T)
 CCSD(T)= -0.15266139207D+03

 The electronic state is 1-A'.
 Alpha  occ. eigenvalues --  -20.56371 -20.54987  -1.33668  -1.32294  -0.71082
 Alpha  occ. eigenvalues --   -0.69686  -0.57152  -0.55757  -0.50784  -0.49413
 Alpha virt. eigenvalues --    0.12524   0.15222   0.19294   0.21769   0.53244
 Alpha virt. eigenvalues --    0.55047   0.56478   0.57958   0.66760   0.69058
 Alpha virt. eigenvalues --    0.78117   0.78823   0.79445   0.80772   0.82690

 Mulliken charges:
               1
     1  O   -0.512254
     2  H    0.260344
     3  H    0.251315
     4  O   -0.512805
     5  H    0.259572
     6  H    0.253828
 Sum of Mulliken charges =  -0.00000

 Dipole moment (field-independent basis, Debye):
    X=             -2.7311    Y=             -2.8161    Z=              0.0000  Tot=              3.9229
 Quadrupole moment (field-independent basis, Debye-Ang):
   XX=            -10.0970   YY=             -7.7606   ZZ=            -14.7143
   XY=             -3.3176   XZ=              0.0000   YZ=              0.0000

 Normal termination of Gaussian 16 at Fri Aug 26 23:29:40 2022.
