 Gaussian 16, Revision A.03,
 Gaussian 16:  ES64L-G16RevA.03 25-Dec-2016

 ------------------
 #p CCSD(T)/cc-pVTZ
 ------------------

 -----------
 H2O_H2O_927
 -----------
 Symbolic Z-matrix:
 Charge =  0 Multiplicity = 1

                         Standard orientation:
 ---------------------------------------------------------------------
 Center     Atomic      Atomic             Coordinates (Angstroms)
 Number     Number       Type             X           Y           Z
 ---------------------------------------------------------------------
      1          8           0        0.088240   -1.462087    0.000000
      2          1           0        0.087952   -0.479486    0.000000
      3          1           0       -0.841160   -1.781026    0.000000
      4          8           0        0.088240    1.317788    0.000000
      5          1           0        0.216210    2.292020    0.000000
      6          1           0       -0.874839    1.122888    0.000000
 ---------------------------------------------------------------------

 SCF Done:  E(RHF) =  -152.106652838     A.U. after   10 cycles
 E2 =    -0.5298201504D+00 EUMP2 =    -0.15263647298817D+03
 CCSD(T)
 CCSD(T)= -0.15266337265D+03

 The electronic state is 1-A'.
 Alpha  occ. eigenvalues --  -20.58880 -20.52906  -1.36608  -1.30508  -0.74775
 Alpha  occ. eigenvalues --   -0.68121  -0.59657  -0.53613  -0.53484  -0.47562
 Alpha virt. eigenvalues --    0.11455   0.16536   0.20464   0.31168   0.48310
 Alpha virt. eigenvalues --    0.53273   0.58403   0.61061   0.68626   0.71846
 Alpha virt. eigenvalues --    0.74180   0.77919   0.80145   0.82182   0.83236

 Mulliken charges:
               1
     1  O   -0.543601
     2  H    0.286856
     3  H    0.229505
     4  O   -0.442497
     5  H    0.235192
     6  H    0.234546
 Sum of Mulliken charges =  -0.00000

 Dipole moment (field-independent basis, Debye):
    X=             -2.8953    Y=              3.0881    Z=              0.0000  Tot=              4.2331
 Quadrupole moment (field-independent basis, Debye-Ang):
   XX=            -10.6056   YY=             -9.0793   ZZ=            -14.6912
   XY=              2.3774   XZ=              0.0000   YZ=              0.0000

 Normal termination of Gaussian 16 at Fri Aug 26 21:23:17 2022.
