 Gaussian 16, Revision A.03,
 Gaussian 16:  ES64L-G16RevA.03 25-Dec-2016

 ------------------
 #p CCSD(T)/cc-pVTZ
 ------------------

 ------------
 H2O_H2O_2229
 ------------
 Symbolic Z-matrix:
 Charge =  0 Multiplicity = 1

                         Standard orientation:
 ---------------------------------------------------------------------
 Center     Atomic      Atomic             Coordinates (Angstroms)
 Number     Number       Type             X           Y           Z
 ---------------------------------------------------------------------
      1          8           0        0.082809   -1.986171    0.000000
      2          1           0        0.082358   -1.003570    0.000000
      3          1           0       -0.846537   -2.305264    0.000000
      4          8           0        0.082809    1.831666    0.000000
      5          1           0        0.336690    2.780902    0.000000
      6          1           0       -0.897458    1.763978    0.000000
 ---------------------------------------------------------------------

 SCF Done:  E(RHF) =  -152.109870774     A.U. after   10 cycles
 E2 =    -0.5264037895D+00 EUMP2 =    -0.15263627456347D+03
 CCSD(T)
 CCSD(T)= -0.15266339229D+03

 The electronic state is 1-A'.
 Alpha  occ. eigenvalues --  -20.57131 -20.54485  -1.34409  -1.31806  -0.71857
 Alpha  occ. eigenvalues --   -0.69172  -0.57950  -0.55255  -0.51524  -0.48931
 Alpha virt. eigenvalues --    0.11774   0.16229   0.19671   0.24802   0.52704
 Alpha virt. eigenvalues --    0.55764   0.56399   0.57913   0.68675   0.72211
 Alpha virt. eigenvalues --    0.76830   0.79201   0.80030   0.81645   0.83421

 Mulliken charges:
               1
     1  O   -0.517826
     2  H    0.265535
     3  H    0.246245
     4  O   -0.504278
     5  H    0.259249
     6  H    0.251075
 Sum of Mulliken charges =  -0.00000

 Dipole moment (field-independent basis, Debye):
    X=             -2.8024    Y=              2.8581    Z=              0.0000  Tot=              4.0028
 Quadrupole moment (field-independent basis, Debye-Ang):
   XX=            -10.2691   YY=             -8.4135   ZZ=            -14.7189
   XY=              2.8708   XZ=              0.0000   YZ=              0.0000

 Normal termination of Gaussian 16 at Sun Aug 28 05:34:09 2022.
