 Gaussian 16, Revision A.03,
 Gaussian 16:  ES64L-G16RevA.03 25-Dec-2016

 ------------------
 #p CCSD(T)/cc-pVTZ
 ------------------

 ------------
 H2O_H2O_3646
 ------------
 Symbolic Z-matrix:
 Charge =  0 Multiplicity = 1

                         Standard orientation:
 ---------------------------------------------------------------------
 Center     Atomic      Atomic             Coordinates (Angstroms)
 Number     Number       Type             X           Y           Z
 ---------------------------------------------------------------------
      1          8           0       -0.023191    2.553238    0.000000
      2          1           0       -0.020792    1.570639    0.000000
      3          1           0        0.905522    2.874172    0.000000
      4          8           0       -0.023191   -2.382840    0.000000
      5          1           0       -0.986441   -2.576889    0.000000
      6          1           0        0.472760   -3.231098    0.000000
 ---------------------------------------------------------------------

 SCF Done:  E(RHF) =  -152.109083165     A.U. after   10 cycles
 E2 =    -0.5258310851D+00 EUMP2 =    -0.15263491424973D+03
 CCSD(T)
 CCSD(T)= -0.15266208811D+03

 The electronic state is 1-A'.
 Alpha  occ. eigenvalues --  -20.56382 -20.54789  -1.33678  -1.32102  -0.71082
 Alpha  occ. eigenvalues --   -0.69506  -0.57194  -0.55585  -0.50801  -0.49232
 Alpha virt. eigenvalues --    0.12735   0.15425   0.19407   0.21857   0.53317
 Alpha virt. eigenvalues --    0.55211   0.56560   0.57924   0.66836   0.69230
 Alpha virt. eigenvalues --    0.78098   0.78824   0.79611   0.80310   0.82928

 Mulliken charges:
               1
     1  O   -0.516824
     2  H    0.261675
     3  H    0.254248
     4  O   -0.516162
     5  H    0.258469
     6  H    0.258594
 Sum of Mulliken charges =  -0.00000

 Dipole moment (field-independent basis, Debye):
    X=              0.7947    Y=             -3.0224    Z=              0.0000  Tot=              3.1252
 Quadrupole moment (field-independent basis, Debye-Ang):
   XX=             -9.3613   YY=             -7.2222   ZZ=            -14.7171
   XY=              6.3028   XZ=              0.0000   YZ=              0.0000

 Normal termination of Gaussian 16 at Fri Aug 26 22:52:04 2022.
