 Gaussian 16, Revision A.03,
 Gaussian 16:  ES64L-G16RevA.03 25-Dec-2016

 ------------------
 #p CCSD(T)/cc-pVTZ
 ------------------

 ------------
 H2O_H2O_2925
 ------------
 Symbolic Z-matrix:
 Charge =  0 Multiplicity = 1

                         Standard orientation:
 ---------------------------------------------------------------------
 Center     Atomic      Atomic             Coordinates (Angstroms)
 Number     Number       Type             X           Y           Z
 ---------------------------------------------------------------------
      1          8           0        0.092949   -2.253588    0.000000
      2          1           0        0.092949   -1.270986    0.000000
      3          1           0       -0.836544   -2.572254    0.000000
      4          8           0        0.092949    2.120801    0.000000
      5          1           0        0.092949    3.103402    0.000000
      6          1           0       -0.836544    1.802134    0.000000
 ---------------------------------------------------------------------

 SCF Done:  E(RHF) =  -152.108094941     A.U. after   10 cycles
 E2 =    -0.5261098076D+00 EUMP2 =    -0.15263420474894D+03
 CCSD(T)
 CCSD(T)= -0.15266138716D+03

 The electronic state is 1-A'.
 Alpha  occ. eigenvalues --  -20.56687 -20.55143  -1.33981  -1.32443  -0.71421
 Alpha  occ. eigenvalues --   -0.69819  -0.57448  -0.55892  -0.51088  -0.49556
 Alpha virt. eigenvalues --    0.11476   0.15598   0.19445   0.23447   0.54328
 Alpha virt. eigenvalues --    0.54709   0.56461   0.58069   0.68185   0.68965
 Alpha virt. eigenvalues --    0.77782   0.78430   0.79333   0.80937   0.82700

 Mulliken charges:
               1
     1  O   -0.510680
     2  H    0.260312
     3  H    0.248986
     4  O   -0.507533
     5  H    0.259709
     6  H    0.249207
 Sum of Mulliken charges =   0.00000

 Dipole moment (field-independent basis, Debye):
    X=             -3.1631    Y=              2.3865    Z=              0.0000  Tot=              3.9623
 Quadrupole moment (field-independent basis, Debye-Ang):
   XX=            -10.8599   YY=             -9.2119   ZZ=            -14.7127
   XY=              2.1484   XZ=              0.0000   YZ=              0.0000

 CCSD(T)=-152.6613872\RMSD=7.236e-09\PG=CS [SG(H4O2)]\\@
 Normal termination of Gaussian 16 at Fri Aug 26 18:24:30 2022.
