 Gaussian 16, Revision A.03,
 Gaussian 16:  ES64L-G16RevA.03 25-Dec-2016

 ------------------
 #p CCSD(T)/cc-pVTZ
 ------------------

 ------------
 H2O_H2O_3432
 ------------
 Symbolic Z-matrix:
 Charge =  0 Multiplicity = 1

                         Standard orientation:
 ---------------------------------------------------------------------
 Center     Atomic      Atomic             Coordinates (Angstroms)
 Number     Number       Type             X           Y           Z
 ---------------------------------------------------------------------
      1          8           0        0.073533    2.471582   -0.000000
      2          1           0        0.072843    1.488981   -0.000000
      3          1           0       -0.855736    2.790901   -0.000000
      4          8           0        0.073533   -2.304635    0.000000
      5          1           0        0.507508   -3.186208    0.000000
      6          1           0       -0.901135   -2.429251    0.000000
 ---------------------------------------------------------------------

 SCF Done:  E(RHF) =  -152.108757806     A.U. after   10 cycles
 E2 =    -0.5259114868D+00 EUMP2 =    -0.15263466929320D+03
 CCSD(T)
 CCSD(T)= -0.15266184447D+03

 The electronic state is 1-A'.
 Alpha  occ. eigenvalues --  -20.56474 -20.54805  -1.33766  -1.32116  -0.71177
 Alpha  occ. eigenvalues --   -0.69506  -0.57265  -0.55586  -0.50885  -0.49239
 Alpha virt. eigenvalues --    0.12447   0.15477   0.19414   0.21973   0.53407
 Alpha virt. eigenvalues --    0.55095   0.56419   0.58130   0.67077   0.69253
 Alpha virt. eigenvalues --    0.78021   0.78700   0.79609   0.80355   0.82874

 Mulliken charges:
               1
     1  O   -0.513986
     2  H    0.261797
     3  H    0.250935
     4  O   -0.513239
     5  H    0.259926
     6  H    0.254567
 Sum of Mulliken charges =  -0.00000

 Dipole moment (field-independent basis, Debye):
    X=             -2.5117    Y=             -2.9735    Z=              0.0000  Tot=              3.8923
 Quadrupole moment (field-independent basis, Debye-Ang):
   XX=             -9.8134   YY=             -7.4973   ZZ=            -14.7159
   XY=             -3.6637   XZ=              0.0000   YZ=             -0.0000

 CCSD(T)=-152.6618445\RMSD=7.099e-09\PG=CS [SG(H4O2)]\\@
 Normal termination of Gaussian 16 at Fri Aug 26 21:40:01 2022.
