 Gaussian 16, Revision A.03,
 Gaussian 16:  ES64L-G16RevA.03 25-Dec-2016

 ------------------
 #p CCSD(T)/cc-pVTZ
 ------------------

 ------------
 H2O_H2O_4309
 ------------
 Symbolic Z-matrix:
 Charge =  0 Multiplicity = 1

                         Standard orientation:
 ---------------------------------------------------------------------
 Center     Atomic      Atomic             Coordinates (Angstroms)
 Number     Number       Type             X           Y           Z
 ---------------------------------------------------------------------
      1          8           0        0.066745    2.823956   -0.000000
      2          1           0        0.065933    1.841355   -0.000000
      3          1           0       -0.862484    3.143391   -0.000000
      4          8           0        0.066745   -2.650829    0.000000
      5          1           0        0.611974   -3.468283    0.000000
      6          1           0       -0.883350   -2.901480    0.000000
 ---------------------------------------------------------------------

 SCF Done:  E(RHF) =  -152.108312416     A.U. after   10 cycles
 E2 =    -0.5258309621D+00 EUMP2 =    -0.15263414337801D+03
 CCSD(T)
 CCSD(T)= -0.15266134112D+03

 The electronic state is 1-A'.
 Alpha  occ. eigenvalues --  -20.56229 -20.54971  -1.33529  -1.32278  -0.70937
 Alpha  occ. eigenvalues --   -0.69675  -0.57017  -0.55744  -0.50647  -0.49398
 Alpha virt. eigenvalues --    0.13171   0.14970   0.19571   0.21159   0.53498
 Alpha virt. eigenvalues --    0.54899   0.56606   0.57799   0.66763   0.68836
 Alpha virt. eigenvalues --    0.78243   0.79373   0.79459   0.80343   0.82687

 Mulliken charges:
               1
     1  O   -0.513008
     2  H    0.260373
     3  H    0.252437
     4  O   -0.513920
     5  H    0.258827
     6  H    0.255291
 Sum of Mulliken charges =   0.00000

 Dipole moment (field-independent basis, Debye):
    X=             -2.2876    Y=             -3.0446    Z=              0.0000  Tot=              3.8082
 Quadrupole moment (field-independent basis, Debye-Ang):
   XX=             -9.5604   YY=             -6.7474   ZZ=            -14.7144
   XY=             -4.3640   XZ=              0.0000   YZ=             -0.0000

 650806\MP4DQ=-152.64326\MP4SDQ=-152.646309\CCSD=-152.6457234\CCSD(T)=-
 Normal termination of Gaussian 16 at Sun Aug 28 01:46:18 2022.
