 Gaussian 16, Revision A.03,
 Gaussian 16:  ES64L-G16RevA.03 25-Dec-2016

 ------------------
 #p CCSD(T)/cc-pVTZ
 ------------------

 -----------
 H2O_H2O_462
 -----------
 Symbolic Z-matrix:
 Charge =  0 Multiplicity = 1

                         Standard orientation:
 ---------------------------------------------------------------------
 Center     Atomic      Atomic             Coordinates (Angstroms)
 Number     Number       Type             X           Y           Z
 ---------------------------------------------------------------------
      1          8           0        0.056101    1.291353   -0.000000
      2          1           0        0.053491    0.308755   -0.000000
      3          1           0       -0.872542    1.612487   -0.000000
      4          8           0        0.056101   -1.112585    0.000000
      5          1           0        0.749058   -1.809232    0.000000
      6          1           0       -0.827625   -1.542158    0.000000
 ---------------------------------------------------------------------

 SCF Done:  E(RHF) =  -152.097203842     A.U. after   11 cycles
 E2 =    -0.5321814973D+00 EUMP2 =    -0.15262938533918D+03
 CCSD(T)
 CCSD(T)= -0.15265568997D+03

 The electronic state is 1-A'.
 Alpha  occ. eigenvalues --  -20.60389 -20.48517  -1.39035  -1.27104  -0.75661
 Alpha  occ. eigenvalues --   -0.71694  -0.58159  -0.55573  -0.49086  -0.44012
 Alpha virt. eigenvalues --    0.11143   0.17258   0.20088   0.33411   0.47650
 Alpha virt. eigenvalues --    0.53408   0.61730   0.62744   0.71168   0.72200
 Alpha virt. eigenvalues --    0.74531   0.78915   0.80717   0.82750   0.84036

 Mulliken charges:
               1
     1  O   -0.615016
     2  H    0.312200
     3  H    0.221631
     4  O   -0.421835
     5  H    0.254690
     6  H    0.248330
 Sum of Mulliken charges =  -0.00000

 Dipole moment (field-independent basis, Debye):
    X=             -1.7813    Y=             -4.3300    Z=              0.0000  Tot=              4.6821
 Quadrupole moment (field-independent basis, Debye-Ang):
   XX=             -9.2730   YY=             -9.4866   ZZ=            -14.6637
   XY=             -2.9636   XZ=              0.0000   YZ=             -0.0000

 Normal termination of Gaussian 16 at Fri Aug 26 18:25:55 2022.
