 Gaussian 16, Revision A.03,
 Gaussian 16:  ES64L-G16RevA.03 25-Dec-2016

 ------------------
 #p CCSD(T)/cc-pVTZ
 ------------------

 ------------
 H2O_H2O_1843
 ------------
 Symbolic Z-matrix:
 Charge =  0 Multiplicity = 1

                         Standard orientation:
 ---------------------------------------------------------------------
 Center     Atomic      Atomic             Coordinates (Angstroms)
 Number     Number       Type             X           Y           Z
 ---------------------------------------------------------------------
      1          8           0        0.033849    1.839108    0.000000
      2          1           0        0.030980    0.856511    0.000000
      3          1           0       -0.894710    2.160486    0.000000
      4          8           0        0.033849   -1.661629    0.000000
      5          1           0        0.940553   -2.040303    0.000000
      6          1           0       -0.618410   -2.396520    0.000000
 ---------------------------------------------------------------------

 SCF Done:  E(RHF) =  -152.112940621     A.U. after   10 cycles
 E2 =    -0.5265603305D+00 EUMP2 =    -0.15263950095160D+03
 CCSD(T)
 CCSD(T)= -0.15266654637D+03

 The electronic state is 1-A'.
 Alpha  occ. eigenvalues --  -20.57509 -20.53501  -1.34767  -1.30881  -0.72147
 Alpha  occ. eigenvalues --   -0.68351  -0.58513  -0.54318  -0.51907  -0.48038
 Alpha virt. eigenvalues --    0.12214   0.17238   0.19085   0.27085   0.51507
 Alpha virt. eigenvalues --    0.54576   0.56269   0.59181   0.69073   0.72570
 Alpha virt. eigenvalues --    0.75676   0.77410   0.80933   0.83332   0.84517

 Mulliken charges:
               1
     1  O   -0.534111
     2  H    0.270736
     3  H    0.250249
     4  O   -0.508395
     5  H    0.262866
     6  H    0.258656
 Sum of Mulliken charges =   0.00000

 Dipole moment (field-independent basis, Debye):
    X=             -1.1440    Y=             -3.3768    Z=             -0.0000  Tot=              3.5653
 Quadrupole moment (field-independent basis, Debye-Ang):
   XX=             -9.1878   YY=             -8.0369   ZZ=            -14.7316
   XY=             -4.2750   XZ=             -0.0000   YZ=             -0.0000

 Normal termination of Gaussian 16 at Sun Aug 28 02:08:07 2022.
