 Gaussian 16, Revision A.03,
 Gaussian 16:  ES64L-G16RevA.03 25-Dec-2016

 ------------------
 #p CCSD(T)/cc-pVTZ
 ------------------

 ------------
 H2O_H2O_3332
 ------------
 Symbolic Z-matrix:
 Charge =  0 Multiplicity = 1

                         Standard orientation:
 ---------------------------------------------------------------------
 Center     Atomic      Atomic             Coordinates (Angstroms)
 Number     Number       Type             X           Y           Z
 ---------------------------------------------------------------------
      1          8           0        0.073534    2.431693    0.000000
      2          1           0        0.072832    1.449092    0.000000
      3          1           0       -0.855732    2.751023    0.000000
      4          8           0        0.073534   -2.264748   -0.000000
      5          1           0        0.507498   -3.146326   -0.000000
      6          1           0       -0.901135   -2.389353   -0.000000
 ---------------------------------------------------------------------

 SCF Done:  E(RHF) =  -152.108853264     A.U. after   10 cycles
 E2 =    -0.5259270672D+00 EUMP2 =    -0.15263478033129D+03
 CCSD(T)
 CCSD(T)= -0.15266195125D+03

 The electronic state is 1-A'.
 Alpha  occ. eigenvalues --  -20.56511 -20.54772  -1.33802  -1.32084  -0.71213
 Alpha  occ. eigenvalues --   -0.69473  -0.57303  -0.55554  -0.50921  -0.49208
 Alpha virt. eigenvalues --    0.12384   0.15549   0.19417   0.22107   0.53465
 Alpha virt. eigenvalues --    0.55112   0.56396   0.58205   0.67250   0.69275
 Alpha virt. eigenvalues --    0.77985   0.78695   0.79639   0.80323   0.82902

 Mulliken charges:
               1
     1  O   -0.514292
     2  H    0.262072
     3  H    0.250723
     4  O   -0.512998
     5  H    0.259980
     6  H    0.254516
 Sum of Mulliken charges =  -0.00000

 Dipole moment (field-independent basis, Debye):
    X=             -2.5104    Y=             -2.9797    Z=             -0.0000  Tot=              3.8963
 Quadrupole moment (field-independent basis, Debye-Ang):
   XX=             -9.8140   YY=             -7.5419   ZZ=            -14.7163
   XY=             -3.6365   XZ=             -0.0000   YZ=              0.0000

 Normal termination of Gaussian 16 at Fri Aug 26 21:06:57 2022.
