 Gaussian 16, Revision A.03,
 Gaussian 16:  ES64L-G16RevA.03 25-Dec-2016

 ------------------
 #p CCSD(T)/cc-pVTZ
 ------------------

 ------------
 H2O_H2O_1606
 ------------
 Symbolic Z-matrix:
 Charge =  0 Multiplicity = 1

                         Standard orientation:
 ---------------------------------------------------------------------
 Center     Atomic      Atomic             Coordinates (Angstroms)
 Number     Number       Type             X           Y           Z
 ---------------------------------------------------------------------
      1          8           0        0.076777    1.741583   -0.000000
      2          1           0        0.075949    0.758982   -0.000000
      3          1           0       -0.852448    2.061032   -0.000000
      4          8           0        0.076777   -1.578409    0.000000
      5          1           0        0.452036   -2.486531    0.000000
      6          1           0       -0.903963   -1.638875    0.000000
 ---------------------------------------------------------------------

 SCF Done:  E(RHF) =  -152.111701468     A.U. after   10 cycles
 E2 =    -0.5271150366D+00 EUMP2 =    -0.15263881650423D+03
 CCSD(T)
 CCSD(T)= -0.15266586183D+03

 The electronic state is 1-A'.
 Alpha  occ. eigenvalues --  -20.57777 -20.53677  -1.35077  -1.31061  -0.72546
 Alpha  occ. eigenvalues --   -0.68505  -0.58737  -0.54438  -0.52183  -0.48189
 Alpha virt. eigenvalues --    0.11805   0.16775   0.19602   0.27797   0.50026
 Alpha virt. eigenvalues --    0.55261   0.56959   0.58382   0.69382   0.73964
 Alpha virt. eigenvalues --    0.74663   0.77322   0.80955   0.82865   0.83930

 Mulliken charges:
               1
     1  O   -0.529021
     2  H    0.273541
     3  H    0.242205
     4  O   -0.496691
     5  H    0.257578
     6  H    0.252389
 Sum of Mulliken charges =  -0.00000

 Dipole moment (field-independent basis, Debye):
    X=             -2.5748    Y=             -3.1571    Z=              0.0000  Tot=              4.0740
 Quadrupole moment (field-independent basis, Debye-Ang):
   XX=             -9.9813   YY=             -8.4400   ZZ=            -14.7253
   XY=             -3.0415   XZ=              0.0000   YZ=             -0.0000

 Normal termination of Gaussian 16 at Sat Aug 27 23:51:17 2022.
