 Gaussian 16, Revision A.03,
 Gaussian 16:  ES64L-G16RevA.03 25-Dec-2016

 ------------------
 #p CCSD(T)/cc-pVTZ
 ------------------

 ------------
 H2O_H2O_4960
 ------------
 Symbolic Z-matrix:
 Charge =  0 Multiplicity = 1

                         Standard orientation:
 ---------------------------------------------------------------------
 Center     Atomic      Atomic             Coordinates (Angstroms)
 Number     Number       Type             X           Y           Z
 ---------------------------------------------------------------------
      1          8           0        0.063212    3.084538   -0.000000
      2          1           0        0.062370    2.101937   -0.000000
      3          1           0       -0.866008    3.404001   -0.000000
      4          8           0        0.063212   -2.908996    0.000000
      5          1           0        0.660714   -3.689057    0.000000
      6          1           0       -0.868464   -3.221221    0.000000
 ---------------------------------------------------------------------

 SCF Done:  E(RHF) =  -152.108105318     A.U. after   10 cycles
 E2 =    -0.5258201892D+00 EUMP2 =    -0.15263392550758D+03
 CCSD(T)
 CCSD(T)= -0.15266113093D+03

 The electronic state is 1-A'.
 Alpha  occ. eigenvalues --  -20.56118 -20.55075  -1.33420  -1.32380  -0.70827
 Alpha  occ. eigenvalues --   -0.69780  -0.56900  -0.55844  -0.50537  -0.49499
 Alpha virt. eigenvalues --    0.13507   0.14720   0.19694   0.20875   0.53696
 Alpha virt. eigenvalues --    0.54783   0.56704   0.57727   0.67085   0.68471
 Alpha virt. eigenvalues --    0.78347   0.79364   0.79728   0.80592   0.82122

 Mulliken charges:
               1
     1  O   -0.512323
     2  H    0.259233
     3  H    0.253058
     4  O   -0.513058
     5  H    0.257826
     6  H    0.255264
 Sum of Mulliken charges =  -0.00000

 Dipole moment (field-independent basis, Debye):
    X=             -2.1700    Y=             -3.0711    Z=              0.0000  Tot=              3.7604
 Quadrupole moment (field-independent basis, Debye-Ang):
   XX=             -9.4533   YY=             -6.2307   ZZ=            -14.7138
   XY=             -4.8567   XZ=              0.0000   YZ=             -0.0000

 Normal termination of Gaussian 16 at Sun Aug 28 07:15:00 2022.
