 Gaussian 16, Revision A.03,
 Gaussian 16:  ES64L-G16RevA.03 25-Dec-2016

 ------------------
 #p CCSD(T)/cc-pVTZ
 ------------------

 ------------
 H2O_H2O_3677
 ------------
 Symbolic Z-matrix:
 Charge =  0 Multiplicity = 1

                         Standard orientation:
 ---------------------------------------------------------------------
 Center     Atomic      Atomic             Coordinates (Angstroms)
 Number     Number       Type             X           Y           Z
 ---------------------------------------------------------------------
      1          8           0        0.088231   -2.559011    0.000000
      2          1           0        0.088069   -1.576410    0.000000
      3          1           0       -0.841210   -2.877830    0.000000
      4          8           0        0.088231    2.414689    0.000000
      5          1           0        0.216326    3.388905    0.000000
      6          1           0       -0.874874    2.219913    0.000000
 ---------------------------------------------------------------------

 SCF Done:  E(RHF) =  -152.108021963     A.U. after   10 cycles
 E2 =    -0.5259215919D+00 EUMP2 =    -0.15263394355510D+03
 CCSD(T)
 CCSD(T)= -0.15266114125D+03

 The electronic state is 1-A'.
 Alpha  occ. eigenvalues --  -20.56399 -20.55135  -1.33697  -1.32439  -0.71116
 Alpha  occ. eigenvalues --   -0.69829  -0.57168  -0.55895  -0.50809  -0.49554
 Alpha virt. eigenvalues --    0.12152   0.15212   0.19083   0.22222   0.53252
 Alpha virt. eigenvalues --    0.54996   0.56466   0.57964   0.66828   0.68936
 Alpha virt. eigenvalues --    0.78094   0.78806   0.79312   0.81240   0.82517

 Mulliken charges:
               1
     1  O   -0.510725
     2  H    0.259200
     3  H    0.250992
     4  O   -0.511272
     5  H    0.259495
     6  H    0.252309
 Sum of Mulliken charges =  -0.00000

 Dipole moment (field-independent basis, Debye):
    X=             -3.0165    Y=              2.5564    Z=              0.0000  Tot=              3.9541
 Quadrupole moment (field-independent basis, Debye-Ang):
   XX=            -10.5544   YY=             -8.5841   ZZ=            -14.7131
   XY=              2.6235   XZ=              0.0000   YZ=              0.0000

 Normal termination of Gaussian 16 at Fri Aug 26 23:03:39 2022.
