 Gaussian 16, Revision A.03,
 Gaussian 16:  ES64L-G16RevA.03 25-Dec-2016

 ------------------
 #p CCSD(T)/cc-pVTZ
 ------------------

 ------------
 H2O_H2O_2119
 ------------
 Symbolic Z-matrix:
 Charge =  0 Multiplicity = 1

                         Standard orientation:
 ---------------------------------------------------------------------
 Center     Atomic      Atomic             Coordinates (Angstroms)
 Number     Number       Type             X           Y           Z
 ---------------------------------------------------------------------
      1          8           0        0.030234    1.947766    0.000000
      2          1           0        0.027370    0.965169    0.000000
      3          1           0       -0.898326    2.269140    0.000000
      4          8           0        0.030234   -1.772190   -0.000000
      5          1           0        0.959765   -2.090747   -0.000000
      6          1           0       -0.572560   -2.548169   -0.000000
 ---------------------------------------------------------------------

 SCF Done:  E(RHF) =  -152.112030671     A.U. after   10 cycles
 E2 =    -0.5262945482D+00 EUMP2 =    -0.15263832521888D+03
 CCSD(T)
 CCSD(T)= -0.15266539979D+03

 The electronic state is 1-A'.
 Alpha  occ. eigenvalues --  -20.57229 -20.53852  -1.34487  -1.31204  -0.71880
 Alpha  occ. eigenvalues --   -0.68628  -0.58157  -0.54676  -0.51626  -0.48357
 Alpha virt. eigenvalues --    0.12267   0.16886   0.19188   0.25739   0.52418
 Alpha virt. eigenvalues --    0.54991   0.56358   0.58818   0.69031   0.72237
 Alpha virt. eigenvalues --    0.76577   0.78156   0.80551   0.83519   0.83925

 Mulliken charges:
               1
     1  O   -0.529278
     2  H    0.268005
     3  H    0.251659
     4  O   -0.509783
     5  H    0.261395
     6  H    0.258003
 Sum of Mulliken charges =  -0.00000

 Dipole moment (field-independent basis, Debye):
    X=             -1.0261    Y=             -3.2796    Z=             -0.0000  Tot=              3.4364
 Quadrupole moment (field-independent basis, Debye-Ang):
   XX=             -9.2305   YY=             -7.8864   ZZ=            -14.7275
   XY=             -4.6084   XZ=             -0.0000   YZ=              0.0000

 Normal termination of Gaussian 16 at Sun Aug 28 04:31:39 2022.
