 Gaussian 16, Revision A.03,
 Gaussian 16:  ES64L-G16RevA.03 25-Dec-2016

 ------------------
 #p CCSD(T)/cc-pVTZ
 ------------------

 -----------
 H2O_H2O_399
 -----------
 Symbolic Z-matrix:
 Charge =  0 Multiplicity = 1

                         Standard orientation:
 ---------------------------------------------------------------------
 Center     Atomic      Atomic             Coordinates (Angstroms)
 Number     Number       Type             X           Y           Z
 ---------------------------------------------------------------------
      1          8           0        0.013744   -1.250813    0.000000
      2          1           0        0.007990   -0.268228    0.000000
      3          1           0       -0.913867   -1.574917    0.000000
      4          8           0        0.013744    1.091628    0.000000
      5          1           0        0.996330    1.097382    0.000000
      6          1           0       -0.310360    2.019239    0.000000
 ---------------------------------------------------------------------

 SCF Done:  E(RHF) =  -152.088276379     A.U. after   11 cycles
 E2 =    -0.5330826272D+00 EUMP2 =    -0.15262135900623D+03
 CCSD(T)
 CCSD(T)= -0.15264756166D+03

 The electronic state is 1-A'.
 Alpha  occ. eigenvalues --  -20.60409 -20.48582  -1.39666  -1.27251  -0.78065
 Alpha  occ. eigenvalues --   -0.69647  -0.58965  -0.55826  -0.48976  -0.44192
 Alpha virt. eigenvalues --    0.11395   0.17852   0.19850   0.34168   0.47812
 Alpha virt. eigenvalues --    0.52692   0.58806   0.68404   0.71971   0.72208
 Alpha virt. eigenvalues --    0.75098   0.76842   0.77894   0.83851   0.84839

 Mulliken charges:
               1
     1  O   -0.629647
     2  H    0.290437
     3  H    0.239802
     4  O   -0.389475
     5  H    0.258733
     6  H    0.230150
 Sum of Mulliken charges =  -0.00000

 Dipole moment (field-independent basis, Debye):
    X=             -0.4448    Y=              4.0086    Z=              0.0000  Tot=              4.0332
 Quadrupole moment (field-independent basis, Debye-Ang):
   XX=             -9.5707   YY=             -9.5323   ZZ=            -14.6358
   XY=              3.2986   XZ=              0.0000   YZ=              0.0000

 Normal termination of Gaussian 16 at Fri Aug 26 17:57:38 2022.
