 Gaussian 16, Revision A.03,
 Gaussian 16:  ES64L-G16RevA.03 25-Dec-2016

 ------------------
 #p CCSD(T)/cc-pVTZ
 ------------------

 ----------
 H2O_H2O_34
 ----------
 Symbolic Z-matrix:
 Charge =  0 Multiplicity = 1

                         Standard orientation:
 ---------------------------------------------------------------------
 Center     Atomic      Atomic             Coordinates (Angstroms)
 Number     Number       Type             X           Y           Z
 ---------------------------------------------------------------------
      1          8           0        0.066863    1.118666    0.000000
      2          1           0        0.064710    0.136067    0.000000
      3          1           0       -0.861929    1.439369    0.000000
      4          8           0        0.066863   -0.945721   -0.000000
      5          1           0        0.610976   -1.763919   -0.000000
      6          1           0       -0.883572   -1.195076   -0.000000
 ---------------------------------------------------------------------

 SCF Done:  E(RHF) =  -152.031571776     A.U. after   11 cycles
 E2 =    -0.5369985983D+00 EUMP2 =    -0.15256857037391D+03
 CCSD(T)
 CCSD(T)= -0.15259405136D+03

 The electronic state is 1-A'.
 Alpha  occ. eigenvalues --  -20.62163 -20.44352  -1.44421  -1.24650  -0.81628
 Alpha  occ. eigenvalues --   -0.76127  -0.58882  -0.54419  -0.44600  -0.41134
 Alpha virt. eigenvalues --    0.10267   0.15954   0.21531   0.32138   0.48653
 Alpha virt. eigenvalues --    0.51563   0.60884   0.64155   0.70382   0.71466
 Alpha virt. eigenvalues --    0.77862   0.79405   0.81837   0.83836   0.88653

 Mulliken charges:
               1
     1  O   -0.659873
     2  H    0.276038
     3  H    0.192165
     4  O   -0.286719
     5  H    0.235299
     6  H    0.243090
 Sum of Mulliken charges =   0.00000

 Dipole moment (field-independent basis, Debye):
    X=             -2.0144    Y=             -4.9540    Z=             -0.0000  Tot=              5.3479
 Quadrupole moment (field-independent basis, Debye-Ang):
   XX=             -9.5186   YY=            -10.2062   ZZ=            -14.5321
   XY=             -2.5893   XZ=             -0.0000   YZ=             -0.0000

 Normal termination of Gaussian 16 at Fri Aug 26 15:25:07 2022.
