 Gaussian 16, Revision A.03,
 Gaussian 16:  ES64L-G16RevA.03 25-Dec-2016

 ------------------
 #p CCSD(T)/cc-pVTZ
 ------------------

 ------------
 H2O_H2O_1018
 ------------
 Symbolic Z-matrix:
 Charge =  0 Multiplicity = 1

                         Standard orientation:
 ---------------------------------------------------------------------
 Center     Atomic      Atomic             Coordinates (Angstroms)
 Number     Number       Type             X           Y           Z
 ---------------------------------------------------------------------
      1          8           0        0.033909    1.510013   -0.000000
      2          1           0        0.030376    0.527418   -0.000000
      3          1           0       -0.894432    1.832019    0.000000
      4          8           0        0.033909   -1.332581   -0.000000
      5          1           0        0.940357   -1.711867   -0.000000
      6          1           0       -0.618848   -2.067030    0.000000
 ---------------------------------------------------------------------

 SCF Done:  E(RHF) =  -152.113447237     A.U. after   10 cycles
 E2 =    -0.5285349911D+00 EUMP2 =    -0.15264198222840D+03
 CCSD(T)
 CCSD(T)= -0.15266882700D+03

 The electronic state is 1-A'.
 Alpha  occ. eigenvalues --  -20.58785 -20.51618  -1.36292  -1.29312  -0.73552
 Alpha  occ. eigenvalues --   -0.68037  -0.59775  -0.53345  -0.52315  -0.46429
 Alpha virt. eigenvalues --    0.11897   0.18428   0.18647   0.31952   0.48668
 Alpha virt. eigenvalues --    0.54674   0.56353   0.62282   0.68482   0.72219
 Alpha virt. eigenvalues --    0.72757   0.77424   0.82170   0.82714   0.84665

 Mulliken charges:
               1
     1  O   -0.570211
     2  H    0.295642
     3  H    0.243887
     4  O   -0.489699
     5  H    0.265710
     6  H    0.254671
 Sum of Mulliken charges =  -0.00000

 Dipole moment (field-independent basis, Debye):
    X=             -1.1231    Y=             -3.7341    Z=              0.0000  Tot=              3.8993
 Quadrupole moment (field-independent basis, Debye-Ang):
   XX=             -9.1779   YY=             -8.7598   ZZ=            -14.7257
   XY=             -3.5783   XZ=              0.0000   YZ=              0.0000

 Normal termination of Gaussian 16 at Fri Aug 26 21:56:14 2022.
