 Gaussian 16, Revision A.03,
 Gaussian 16:  ES64L-G16RevA.03 25-Dec-2016

 ------------------
 #p CCSD(T)/cc-pVTZ
 ------------------

 -----------
 H2O_H2O_904
 -----------
 Symbolic Z-matrix:
 Charge =  0 Multiplicity = 1

                         Standard orientation:
 ---------------------------------------------------------------------
 Center     Atomic      Atomic             Coordinates (Angstroms)
 Number     Number       Type             X           Y           Z
 ---------------------------------------------------------------------
      1          8           0        0.082823   -1.457644    0.000000
      2          1           0        0.082199   -0.475043    0.000000
      3          1           0       -0.846468   -1.776901    0.000000
      4          8           0        0.082823    1.303167    0.000000
      5          1           0        0.336537    2.252450    0.000000
      6          1           0       -0.897433    1.235308    0.000000
 ---------------------------------------------------------------------

 SCF Done:  E(RHF) =  -152.108085100     A.U. after   10 cycles
 E2 =    -0.5297274560D+00 EUMP2 =    -0.15263781255578D+03
 CCSD(T)
 CCSD(T)= -0.15266466508D+03

 The electronic state is 1-A'.
 Alpha  occ. eigenvalues --  -20.58968 -20.52390  -1.36678  -1.30049  -0.74575
 Alpha  occ. eigenvalues --   -0.68168  -0.59686  -0.53585  -0.53087  -0.47109
 Alpha virt. eigenvalues --    0.11481   0.16716   0.20172   0.31565   0.48276
 Alpha virt. eigenvalues --    0.53748   0.58588   0.60821   0.69174   0.72128
 Alpha virt. eigenvalues --    0.74391   0.77536   0.80534   0.82490   0.83605

 Mulliken charges:
               1
     1  O   -0.551941
     2  H    0.290643
     3  H    0.229942
     4  O   -0.444591
     5  H    0.236509
     6  H    0.239438
 Sum of Mulliken charges =  -0.00000

 Dipole moment (field-independent basis, Debye):
    X=             -2.7138    Y=              3.3174    Z=              0.0000  Tot=              4.2860
 Quadrupole moment (field-independent basis, Debye-Ang):
   XX=            -10.2936   YY=             -8.9803   ZZ=            -14.6966
   XY=              2.6337   XZ=              0.0000   YZ=              0.0000

 Normal termination of Gaussian 16 at Fri Aug 26 21:14:57 2022.
