 Gaussian 16, Revision A.03,
 Gaussian 16:  ES64L-G16RevA.03 25-Dec-2016

 ------------------
 #p CCSD(T)/cc-pVTZ
 ------------------

 ------------
 H2O_H2O_1808
 ------------
 Symbolic Z-matrix:
 Charge =  0 Multiplicity = 1

                         Standard orientation:
 ---------------------------------------------------------------------
 Center     Atomic      Atomic             Coordinates (Angstroms)
 Number     Number       Type             X           Y           Z
 ---------------------------------------------------------------------
      1          8           0        0.070221    1.825180   -0.000000
      2          1           0        0.069111    0.842579   -0.000000
      3          1           0       -0.858912    2.144896    0.000000
      4          8           0        0.070221   -1.654972   -0.000000
      5          1           0        0.560560   -2.506484   -0.000000
      6          1           0       -0.894290   -1.842656    0.000000
 ---------------------------------------------------------------------

 SCF Done:  E(RHF) =  -152.111886262     A.U. after   10 cycles
 E2 =    -0.5267389441D+00 EUMP2 =    -0.15263862520583D+03
 CCSD(T)
 CCSD(T)= -0.15266568394D+03

 The electronic state is 1-A'.
 Alpha  occ. eigenvalues --  -20.57551 -20.53736  -1.34821  -1.31101  -0.72238
 Alpha  occ. eigenvalues --   -0.68529  -0.58492  -0.54520  -0.51944  -0.48240
 Alpha virt. eigenvalues --    0.11951   0.16828   0.19395   0.26893   0.50755
 Alpha virt. eigenvalues --    0.55406   0.56353   0.58549   0.69210   0.73015
 Alpha virt. eigenvalues --    0.75532   0.77686   0.80787   0.83198   0.83961

 Mulliken charges:
               1
     1  O   -0.527284
     2  H    0.270550
     3  H    0.244685
     4  O   -0.503347
     5  H    0.261072
     6  H    0.254324
 Sum of Mulliken charges =  -0.00000

 Dipole moment (field-independent basis, Debye):
    X=             -2.3651    Y=             -3.2408    Z=              0.0000  Tot=              4.0120
 Quadrupole moment (field-independent basis, Debye-Ang):
   XX=             -9.7014   YY=             -8.1942   ZZ=            -14.7272
   XY=             -3.3390   XZ=              0.0000   YZ=              0.0000

 Normal termination of Gaussian 16 at Sun Aug 28 01:50:04 2022.
