 Gaussian 16, Revision A.03,
 Gaussian 16:  ES64L-G16RevA.03 25-Dec-2016

 ------------------
 #p CCSD(T)/cc-pVTZ
 ------------------

 ----------
 H2O_H2O_69
 ----------
 Symbolic Z-matrix:
 Charge =  0 Multiplicity = 1

                         Standard orientation:
 ---------------------------------------------------------------------
 Center     Atomic      Atomic             Coordinates (Angstroms)
 Number     Number       Type             X           Y           Z
 ---------------------------------------------------------------------
      1          8           0        0.030435    1.130004   -0.000000
      2          1           0        0.025324    0.147416   -0.000000
      3          1           0       -0.897388    1.453500   -0.000000
      4          8           0        0.030435   -0.954567    0.000000
      5          1           0        0.959235   -1.275249    0.000000
      6          1           0       -0.574133   -1.729166    0.000000
 ---------------------------------------------------------------------

 SCF Done:  E(RHF) =  -152.040199160     A.U. after   11 cycles
 E2 =    -0.5357922077D+00 EUMP2 =    -0.15257599136814D+03
 CCSD(T)
 CCSD(T)= -0.15260152889D+03

 The electronic state is 1-A'.
 Alpha  occ. eigenvalues --  -20.61973 -20.44090  -1.43819  -1.24421  -0.80767
 Alpha  occ. eigenvalues --   -0.76018  -0.58594  -0.54988  -0.44194  -0.40925
 Alpha virt. eigenvalues --    0.10445   0.16706   0.21030   0.33319   0.46778
 Alpha virt. eigenvalues --    0.51889   0.61429   0.68052   0.70429   0.70621
 Alpha virt. eigenvalues --    0.77106   0.78381   0.81263   0.83730   0.88111

 Mulliken charges:
               1
     1  O   -0.681782
     2  H    0.282124
     3  H    0.212096
     4  O   -0.309868
     5  H    0.263099
     6  H    0.234331
 Sum of Mulliken charges =  -0.00000

 Dipole moment (field-independent basis, Debye):
    X=             -0.9173    Y=             -4.9935    Z=              0.0000  Tot=              5.0770
 Quadrupole moment (field-independent basis, Debye-Ang):
   XX=             -9.1355   YY=            -10.1986   ZZ=            -14.5534
   XY=             -2.6976   XZ=              0.0000   YZ=             -0.0000

 Normal termination of Gaussian 16 at Fri Aug 26 15:39:09 2022.
