 Gaussian 16, Revision A.03,
 Gaussian 16:  ES64L-G16RevA.03 25-Dec-2016

 ------------------
 #p CCSD(T)/cc-pVTZ
 ------------------

 ------------
 H2O_H2O_4983
 ------------
 Symbolic Z-matrix:
 Charge =  0 Multiplicity = 1

                         Standard orientation:
 ---------------------------------------------------------------------
 Center     Atomic      Atomic             Coordinates (Angstroms)
 Number     Number       Type             X           Y           Z
 ---------------------------------------------------------------------
      1          8           0        0.070180    3.091648    0.000000
      2          1           0        0.069538    2.109047    0.000000
      3          1           0       -0.859104    3.410922   -0.000000
      4          8           0        0.070180   -2.921373    0.000000
      5          1           0        0.560925   -3.772652    0.000000
      6          1           0       -0.894241   -3.109516   -0.000000
 ---------------------------------------------------------------------

 SCF Done:  E(RHF) =  -152.108017247     A.U. after   10 cycles
 E2 =    -0.5258275808D+00 EUMP2 =    -0.15263384482754D+03
 CCSD(T)
 CCSD(T)= -0.15266105214D+03

 The electronic state is 1-A'.
 Alpha  occ. eigenvalues --  -20.56118 -20.55119  -1.33420  -1.32423  -0.70828
 Alpha  occ. eigenvalues --   -0.69823  -0.56896  -0.55885  -0.50535  -0.49541
 Alpha virt. eigenvalues --    0.13481   0.14679   0.19639   0.20874   0.53667
 Alpha virt. eigenvalues --    0.54764   0.56695   0.57694   0.67103   0.68429
 Alpha virt. eigenvalues --    0.78349   0.79323   0.79723   0.80662   0.82018

 Mulliken charges:
               1
     1  O   -0.511824
     2  H    0.258895
     3  H    0.252902
     4  O   -0.512589
     5  H    0.257813
     6  H    0.254804
 Sum of Mulliken charges =  -0.00000

 Dipole moment (field-independent basis, Debye):
    X=             -2.4093    Y=             -2.9785    Z=             -0.0000  Tot=              3.8309
 Quadrupole moment (field-independent basis, Debye-Ang):
   XX=             -9.6783   YY=             -6.5662   ZZ=            -14.7134
   XY=             -4.3487   XZ=              0.0000   YZ=             -0.0000

 Normal termination of Gaussian 16 at Sun Aug 28 07:26:18 2022.
