 Gaussian 16, Revision A.03,
 Gaussian 16:  ES64L-G16RevA.03 25-Dec-2016

 ------------------
 #p CCSD(T)/cc-pVTZ
 ------------------

 -----------
 H2O_H2O_612
 -----------
 Symbolic Z-matrix:
 Charge =  0 Multiplicity = 1

                         Standard orientation:
 ---------------------------------------------------------------------
 Center     Atomic      Atomic             Coordinates (Angstroms)
 Number     Number       Type             X           Y           Z
 ---------------------------------------------------------------------
      1          8           0        0.056090    1.351192    0.000000
      2          1           0        0.053603    0.368594    0.000000
      3          1           0       -0.872594    1.672209    0.000000
      4          8           0        0.056090   -1.172409   -0.000000
      5          1           0        0.749134   -1.868969   -0.000000
      6          1           0       -0.827583   -1.602094   -0.000000
 ---------------------------------------------------------------------

 SCF Done:  E(RHF) =  -152.105079028     A.U. after   11 cycles
 E2 =    -0.5309727645D+00 EUMP2 =    -0.15263605179215D+03
 CCSD(T)
 CCSD(T)= -0.15266256522D+03

 The electronic state is 1-A'.
 Alpha  occ. eigenvalues --  -20.59876 -20.49642  -1.38018  -1.27867  -0.74901
 Alpha  occ. eigenvalues --   -0.70127  -0.58983  -0.54796  -0.50258  -0.44857
 Alpha virt. eigenvalues --    0.11365   0.17487   0.19750   0.33281   0.47754
 Alpha virt. eigenvalues --    0.53843   0.61020   0.61491   0.70738   0.72316
 Alpha virt. eigenvalues --    0.72967   0.78253   0.81258   0.82949   0.84266

 Mulliken charges:
               1
     1  O   -0.599448
     2  H    0.312635
     3  H    0.227457
     4  O   -0.449266
     5  H    0.257807
     6  H    0.250815
 Sum of Mulliken charges =  -0.00000

 Dipole moment (field-independent basis, Debye):
    X=             -1.8049    Y=             -4.1317    Z=             -0.0000  Tot=              4.5088
 Quadrupole moment (field-independent basis, Debye-Ang):
   XX=             -9.2811   YY=             -9.2581   ZZ=            -14.6883
   XY=             -3.0646   XZ=             -0.0000   YZ=             -0.0000

 Normal termination of Gaussian 16 at Fri Aug 26 19:23:47 2022.
