 Gaussian 16, Revision A.03,
 Gaussian 16:  ES64L-G16RevA.03 25-Dec-2016

 ------------------
 #p CCSD(T)/cc-pVTZ
 ------------------

 ------------
 H2O_H2O_2291
 ------------
 Symbolic Z-matrix:
 Charge =  0 Multiplicity = 1

                         Standard orientation:
 ---------------------------------------------------------------------
 Center     Atomic      Atomic             Coordinates (Angstroms)
 Number     Number       Type             X           Y           Z
 ---------------------------------------------------------------------
      1          8           0        0.041171    2.019913    0.000000
      2          1           0        0.038893    1.037315    0.000000
      3          1           0       -0.887580    2.340734   -0.000000
      4          8           0        0.041171   -1.840017    0.000000
      5          1           0        0.890988   -2.333289    0.000000
      6          1           0       -0.701044   -2.483929   -0.000000
 ---------------------------------------------------------------------

 SCF Done:  E(RHF) =  -152.111546288     A.U. after   10 cycles
 E2 =    -0.5261915425D+00 EUMP2 =    -0.15263773783042D+03
 CCSD(T)
 CCSD(T)= -0.15266482661D+03

 The electronic state is 1-A'.
 Alpha  occ. eigenvalues --  -20.57099 -20.53948  -1.34355  -1.31291  -0.71745
 Alpha  occ. eigenvalues --   -0.68697  -0.57990  -0.54772  -0.51494  -0.48440
 Alpha virt. eigenvalues --    0.12306   0.16691   0.19249   0.24973   0.52368
 Alpha virt. eigenvalues --    0.55354   0.56434   0.58932   0.69052   0.71639
 Alpha virt. eigenvalues --    0.77005   0.78266   0.80426   0.82529   0.83607

 Mulliken charges:
               1
     1  O   -0.526235
     2  H    0.267606
     3  H    0.250559
     4  O   -0.510118
     5  H    0.261006
     6  H    0.257182
 Sum of Mulliken charges =  -0.00000

 Dipole moment (field-independent basis, Debye):
    X=             -1.3968    Y=             -3.3311    Z=             -0.0000  Tot=              3.6121
 Quadrupole moment (field-independent basis, Debye-Ang):
   XX=             -9.1504   YY=             -7.6691   ZZ=            -14.7255
   XY=             -4.4258   XZ=              0.0000   YZ=             -0.0000

 Normal termination of Gaussian 16 at Sun Aug 28 06:03:13 2022.
