 Gaussian 16, Revision A.03,
 Gaussian 16:  ES64L-G16RevA.03 25-Dec-2016

 ------------------
 #p CCSD(T)/cc-pVTZ
 ------------------

 ------------
 H2O_H2O_1094
 ------------
 Symbolic Z-matrix:
 Charge =  0 Multiplicity = 1

                         Standard orientation:
 ---------------------------------------------------------------------
 Center     Atomic      Atomic             Coordinates (Angstroms)
 Number     Number       Type             X           Y           Z
 ---------------------------------------------------------------------
      1          8           0        0.030307    1.538894   -0.000000
      2          1           0        0.026636    0.556299   -0.000000
      3          1           0       -0.897990    1.861030   -0.000000
      4          8           0        0.030307   -1.363368    0.000000
      5          1           0        0.959576   -1.682688    0.000000
      6          1           0       -0.573126   -2.138852    0.000000
 ---------------------------------------------------------------------

 SCF Done:  E(RHF) =  -152.113744008     A.U. after   10 cycles
 E2 =    -0.5282325577D+00 EUMP2 =    -0.15264197656599D+03
 CCSD(T)
 CCSD(T)= -0.15266885900D+03

 The electronic state is 1-A'.
 Alpha  occ. eigenvalues --  -20.58614 -20.51941  -1.36070  -1.29573  -0.73394
 Alpha  occ. eigenvalues --   -0.67937  -0.59722  -0.53141  -0.52653  -0.46702
 Alpha virt. eigenvalues --    0.11964   0.18365   0.18651   0.31515   0.48990
 Alpha virt. eigenvalues --    0.54674   0.56041   0.62140   0.68442   0.72528
 Alpha virt. eigenvalues --    0.72908   0.77243   0.82184   0.82567   0.84625

 Mulliken charges:
               1
     1  O   -0.565132
     2  H    0.291370
     3  H    0.246037
     4  O   -0.491153
     5  H    0.265369
     6  H    0.253508
 Sum of Mulliken charges =  -0.00000

 Dipole moment (field-independent basis, Debye):
    X=             -1.0085    Y=             -3.6441    Z=              0.0000  Tot=              3.7811
 Quadrupole moment (field-independent basis, Debye-Ang):
   XX=             -9.2227   YY=             -8.6887   ZZ=            -14.7280
   XY=             -3.7001   XZ=              0.0000   YZ=              0.0000

 Normal termination of Gaussian 16 at Fri Aug 26 22:25:28 2022.
