 Gaussian 16, Revision A.03,
 Gaussian 16:  ES64L-G16RevA.03 25-Dec-2016

 ------------------
 #p CCSD(T)/cc-pVTZ
 ------------------

 ------------
 H2O_H2O_3579
 ------------
 Symbolic Z-matrix:
 Charge =  0 Multiplicity = 1

                         Standard orientation:
 ---------------------------------------------------------------------
 Center     Atomic      Atomic             Coordinates (Angstroms)
 Number     Number       Type             X           Y           Z
 ---------------------------------------------------------------------
      1          8           0        0.082801    2.524664   -0.000000
      2          1           0        0.082450    1.542062   -0.000000
      3          1           0       -0.846577    2.843663   -0.000000
      4          8           0        0.082801   -2.370141    0.000000
      5          1           0        0.336778   -3.319353    0.000000
      6          1           0       -0.897473   -2.302552    0.000000
 ---------------------------------------------------------------------

 SCF Done:  E(RHF) =  -152.108312414     A.U. after   10 cycles
 E2 =    -0.5259160534D+00 EUMP2 =    -0.15263422846733D+03
 CCSD(T)
 CCSD(T)= -0.15266141714D+03

 The electronic state is 1-A'.
 Alpha  occ. eigenvalues --  -20.56426 -20.54997  -1.33723  -1.32304  -0.71138
 Alpha  occ. eigenvalues --   -0.69694  -0.57204  -0.55766  -0.50837  -0.49422
 Alpha virt. eigenvalues --    0.12293   0.15314   0.19249   0.22041   0.53320
 Alpha virt. eigenvalues --    0.55045   0.56449   0.58032   0.66886   0.69087
 Alpha virt. eigenvalues --    0.78067   0.78702   0.79437   0.80915   0.82672

 Mulliken charges:
               1
     1  O   -0.511997
     2  H    0.260298
     3  H    0.250913
     4  O   -0.512148
     5  H    0.259702
     6  H    0.253233
 Sum of Mulliken charges =  -0.00000

 Dipole moment (field-independent basis, Debye):
    X=             -2.8298    Y=             -2.7428    Z=              0.0000  Tot=              3.9409
 Quadrupole moment (field-independent basis, Debye-Ang):
   XX=            -10.2491   YY=             -8.0516   ZZ=            -14.7142
   XY=             -3.0673   XZ=              0.0000   YZ=             -0.0000

 CCSD(T)=-152.6614171\RMSD=7.196e-09\PG=CS [SG(H4O2)]\\@
 Normal termination of Gaussian 16 at Fri Aug 26 22:29:56 2022.
