 Gaussian 16, Revision A.03,
 Gaussian 16:  ES64L-G16RevA.03 25-Dec-2016

 ------------------
 #p CCSD(T)/cc-pVTZ
 ------------------

 -----------
 H2O_H2O_496
 -----------
 Symbolic Z-matrix:
 Charge =  0 Multiplicity = 1

                         Standard orientation:
 ---------------------------------------------------------------------
 Center     Atomic      Atomic             Coordinates (Angstroms)
 Number     Number       Type             X           Y           Z
 ---------------------------------------------------------------------
      1          8           0       -0.023406    1.296723    0.000000
      2          1           0       -0.018521    0.314134    0.000000
      3          1           0        0.904491    1.620006    0.000000
      4          8           0       -0.023406   -1.126444    0.000000
      5          1           0       -0.986162   -1.322929    0.000000
      6          1           0        0.474690   -1.973442    0.000000
 ---------------------------------------------------------------------

 SCF Done:  E(RHF) =  -152.098162786     A.U. after   11 cycles
 E2 =    -0.5318790890D+00 EUMP2 =    -0.15263004187455D+03
 CCSD(T)
 CCSD(T)= -0.15265639688D+03

 The electronic state is 1-A'.
 Alpha  occ. eigenvalues --  -20.60160 -20.48918  -1.38797  -1.27404  -0.76292
 Alpha  occ. eigenvalues --   -0.70129  -0.58938  -0.55328  -0.49399  -0.44366
 Alpha virt. eigenvalues --    0.11413   0.17916   0.19652   0.33937   0.47509
 Alpha virt. eigenvalues --    0.53471   0.58961   0.68295   0.69362   0.72187
 Alpha virt. eigenvalues --    0.74408   0.77297   0.79514   0.83845   0.84107

 Mulliken charges:
               1
     1  O   -0.620036
     2  H    0.301246
     3  H    0.236619
     4  O   -0.416548
     5  H    0.260612
     6  H    0.238107
 Sum of Mulliken charges =  -0.00000

 Dipole moment (field-independent basis, Debye):
    X=              0.7561    Y=             -4.1139    Z=              0.0000  Tot=              4.1828
 Quadrupole moment (field-independent basis, Debye-Ang):
   XX=             -9.3135   YY=             -9.4120   ZZ=            -14.6643
   XY=              3.2180   XZ=              0.0000   YZ=              0.0000

 Normal termination of Gaussian 16 at Fri Aug 26 18:39:06 2022.
