 Gaussian 16, Revision A.03,
 Gaussian 16:  ES64L-G16RevA.03 25-Dec-2016

 ------------------
 #p CCSD(T)/cc-pVTZ
 ------------------

 -----------
 H2O_H2O_741
 -----------
 Symbolic Z-matrix:
 Charge =  0 Multiplicity = 1

                         Standard orientation:
 ---------------------------------------------------------------------
 Center     Atomic      Atomic             Coordinates (Angstroms)
 Number     Number       Type             X           Y           Z
 ---------------------------------------------------------------------
      1          8           0        0.041270    1.401611    0.000000
      2          1           0        0.037917    0.419015    0.000000
      3          1           0       -0.887131    1.723447    0.000000
      4          8           0        0.041270   -1.221805   -0.000000
      5          1           0        0.890546   -1.716006   -0.000000
      6          1           0       -0.701649   -1.864905   -0.000000
 ---------------------------------------------------------------------

 SCF Done:  E(RHF) =  -152.109588657     A.U. after   10 cycles
 E2 =    -0.5299618870D+00 EUMP2 =    -0.15263955054426D+03
 CCSD(T)
 CCSD(T)= -0.15266619564D+03

 The electronic state is 1-A'.
 Alpha  occ. eigenvalues --  -20.59486 -20.50271  -1.37340  -1.28295  -0.74331
 Alpha  occ. eigenvalues --   -0.69158  -0.59489  -0.54255  -0.50901  -0.45343
 Alpha virt. eigenvalues --    0.11605   0.18054   0.19229   0.33153   0.47798
 Alpha virt. eigenvalues --    0.54226   0.58586   0.63099   0.69196   0.72280
 Alpha virt. eigenvalues --    0.72418   0.78048   0.81769   0.82987   0.84421

 Mulliken charges:
               1
     1  O   -0.592810
     2  H    0.309295
     3  H    0.235931
     4  O   -0.470613
     5  H    0.264352
     6  H    0.253846
 Sum of Mulliken charges =  -0.00000

 Dipole moment (field-independent basis, Debye):
    X=             -1.3440    Y=             -4.0204    Z=             -0.0000  Tot=              4.2391
 Quadrupole moment (field-independent basis, Debye-Ang):
   XX=             -9.1339   YY=             -9.0933   ZZ=            -14.7064
   XY=             -3.2674   XZ=             -0.0000   YZ=              0.0000

 Normal termination of Gaussian 16 at Fri Aug 26 20:13:21 2022.
