 Gaussian 16, Revision A.03,
 Gaussian 16:  ES64L-G16RevA.03 25-Dec-2016

 ------------------
 #p CCSD(T)/cc-pVTZ
 ------------------

 ------------
 H2O_H2O_4991
 ------------
 Symbolic Z-matrix:
 Charge =  0 Multiplicity = 1

                         Standard orientation:
 ---------------------------------------------------------------------
 Center     Atomic      Atomic             Coordinates (Angstroms)
 Number     Number       Type             X           Y           Z
 ---------------------------------------------------------------------
      1          8           0        0.041097    3.096914   -0.000000
      2          1           0        0.039634    2.114314   -0.000000
      3          1           0       -0.887921    3.416964   -0.000000
      4          8           0        0.041097   -2.916949    0.000000
      5          1           0        0.891323   -3.409517    0.000000
      6          1           0       -0.700583   -3.561478    0.000000
 ---------------------------------------------------------------------

 SCF Done:  E(RHF) =  -152.108248586     A.U. after   10 cycles
 E2 =    -0.5258051046D+00 EUMP2 =    -0.15263405369056D+03
 CCSD(T)
 CCSD(T)= -0.15266125642D+03

 The electronic state is 1-A'.
 Alpha  occ. eigenvalues --  -20.56108 -20.55039  -1.33410  -1.32345  -0.70814
 Alpha  occ. eigenvalues --   -0.69748  -0.56896  -0.55813  -0.50528  -0.49466
 Alpha virt. eigenvalues --    0.13554   0.14759   0.19751   0.20880   0.53736
 Alpha virt. eigenvalues --    0.54795   0.56728   0.57760   0.67086   0.68486
 Alpha virt. eigenvalues --    0.78355   0.79394   0.79765   0.80542   0.82163

 Mulliken charges:
               1
     1  O   -0.513249
     2  H    0.259448
     3  H    0.253770
     4  O   -0.513829
     5  H    0.257480
     6  H    0.256380
 Sum of Mulliken charges =  -0.00000

 Dipole moment (field-independent basis, Debye):
    X=             -1.4111    Y=             -3.1477    Z=              0.0000  Tot=              3.4495
 Quadrupole moment (field-independent basis, Debye-Ang):
   XX=             -9.1497   YY=             -5.9212   ZZ=            -14.7143
   XY=             -6.3580   XZ=              0.0000   YZ=             -0.0000

 Normal termination of Gaussian 16 at Sun Aug 28 07:30:30 2022.
