 Gaussian 16, Revision A.03,
 Gaussian 16:  ES64L-G16RevA.03 25-Dec-2016

 ------------------
 #p CCSD(T)/cc-pVTZ
 ------------------

 ------------
 H2O_H2O_1777
 ------------
 Symbolic Z-matrix:
 Charge =  0 Multiplicity = 1

                         Standard orientation:
 ---------------------------------------------------------------------
 Center     Atomic      Atomic             Coordinates (Angstroms)
 Number     Number       Type             X           Y           Z
 ---------------------------------------------------------------------
      1          8           0        0.088236   -1.801138    0.000000
      2          1           0        0.088004   -0.818537    0.000000
      3          1           0       -0.841182   -2.120023    0.000000
      4          8           0        0.088236    1.656828    0.000000
      5          1           0        0.216262    2.631054    0.000000
      6          1           0       -0.874854    1.461984    0.000000
 ---------------------------------------------------------------------

 SCF Done:  E(RHF) =  -152.109861350     A.U. after   10 cycles
 E2 =    -0.5269789414D+00 EUMP2 =    -0.15263684029147D+03
 CCSD(T)
 CCSD(T)= -0.15266393924D+03

 The electronic state is 1-A'.
 Alpha  occ. eigenvalues --  -20.57540 -20.54405  -1.34846  -1.31740  -0.72399
 Alpha  occ. eigenvalues --   -0.69061  -0.58389  -0.55146  -0.51937  -0.48855
 Alpha virt. eigenvalues --    0.11591   0.16335   0.20070   0.26551   0.50996
 Alpha virt. eigenvalues --    0.55283   0.57263   0.57612   0.68398   0.74373
 Alpha virt. eigenvalues --    0.75224   0.78056   0.80333   0.82719   0.83382

 Mulliken charges:
               1
     1  O   -0.519982
     2  H    0.269064
     3  H    0.242735
     4  O   -0.495254
     5  H    0.256247
     6  H    0.247191
 Sum of Mulliken charges =  -0.00000

 Dipole moment (field-independent basis, Debye):
    X=             -2.9649    Y=              2.7429    Z=              0.0000  Tot=              4.0390
 Quadrupole moment (field-independent basis, Debye-Ang):
   XX=            -10.5910   YY=             -8.8114   ZZ=            -14.7173
   XY=              2.4805   XZ=              0.0000   YZ=              0.0000

 Normal termination of Gaussian 16 at Sun Aug 28 01:28:58 2022.
