 Gaussian 16, Revision A.03,
 Gaussian 16:  ES64L-G16RevA.03 25-Dec-2016

 ------------------
 #p CCSD(T)/cc-pVTZ
 ------------------

 ------------
 H2O_H2O_3431
 ------------
 Symbolic Z-matrix:
 Charge =  0 Multiplicity = 1

                         Standard orientation:
 ---------------------------------------------------------------------
 Center     Atomic      Atomic             Coordinates (Angstroms)
 Number     Number       Type             X           Y           Z
 ---------------------------------------------------------------------
      1          8           0        0.076756    2.469554    0.000000
      2          1           0        0.076180    1.486952    0.000000
      3          1           0       -0.852551    2.788764   -0.000000
      4          8           0        0.076756   -2.306340    0.000000
      5          1           0        0.452250   -3.214365    0.000000
      6          1           0       -0.903969   -2.367058   -0.000000
 ---------------------------------------------------------------------

 SCF Done:  E(RHF) =  -152.108650757     A.U. after   10 cycles
 E2 =    -0.5259197521D+00 EUMP2 =    -0.15263457050863D+03
 CCSD(T)
 CCSD(T)= -0.15266174820D+03

 The electronic state is 1-A'.
 Alpha  occ. eigenvalues --  -20.56475 -20.54852  -1.33768  -1.32162  -0.71181
 Alpha  occ. eigenvalues --   -0.69551  -0.57262  -0.55629  -0.50885  -0.49284
 Alpha virt. eigenvalues --    0.12370   0.15456   0.19375   0.22030   0.53420
 Alpha virt. eigenvalues --    0.55082   0.56419   0.58127   0.67070   0.69221
 Alpha virt. eigenvalues --    0.78020   0.78669   0.79568   0.80533   0.82823

 Mulliken charges:
               1
     1  O   -0.513443
     2  H    0.261446
     3  H    0.250805
     4  O   -0.512807
     5  H    0.259893
     6  H    0.254106
 Sum of Mulliken charges =  -0.00000

 Dipole moment (field-independent basis, Debye):
    X=             -2.6216    Y=             -2.9064    Z=             -0.0000  Tot=              3.9141
 Quadrupole moment (field-independent basis, Debye-Ang):
   XX=             -9.9530   YY=             -7.6710   ZZ=            -14.7155
   XY=             -3.4637   XZ=             -0.0000   YZ=             -0.0000

 Normal termination of Gaussian 16 at Fri Aug 26 21:39:42 2022.
