 Gaussian 16, Revision A.03,
 Gaussian 16:  ES64L-G16RevA.03 25-Dec-2016

 ------------------
 #p CCSD(T)/cc-pVTZ
 ------------------

 -----------
 H2O_H2O_441
 -----------
 Symbolic Z-matrix:
 Charge =  0 Multiplicity = 1

                         Standard orientation:
 ---------------------------------------------------------------------
 Center     Atomic      Atomic             Coordinates (Angstroms)
 Number     Number       Type             X           Y           Z
 ---------------------------------------------------------------------
      1          8           0        0.041301    1.281934   -0.000000
      2          1           0        0.037611    0.299340   -0.000000
      3          1           0       -0.886990    1.604088   -0.000000
      4          8           0        0.041301   -1.102156    0.000000
      5          1           0        0.890408   -1.596648    0.000000
      6          1           0       -0.701838   -1.745002    0.000000
 ---------------------------------------------------------------------

 SCF Done:  E(RHF) =  -152.096032209     A.U. after   11 cycles
 E2 =    -0.5321791523D+00 EUMP2 =    -0.15262821136108D+03
 CCSD(T)
 CCSD(T)= -0.15265447375D+03

 The electronic state is 1-A'.
 Alpha  occ. eigenvalues --  -20.60460 -20.48127  -1.39206  -1.26825  -0.75681
 Alpha  occ. eigenvalues --   -0.72045  -0.58075  -0.55709  -0.48646  -0.43722
 Alpha virt. eigenvalues --    0.11174   0.17554   0.19960   0.33676   0.47175
 Alpha virt. eigenvalues --    0.53419   0.61037   0.65378   0.69849   0.72191
 Alpha virt. eigenvalues --    0.75060   0.78874   0.80839   0.82574   0.83859

 Mulliken charges:
               1
     1  O   -0.624841
     2  H    0.311698
     3  H    0.225855
     4  O   -0.421377
     5  H    0.260689
     6  H    0.247977
 Sum of Mulliken charges =  -0.00000

 Dipole moment (field-independent basis, Debye):
    X=             -1.3121    Y=             -4.3983    Z=              0.0000  Tot=              4.5899
 Quadrupole moment (field-independent basis, Debye-Ang):
   XX=             -9.1160   YY=             -9.5426   ZZ=            -14.6622
   XY=             -3.0147   XZ=              0.0000   YZ=             -0.0000

 Normal termination of Gaussian 16 at Fri Aug 26 18:17:06 2022.
