 Gaussian 16, Revision A.03,
 Gaussian 16:  ES64L-G16RevA.03 25-Dec-2016

 ------------------
 #p CCSD(T)/cc-pVTZ
 ------------------

 ------------
 H2O_H2O_1022
 ------------
 Symbolic Z-matrix:
 Charge =  0 Multiplicity = 1

                         Standard orientation:
 ---------------------------------------------------------------------
 Center     Atomic      Atomic             Coordinates (Angstroms)
 Number     Number       Type             X           Y           Z
 ---------------------------------------------------------------------
      1          8           0       -0.019999    1.504370    0.000000
      2          1           0       -0.015634    0.521778    0.000000
      3          1           0        0.908069    1.827163    0.000000
      4          8           0       -0.019999   -1.337332    0.000000
      5          1           0       -0.993615   -1.469914    0.000000
      6          1           0        0.421169   -2.215329    0.000000
 ---------------------------------------------------------------------

 SCF Done:  E(RHF) =  -152.112605734     A.U. after   10 cycles
 E2 =    -0.5285558520D+00 EUMP2 =    -0.15264116158589D+03
 CCSD(T)
 CCSD(T)= -0.15266802240D+03

 The electronic state is 1-A'.
 Alpha  occ. eigenvalues --  -20.58709 -20.51947  -1.36259  -1.29615  -0.73776
 Alpha  occ. eigenvalues --   -0.67920  -0.59853  -0.53285  -0.52624  -0.46736
 Alpha virt. eigenvalues --    0.11976   0.18247   0.18857   0.31915   0.48955
 Alpha virt. eigenvalues --    0.54605   0.56072   0.63298   0.68397   0.72649
 Alpha virt. eigenvalues --    0.73714   0.76771   0.81627   0.82622   0.84305

 Mulliken charges:
               1
     1  O   -0.569972
     2  H    0.290178
     3  H    0.248852
     4  O   -0.475099
     5  H    0.262499
     6  H    0.243541
 Sum of Mulliken charges =  -0.00000

 Dipole moment (field-independent basis, Debye):
    X=              0.6716    Y=             -3.5175    Z=              0.0000  Tot=              3.5810
 Quadrupole moment (field-independent basis, Debye-Ang):
   XX=             -9.4361   YY=             -8.8092   ZZ=            -14.7196
   XY=              3.8352   XZ=              0.0000   YZ=              0.0000

 Normal termination of Gaussian 16 at Fri Aug 26 21:57:40 2022.
