 Gaussian 16, Revision A.03,
 Gaussian 16:  ES64L-G16RevA.03 25-Dec-2016

 ------------------
 #p CCSD(T)/cc-pVTZ
 ------------------

 ----------
 H2O_H2O_70
 ----------
 Symbolic Z-matrix:
 Charge =  0 Multiplicity = 1

                         Standard orientation:
 ---------------------------------------------------------------------
 Center     Atomic      Atomic             Coordinates (Angstroms)
 Number     Number       Type             X           Y           Z
 ---------------------------------------------------------------------
      1          8           0        0.026913    1.128717   -0.000000
      2          1           0        0.021515    0.146131   -0.000000
      3          1           0       -0.900815    1.452486   -0.000000
      4          8           0        0.026913   -0.955651    0.000000
      5          1           0        0.974621   -1.215178    0.000000
      6          1           0       -0.525937   -1.767970    0.000000
 ---------------------------------------------------------------------

 SCF Done:  E(RHF) =  -152.039525484     A.U. after   11 cycles
 E2 =    -0.5359187226D+00 EUMP2 =    -0.15257544420709D+03
 CCSD(T)
 CCSD(T)= -0.15260097366D+03

 The electronic state is 1-A'.
 Alpha  occ. eigenvalues --  -20.61930 -20.44210  -1.43839  -1.24497  -0.81168
 Alpha  occ. eigenvalues --   -0.75422  -0.58559  -0.55171  -0.44294  -0.41026
 Alpha virt. eigenvalues --    0.10492   0.16775   0.20986   0.33376   0.46937
 Alpha virt. eigenvalues --    0.51839   0.61021   0.68518   0.70636   0.70664
 Alpha virt. eigenvalues --    0.76759   0.77981   0.81145   0.84185   0.87989

 Mulliken charges:
               1
     1  O   -0.682127
     2  H    0.279888
     3  H    0.214825
     4  O   -0.309584
     5  H    0.264294
     6  H    0.232703
 Sum of Mulliken charges =  -0.00000

 Dipole moment (field-independent basis, Debye):
    X=             -0.8106    Y=             -4.9356    Z=              0.0000  Tot=              5.0018
 Quadrupole moment (field-independent basis, Debye-Ang):
   XX=             -9.1833   YY=            -10.1742   ZZ=            -14.5510
   XY=             -2.7202   XZ=              0.0000   YZ=             -0.0000

 Normal termination of Gaussian 16 at Fri Aug 26 15:39:33 2022.
