 Gaussian 16, Revision A.03,
 Gaussian 16:  ES64L-G16RevA.03 25-Dec-2016

 ------------------
 #p CCSD(T)/cc-pVTZ
 ------------------

 ------------
 H2O_H2O_2034
 ------------
 Symbolic Z-matrix:
 Charge =  0 Multiplicity = 1

                         Standard orientation:
 ---------------------------------------------------------------------
 Center     Atomic      Atomic             Coordinates (Angstroms)
 Number     Number       Type             X           Y           Z
 ---------------------------------------------------------------------
      1          8           0        0.066781    1.916483    0.000000
      2          1           0        0.065566    0.933883    0.000000
      3          1           0       -0.862317    2.236299    0.000000
      4          8           0        0.066781   -1.743411    0.000000
      5          1           0        0.611675   -2.561088    0.000000
      6          1           0       -0.883417   -1.993673    0.000000
 ---------------------------------------------------------------------

 SCF Done:  E(RHF) =  -152.111512688     A.U. after   10 cycles
 E2 =    -0.5264664295D+00 EUMP2 =    -0.15263797911713D+03
 CCSD(T)
 CCSD(T)= -0.15266505693D+03

 The electronic state is 1-A'.
 Alpha  occ. eigenvalues --  -20.57324 -20.53906  -1.34584  -1.31253  -0.71990
 Alpha  occ. eigenvalues --   -0.68656  -0.58224  -0.54704  -0.51714  -0.48394
 Alpha virt. eigenvalues --    0.12053   0.16713   0.19341   0.25859   0.51643
 Alpha virt. eigenvalues --    0.55556   0.56122   0.58629   0.68963   0.72396
 Alpha virt. eigenvalues --    0.76334   0.78115   0.80551   0.83397   0.83846

 Mulliken charges:
               1
     1  O   -0.524926
     2  H    0.268473
     3  H    0.246506
     4  O   -0.505895
     5  H    0.261062
     6  H    0.254781
 Sum of Mulliken charges =  -0.00000

 Dipole moment (field-independent basis, Debye):
    X=             -2.2571    Y=             -3.2464    Z=              0.0000  Tot=              3.9540
 Quadrupole moment (field-independent basis, Debye-Ang):
   XX=             -9.5758   YY=             -7.9982   ZZ=            -14.7256
   XY=             -3.5341   XZ=             -0.0000   YZ=              0.0000

 Normal termination of Gaussian 16 at Sun Aug 28 03:45:33 2022.
