 Gaussian 16, Revision A.03,
 Gaussian 16:  ES64L-G16RevA.03 25-Dec-2016

 ------------------
 #p CCSD(T)/cc-pVTZ
 ------------------

 ------------
 H2O_H2O_2788
 ------------
 Symbolic Z-matrix:
 Charge =  0 Multiplicity = 1

                         Standard orientation:
 ---------------------------------------------------------------------
 Center     Atomic      Atomic             Coordinates (Angstroms)
 Number     Number       Type             X           Y           Z
 ---------------------------------------------------------------------
      1          8           0        0.052307    2.219340   -0.000000
      2          1           0        0.050687    1.236740   -0.000000
      3          1           0       -0.876659    2.539539   -0.000000
      4          8           0        0.052307   -2.039460    0.000000
      5          1           0        0.789997   -2.688551    0.000000
      6          1           0       -0.800942   -2.526771    0.000000
 ---------------------------------------------------------------------

 SCF Done:  E(RHF) =  -152.110207182     A.U. after   10 cycles
 E2 =    -0.5260014934D+00 EUMP2 =    -0.15263620867518D+03
 CCSD(T)
 CCSD(T)= -0.15266333763D+03

 The electronic state is 1-A'.
 Alpha  occ. eigenvalues --  -20.56767 -20.54325  -1.34038  -1.31649  -0.71438
 Alpha  occ. eigenvalues --   -0.69040  -0.57598  -0.55135  -0.51170  -0.48786
 Alpha virt. eigenvalues --    0.12408   0.16132   0.19410   0.23204   0.53018
 Alpha virt. eigenvalues --    0.55569   0.56261   0.58833   0.68953   0.69457
 Alpha virt. eigenvalues --    0.77686   0.79044   0.79659   0.80043   0.83387

 Mulliken charges:
               1
     1  O   -0.520201
     2  H    0.265332
     3  H    0.250764
     4  O   -0.512748
     5  H    0.260304
     6  H    0.256549
 Sum of Mulliken charges =  -0.00000

 Dipole moment (field-independent basis, Debye):
    X=             -1.7808    Y=             -3.2624    Z=              0.0000  Tot=              3.7168
 Quadrupole moment (field-independent basis, Debye-Ang):
   XX=             -9.2271   YY=             -7.3390   ZZ=            -14.7208
   XY=             -4.3833   XZ=              0.0000   YZ=             -0.0000

 Normal termination of Gaussian 16 at Fri Aug 26 17:19:37 2022.
