 Gaussian 16, Revision A.03,
 Gaussian 16:  ES64L-G16RevA.03 25-Dec-2016

 ------------------
 #p CCSD(T)/cc-pVTZ
 ------------------

 ------------
 H2O_H2O_2105
 ------------
 Symbolic Z-matrix:
 Charge =  0 Multiplicity = 1

                         Standard orientation:
 ---------------------------------------------------------------------
 Center     Atomic      Atomic             Coordinates (Angstroms)
 Number     Number       Type             X           Y           Z
 ---------------------------------------------------------------------
      1          8           0        0.079861    1.938777    0.000000
      2          1           0        0.079263    0.956176    0.000000
      3          1           0       -0.849438    2.258009    0.000000
      4          8           0        0.079861   -1.779733    0.000000
      5          1           0        0.395141   -2.710381    0.000000
      6          1           0       -0.902735   -1.776156    0.000000
 ---------------------------------------------------------------------

 SCF Done:  E(RHF) =  -152.110380208     A.U. after   10 cycles
 E2 =    -0.5264842158D+00 EUMP2 =    -0.15263686442362D+03
 CCSD(T)
 CCSD(T)= -0.15266396671D+03

 The electronic state is 1-A'.
 Alpha  occ. eigenvalues --  -20.57240 -20.54300  -1.34515  -1.31630  -0.71959
 Alpha  occ. eigenvalues --   -0.69001  -0.58085  -0.55075  -0.51632  -0.48759
 Alpha virt. eigenvalues --    0.11832   0.16382   0.19616   0.25311   0.52151
 Alpha virt. eigenvalues --    0.55767   0.56320   0.58019   0.68793   0.72653
 Alpha virt. eigenvalues --    0.76509   0.78852   0.80224   0.82848   0.83358

 Mulliken charges:
               1
     1  O   -0.519939
     2  H    0.266651
     3  H    0.245731
     4  O   -0.503828
     5  H    0.259495
     6  H    0.251889
 Sum of Mulliken charges =  -0.00000

 Dipole moment (field-independent basis, Debye):
    X=             -2.6995    Y=             -2.9639    Z=             -0.0000  Tot=              4.0090
 Quadrupole moment (field-independent basis, Debye-Ang):
   XX=            -10.1191   YY=             -8.3187   ZZ=            -14.7209
   XY=             -3.0109   XZ=             -0.0000   YZ=             -0.0000

 Normal termination of Gaussian 16 at Sun Aug 28 04:24:58 2022.
