 Gaussian 16, Revision A.03,
 Gaussian 16:  ES64L-G16RevA.03 25-Dec-2016

 ------------------
 #p CCSD(T)/cc-pVTZ
 ------------------

 ------------
 H2O_H2O_4554
 ------------
 Symbolic Z-matrix:
 Charge =  0 Multiplicity = 1

                         Standard orientation:
 ---------------------------------------------------------------------
 Center     Atomic      Atomic             Coordinates (Angstroms)
 Number     Number       Type             X           Y           Z
 ---------------------------------------------------------------------
      1          8           0        0.082798    2.913573    0.000000
      2          1           0        0.082494    1.930972    0.000000
      3          1           0       -0.846597    3.232527    0.000000
      4          8           0        0.082798   -2.759043    0.000000
      5          1           0        0.336820   -3.708242    0.000000
      6          1           0       -0.897480   -2.691502    0.000000
 ---------------------------------------------------------------------

 SCF Done:  E(RHF) =  -152.107907602     A.U. after   10 cycles
 E2 =    -0.5258511683D+00 EUMP2 =    -0.15263375877052D+03
 CCSD(T)
 CCSD(T)= -0.15266096711D+03

 The electronic state is 1-A'.
 Alpha  occ. eigenvalues --  -20.56192 -20.55179  -1.33494  -1.32482  -0.70905
 Alpha  occ. eigenvalues --   -0.69879  -0.56964  -0.55940  -0.50607  -0.49598
 Alpha virt. eigenvalues --    0.13097   0.14768   0.19294   0.21242   0.53391
 Alpha virt. eigenvalues --    0.54842   0.56597   0.57716   0.66915   0.68551
 Alpha virt. eigenvalues --    0.78282   0.79269   0.79558   0.80901   0.82087

 Mulliken charges:
               1
     1  O   -0.510985
     2  H    0.258617
     3  H    0.252291
     4  O   -0.511979
     5  H    0.258347
     6  H    0.253709
 Sum of Mulliken charges =   0.00000

 Dipole moment (field-independent basis, Debye):
    X=             -2.8397    Y=             -2.7108    Z=             -0.0000  Tot=              3.9258
 Quadrupole moment (field-independent basis, Debye-Ang):
   XX=            -10.2441   YY=             -7.7833   ZZ=            -14.7129
   XY=             -3.2079   XZ=             -0.0000   YZ=             -0.0000

 Normal termination of Gaussian 16 at Sun Aug 28 03:48:32 2022.
