 Gaussian 16, Revision A.03,
 Gaussian 16:  ES64L-G16RevA.03 25-Dec-2016

 ------------------
 #p CCSD(T)/cc-pVTZ
 ------------------

 ------------
 H2O_H2O_4014
 ------------
 Symbolic Z-matrix:
 Charge =  0 Multiplicity = 1

                         Standard orientation:
 ---------------------------------------------------------------------
 Center     Atomic      Atomic             Coordinates (Angstroms)
 Number     Number       Type             X           Y           Z
 ---------------------------------------------------------------------
      1          8           0        0.048562    2.708252   -0.000000
      2          1           0        0.047123    1.725651   -0.000000
      3          1           0       -0.880463    3.028278   -0.000000
      4          8           0        0.048562   -2.527841    0.000000
      5          1           0        0.827236   -3.127152    0.000000
      6          1           0       -0.770888   -3.070066    0.000000
 ---------------------------------------------------------------------

 SCF Done:  E(RHF) =  -152.108718540     A.U. after   10 cycles
 E2 =    -0.5258214531D+00 EUMP2 =    -0.15263453999279D+03
 CCSD(T)
 CCSD(T)= -0.15266172600D+03

 The electronic state is 1-A'.
 Alpha  occ. eigenvalues --  -20.56289 -20.54819  -1.33587  -1.32129  -0.70990
 Alpha  occ. eigenvalues --   -0.69528  -0.57091  -0.55604  -0.50708  -0.49255
 Alpha virt. eigenvalues --    0.13093   0.15188   0.19642   0.21305   0.53562
 Alpha virt. eigenvalues --    0.54908   0.56587   0.57833   0.66678   0.69091
 Alpha virt. eigenvalues --    0.78186   0.79520   0.79594   0.79620   0.82880

 Mulliken charges:
               1
     1  O   -0.514978
     2  H    0.261627
     3  H    0.252899
     4  O   -0.515434
     5  H    0.259048
     6  H    0.256838
 Sum of Mulliken charges =  -0.00000

 Dipole moment (field-independent basis, Debye):
    X=             -1.6630    Y=             -3.1841    Z=              0.0000  Tot=              3.5922
 Quadrupole moment (field-independent basis, Debye-Ang):
   XX=             -9.1821   YY=             -6.5324   ZZ=            -14.7159
   XY=             -5.2698   XZ=              0.0000   YZ=             -0.0000

 Normal termination of Gaussian 16 at Sat Aug 27 01:00:01 2022.
