 Gaussian 16, Revision A.03,
 Gaussian 16:  ES64L-G16RevA.03 25-Dec-2016

 ------------------
 #p CCSD(T)/cc-pVTZ
 ------------------

 -----------
 H2O_H2O_980
 -----------
 Symbolic Z-matrix:
 Charge =  0 Multiplicity = 1

                         Standard orientation:
 ---------------------------------------------------------------------
 Center     Atomic      Atomic             Coordinates (Angstroms)
 Number     Number       Type             X           Y           Z
 ---------------------------------------------------------------------
      1          8           0        0.079876   -1.490025    0.000000
      2          1           0        0.079088   -0.507424    0.000000
      3          1           0       -0.849361   -1.809437    0.000000
      4          8           0        0.079876    1.331012    0.000000
      5          1           0        0.394977    2.261720    0.000000
      6          1           0       -0.902718    1.327244    0.000000
 ---------------------------------------------------------------------

 SCF Done:  E(RHF) =  -152.109777160     A.U. after   10 cycles
 E2 =    -0.5292179030D+00 EUMP2 =    -0.15263899506300D+03
 CCSD(T)
 CCSD(T)= -0.15266587633D+03

 The electronic state is 1-A'.
 Alpha  occ. eigenvalues --  -20.58814 -20.52458  -1.36415  -1.30075  -0.74130
 Alpha  occ. eigenvalues --   -0.68169  -0.59638  -0.53384  -0.53158  -0.47152
 Alpha virt. eigenvalues --    0.11547   0.16826   0.19975   0.31323   0.48329
 Alpha virt. eigenvalues --    0.54154   0.58643   0.60012   0.69339   0.72391
 Alpha virt. eigenvalues --    0.74502   0.77163   0.81084   0.82346   0.83815

 Mulliken charges:
               1
     1  O   -0.550912
     2  H    0.290311
     3  H    0.232306
     4  O   -0.454715
     5  H    0.239611
     6  H    0.243399
 Sum of Mulliken charges =  -0.00000

 Dipole moment (field-independent basis, Debye):
    X=             -2.6262    Y=              3.3589    Z=              0.0000  Tot=              4.2637
 Quadrupole moment (field-independent basis, Debye-Ang):
   XX=            -10.1395   YY=             -8.8834   ZZ=            -14.7056
   XY=              2.7673   XZ=              0.0000   YZ=              0.0000

 Normal termination of Gaussian 16 at Fri Aug 26 21:42:46 2022.
