 Gaussian 16, Revision A.03,
 Gaussian 16:  ES64L-G16RevA.03 25-Dec-2016

 ------------------
 #p CCSD(T)/cc-pVTZ
 ------------------

 ------------
 H2O_H2O_1639
 ------------
 Symbolic Z-matrix:
 Charge =  0 Multiplicity = 1

                         Standard orientation:
 ---------------------------------------------------------------------
 Center     Atomic      Atomic             Coordinates (Angstroms)
 Number     Number       Type             X           Y           Z
 ---------------------------------------------------------------------
      1          8           0        0.048637    1.760879    0.000000
      2          1           0        0.046383    0.778280    0.000000
      3          1           0       -0.880123    2.081677    0.000000
      4          8           0        0.048637   -1.580549   -0.000000
      5          1           0        0.826813   -2.180506   -0.000000
      6          1           0       -0.771262   -2.122095   -0.000000
 ---------------------------------------------------------------------

 SCF Done:  E(RHF) =  -152.113473050     A.U. after   10 cycles
 E2 =    -0.5268867291D+00 EUMP2 =    -0.15264035977911D+03
 CCSD(T)
 CCSD(T)= -0.15266737972D+03

 The electronic state is 1-A'.
 Alpha  occ. eigenvalues --  -20.57770 -20.53172  -1.35035  -1.30583  -0.72390
 Alpha  occ. eigenvalues --   -0.68133  -0.58825  -0.53971  -0.52171  -0.47735
 Alpha virt. eigenvalues --    0.12100   0.17411   0.19041   0.28194   0.50367
 Alpha virt. eigenvalues --    0.54714   0.56253   0.59306   0.69064   0.72174
 Alpha virt. eigenvalues --    0.74892   0.76861   0.81277   0.83158   0.84698

 Mulliken charges:
               1
     1  O   -0.537275
     2  H    0.274751
     3  H    0.246604
     4  O   -0.506860
     5  H    0.264422
     6  H    0.258358
 Sum of Mulliken charges =  -0.00000

 Dipole moment (field-independent basis, Debye):
    X=             -1.6348    Y=             -3.4890    Z=             -0.0000  Tot=              3.8530
 Quadrupole moment (field-independent basis, Debye-Ang):
   XX=             -9.1886   YY=             -8.1500   ZZ=            -14.7340
   XY=             -3.8057   XZ=             -0.0000   YZ=              0.0000

 Normal termination of Gaussian 16 at Sun Aug 28 00:09:56 2022.
