 Gaussian 16, Revision A.03,
 Gaussian 16:  ES64L-G16RevA.03 25-Dec-2016

 ------------------
 #p CCSD(T)/cc-pVTZ
 ------------------

 ------------
 H2O_H2O_1923
 ------------
 Symbolic Z-matrix:
 Charge =  0 Multiplicity = 1

                         Standard orientation:
 ---------------------------------------------------------------------
 Center     Atomic      Atomic             Coordinates (Angstroms)
 Number     Number       Type             X           Y           Z
 ---------------------------------------------------------------------
      1          8           0       -0.016691    1.861360    0.000000
      2          1           0       -0.013052    0.878766    0.000000
      3          1           0        0.911615    2.183467    0.000000
      4          8           0       -0.016691   -1.697997    0.000000
      5          1           0       -0.996945   -1.765892    0.000000
      6          1           0        0.365440   -2.603249    0.000000
 ---------------------------------------------------------------------

 SCF Done:  E(RHF) =  -152.112179106     A.U. after   10 cycles
 E2 =    -0.5264705787D+00 EUMP2 =    -0.15263864968418D+03
 CCSD(T)
 CCSD(T)= -0.15266571642D+03

 The electronic state is 1-A'.
 Alpha  occ. eigenvalues --  -20.57376 -20.53885  -1.34654  -1.31247  -0.72085
 Alpha  occ. eigenvalues --   -0.68682  -0.58345  -0.54697  -0.51783  -0.48402
 Alpha virt. eigenvalues --    0.12193   0.17007   0.19224   0.26665   0.52463
 Alpha virt. eigenvalues --    0.54490   0.55958   0.59267   0.68825   0.73245
 Alpha virt. eigenvalues --    0.75903   0.78356   0.80612   0.83332   0.84080

 Mulliken charges:
               1
     1  O   -0.532311
     2  H    0.267859
     3  H    0.253845
     4  O   -0.508744
     5  H    0.261371
     6  H    0.257979
 Sum of Mulliken charges =  -0.00000

 Dipole moment (field-independent basis, Debye):
    X=              0.5722    Y=             -3.0845    Z=              0.0000  Tot=              3.1371
 Quadrupole moment (field-independent basis, Debye-Ang):
   XX=             -9.5449   YY=             -8.2787   ZZ=            -14.7278
   XY=              4.8800   XZ=              0.0000   YZ=              0.0000

 Normal termination of Gaussian 16 at Sun Aug 28 02:49:32 2022.
