 Gaussian 16, Revision A.03,
 Gaussian 16:  ES64L-G16RevA.03 25-Dec-2016

 ------------------
 #p CCSD(T)/cc-pVTZ
 ------------------

 -----------
 H2O_H2O_844
 -----------
 Symbolic Z-matrix:
 Charge =  0 Multiplicity = 1

                         Standard orientation:
 ---------------------------------------------------------------------
 Center     Atomic      Atomic             Coordinates (Angstroms)
 Number     Number       Type             X           Y           Z
 ---------------------------------------------------------------------
      1          8           0        0.030331    1.439167    0.000000
      2          1           0        0.026389    0.456573    0.000000
      3          1           0       -0.897876    1.761559    0.000000
      4          8           0        0.030331   -1.263657   -0.000000
      5          1           0        0.959512   -1.583234   -0.000000
      6          1           0       -0.573316   -2.038975   -0.000000
 ---------------------------------------------------------------------

 SCF Done:  E(RHF) =  -152.111339351     A.U. after   10 cycles
 E2 =    -0.5293687836D+00 EUMP2 =    -0.15264070813503D+03
 CCSD(T)
 CCSD(T)= -0.15266744467D+03

 The electronic state is 1-A'.
 Alpha  occ. eigenvalues --  -20.59175 -20.50924  -1.36888  -1.28793  -0.74142
 Alpha  occ. eigenvalues --   -0.68425  -0.59795  -0.53857  -0.51566  -0.45878
 Alpha virt. eigenvalues --    0.11779   0.18385   0.18860   0.32837   0.48189
 Alpha virt. eigenvalues --    0.54454   0.57177   0.63961   0.68352   0.72475
 Alpha virt. eigenvalues --    0.72660   0.77545   0.81569   0.83147   0.84372

 Mulliken charges:
               1
     1  O   -0.584755
     2  H    0.301549
     3  H    0.242189
     4  O   -0.473325
     5  H    0.264159
     6  H    0.250183
 Sum of Mulliken charges =  -0.00000

 Dipole moment (field-independent basis, Debye):
    X=             -0.9985    Y=             -3.8335    Z=             -0.0000  Tot=              3.9614
 Quadrupole moment (field-independent basis, Debye-Ang):
   XX=             -9.2133   YY=             -8.9622   ZZ=            -14.7131
   XY=             -3.4699   XZ=             -0.0000   YZ=             -0.0000

 Normal termination of Gaussian 16 at Fri Aug 26 20:51:36 2022.
