 Gaussian 16, Revision A.03,
 Gaussian 16:  ES64L-G16RevA.03 25-Dec-2016

 ------------------
 #p CCSD(T)/cc-pVTZ
 ------------------

 ------------
 H2O_H2O_1878
 ------------
 Symbolic Z-matrix:
 Charge =  0 Multiplicity = 1

                         Standard orientation:
 ---------------------------------------------------------------------
 Center     Atomic      Atomic             Coordinates (Angstroms)
 Number     Number       Type             X           Y           Z
 ---------------------------------------------------------------------
      1          8           0        0.085607   -1.843891    0.000000
      2          1           0        0.085254   -0.861289    0.000000
      3          1           0       -0.843772   -2.162890    0.000000
      4          8           0        0.085607    1.694307    0.000000
      5          1           0        0.276957    2.658097    0.000000
      6          1           0       -0.888148    1.562749    0.000000
 ---------------------------------------------------------------------

 SCF Done:  E(RHF) =  -152.110139731     A.U. after   10 cycles
 E2 =    -0.5267903514D+00 EUMP2 =    -0.15263693008204D+03
 CCSD(T)
 CCSD(T)= -0.15266402794D+03

 The electronic state is 1-A'.
 Alpha  occ. eigenvalues --  -20.57442 -20.54351  -1.34734  -1.31685  -0.72237
 Alpha  occ. eigenvalues --   -0.69032  -0.58293  -0.55105  -0.51836  -0.48805
 Alpha virt. eigenvalues --    0.11666   0.16367   0.19894   0.26157   0.51331
 Alpha virt. eigenvalues --    0.55522   0.56916   0.57726   0.68640   0.73961
 Alpha virt. eigenvalues --    0.75687   0.78362   0.80307   0.82995   0.83255

 Mulliken charges:
               1
     1  O   -0.520061
     2  H    0.268109
     3  H    0.243757
     4  O   -0.498857
     5  H    0.257855
     6  H    0.249197
 Sum of Mulliken charges =  -0.00000

 Dipole moment (field-independent basis, Debye):
    X=             -2.8825    Y=              2.8239    Z=              0.0000  Tot=              4.0353
 Quadrupole moment (field-independent basis, Debye-Ang):
   XX=            -10.4332   YY=             -8.6479   ZZ=            -14.7193
   XY=              2.6574   XZ=              0.0000   YZ=              0.0000

 Normal termination of Gaussian 16 at Sun Aug 28 02:22:58 2022.
