 Gaussian 16, Revision A.03,
 Gaussian 16:  ES64L-G16RevA.03 25-Dec-2016

 ------------------
 #p CCSD(T)/cc-pVTZ
 ------------------

 -----------
 H2O_H2O_656
 -----------
 Symbolic Z-matrix:
 Charge =  0 Multiplicity = 1

                         Standard orientation:
 ---------------------------------------------------------------------
 Center     Atomic      Atomic             Coordinates (Angstroms)
 Number     Number       Type             X           Y           Z
 ---------------------------------------------------------------------
      1          8           0        0.076797   -1.362630    0.000000
      2          1           0        0.075724   -0.380029    0.000000
      3          1           0       -0.852348   -1.682311    0.000000
      4          8           0        0.076797    1.199495    0.000000
      5          1           0        0.451831    2.107711    0.000000
      6          1           0       -0.903958    1.259716    0.000000
 ---------------------------------------------------------------------

 SCF Done:  E(RHF) =  -152.103675424     A.U. after   11 cycles
 E2 =    -0.5311958192D+00 EUMP2 =    -0.15263487124330D+03
 CCSD(T)
 CCSD(T)= -0.15266148661D+03

 The electronic state is 1-A'.
 Alpha  occ. eigenvalues --  -20.59655 -20.50835  -1.37783  -1.28835  -0.75562
 Alpha  occ. eigenvalues --   -0.68900  -0.59404  -0.54510  -0.51499  -0.45842
 Alpha virt. eigenvalues --    0.11326   0.16837   0.20189   0.32705   0.48255
 Alpha virt. eigenvalues --    0.53488   0.59200   0.62484   0.70493   0.72086
 Alpha virt. eigenvalues --    0.74080   0.77926   0.79822   0.83569   0.83879

 Mulliken charges:
               1
     1  O   -0.576456
     2  H    0.299296
     3  H    0.223828
     4  O   -0.425355
     5  H    0.238474
     6  H    0.240212
 Sum of Mulliken charges =  -0.00000

 Dipole moment (field-independent basis, Debye):
    X=             -2.4801    Y=              3.7253    Z=              0.0000  Tot=              4.4754
 Quadrupole moment (field-independent basis, Debye-Ang):
   XX=             -9.9802   YY=             -9.1617   ZZ=            -14.6774
   XY=              2.7630   XZ=              0.0000   YZ=              0.0000

 Normal termination of Gaussian 16 at Fri Aug 26 19:39:57 2022.
