 Gaussian 16, Revision A.03,
 Gaussian 16:  ES64L-G16RevA.03 25-Dec-2016

 ------------------
 #p CCSD(T)/cc-pVTZ
 ------------------

 ------------
 H2O_H2O_3619
 ------------
 Symbolic Z-matrix:
 Charge =  0 Multiplicity = 1

                         Standard orientation:
 ---------------------------------------------------------------------
 Center     Atomic      Atomic             Coordinates (Angstroms)
 Number     Number       Type             X           Y           Z
 ---------------------------------------------------------------------
      1          8           0        0.030172    2.546101   -0.000000
      2          1           0        0.028005    1.563502   -0.000000
      3          1           0       -0.898616    2.866817   -0.000000
      4          8           0        0.030172   -2.370483    0.000000
      5          1           0        0.959928   -2.688380    0.000000
      6          1           0       -0.572072   -3.146889    0.000000
 ---------------------------------------------------------------------

 SCF Done:  E(RHF) =  -152.109142981     A.U. after   10 cycles
 E2 =    -0.5258349848D+00 EUMP2 =    -0.15263497796542D+03
 CCSD(T)
 CCSD(T)= -0.15266214945D+03

 The electronic state is 1-A'.
 Alpha  occ. eigenvalues --  -20.56395 -20.54729  -1.33688  -1.32043  -0.71091
 Alpha  occ. eigenvalues --   -0.69445  -0.57207  -0.55526  -0.50812  -0.49173
 Alpha virt. eigenvalues --    0.12793   0.15456   0.19499   0.21772   0.53374
 Alpha virt. eigenvalues --    0.55151   0.56543   0.57941   0.66873   0.69270
 Alpha virt. eigenvalues --    0.78088   0.78900   0.79667   0.79987   0.82980

 Mulliken charges:
               1
     1  O   -0.516916
     2  H    0.262205
     3  H    0.253706
     4  O   -0.516149
     5  H    0.258925
     6  H    0.258229
 Sum of Mulliken charges =  -0.00000

 Dipole moment (field-independent basis, Debye):
    X=             -1.0327    Y=             -3.1176    Z=              0.0000  Tot=              3.2842
 Quadrupole moment (field-independent basis, Debye-Ang):
   XX=             -9.2296   YY=             -6.9960   ZZ=            -14.7174
   XY=             -5.9086   XZ=              0.0000   YZ=              0.0000

 Normal termination of Gaussian 16 at Fri Aug 26 22:43:05 2022.
