 Gaussian 16, Revision A.03,
 Gaussian 16:  ES64L-G16RevA.03 25-Dec-2016

 ------------------
 #p CCSD(T)/cc-pVTZ
 ------------------

 ------------
 H2O_H2O_2854
 ------------
 Symbolic Z-matrix:
 Charge =  0 Multiplicity = 1

                         Standard orientation:
 ---------------------------------------------------------------------
 Center     Atomic      Atomic             Coordinates (Angstroms)
 Number     Number       Type             X           Y           Z
 ---------------------------------------------------------------------
      1          8           0        0.082805   -2.235474    0.000000
      2          1           0        0.082406   -1.252873    0.000000
      3          1           0       -0.846558   -2.554518    0.000000
      4          8           0        0.082805    2.080959    0.000000
      5          1           0        0.336736    3.030183    0.000000
      6          1           0       -0.897466    2.013324    0.000000
 ---------------------------------------------------------------------

 SCF Done:  E(RHF) =  -152.108947715     A.U. after   10 cycles
 E2 =    -0.5260751601D+00 EUMP2 =    -0.15263502287512D+03
 CCSD(T)
 CCSD(T)= -0.15266218056D+03

 The electronic state is 1-A'.
 Alpha  occ. eigenvalues --  -20.56725 -20.54783  -1.34012  -1.32093  -0.71436
 Alpha  occ. eigenvalues --   -0.69473  -0.57511  -0.55556  -0.51128  -0.49215
 Alpha virt. eigenvalues --    0.11898   0.15800   0.19466   0.23088   0.54105
 Alpha virt. eigenvalues --    0.54983   0.56388   0.58347   0.68433   0.69307
 Alpha virt. eigenvalues --    0.77736   0.78785   0.79649   0.80702   0.82876

 Mulliken charges:
               1
     1  O   -0.514245
     2  H    0.262632
     3  H    0.248986
     4  O   -0.509368
     5  H    0.259691
     6  H    0.252303
 Sum of Mulliken charges =  -0.00000

 Dipole moment (field-independent basis, Debye):
    X=             -2.8179    Y=              2.7889    Z=              0.0000  Tot=              3.9647
 Quadrupole moment (field-independent basis, Debye-Ang):
   XX=            -10.2572   YY=             -8.2436   ZZ=            -14.7161
   XY=              2.9628   XZ=              0.0000   YZ=              0.0000

 CCSD(T)=-152.6621806\RMSD=7.056e-09\PG=CS [SG(H4O2)]\\@
 Normal termination of Gaussian 16 at Fri Aug 26 17:47:08 2022.
