 Gaussian 16, Revision A.03,
 Gaussian 16:  ES64L-G16RevA.03 25-Dec-2016

 ------------------
 #p CCSD(T)/cc-pVTZ
 ------------------

 ------------
 H2O_H2O_4779
 ------------
 Symbolic Z-matrix:
 Charge =  0 Multiplicity = 1

                         Standard orientation:
 ---------------------------------------------------------------------
 Center     Atomic      Atomic             Coordinates (Angstroms)
 Number     Number       Type             X           Y           Z
 ---------------------------------------------------------------------
      1          8           0        0.082797    3.003322   -0.000000
      2          1           0        0.082502    2.020720   -0.000000
      3          1           0       -0.846601    3.322266   -0.000000
      4          8           0        0.082797   -2.848789    0.000000
      5          1           0        0.336828   -3.797986    0.000000
      6          1           0       -0.897482   -2.781258    0.000000
 ---------------------------------------------------------------------

 SCF Done:  E(RHF) =  -152.107855777     A.U. after   10 cycles
 E2 =    -0.5258472249D+00 EUMP2 =    -0.15263370300140D+03
 CCSD(T)
 CCSD(T)= -0.15266091332D+03

 The electronic state is 1-A'.
 Alpha  occ. eigenvalues --  -20.56155 -20.55210  -1.33457  -1.32513  -0.70868
 Alpha  occ. eigenvalues --   -0.69911  -0.56925  -0.55970  -0.50570  -0.49628
 Alpha virt. eigenvalues --    0.13248   0.14672   0.19358   0.21092   0.53492
 Alpha virt. eigenvalues --    0.54773   0.56631   0.57662   0.67026   0.68430
 Alpha virt. eigenvalues --    0.78317   0.79240   0.79676   0.80839   0.81887

 Mulliken charges:
               1
     1  O   -0.510830
     2  H    0.258287
     3  H    0.252503
     4  O   -0.511727
     5  H    0.258008
     6  H    0.253759
 Sum of Mulliken charges =  -0.00000

 Dipole moment (field-independent basis, Debye):
    X=             -2.8413    Y=             -2.7063    Z=              0.0000  Tot=              3.9239
 Quadrupole moment (field-independent basis, Debye-Ang):
   XX=            -10.2435   YY=             -7.7189   ZZ=            -14.7128
   XY=             -3.2404   XZ=              0.0000   YZ=             -0.0000

 Normal termination of Gaussian 16 at Sun Aug 28 05:50:43 2022.
