 Gaussian 16, Revision A.03,
 Gaussian 16:  ES64L-G16RevA.03 25-Dec-2016

 ------------------
 #p CCSD(T)/cc-pVTZ
 ------------------

 -----------
 H2O_H2O_330
 -----------
 Symbolic Z-matrix:
 Charge =  0 Multiplicity = 1

                         Standard orientation:
 ---------------------------------------------------------------------
 Center     Atomic      Atomic             Coordinates (Angstroms)
 Number     Number       Type             X           Y           Z
 ---------------------------------------------------------------------
      1          8           0        0.079890   -1.230740    0.000000
      2          1           0        0.078925   -0.248139    0.000000
      3          1           0       -0.849289   -1.550319    0.000000
      4          8           0        0.079890    1.071756    0.000000
      5          1           0        0.394824    2.002521    0.000000
      6          1           0       -0.902703    1.067811    0.000000
 ---------------------------------------------------------------------

 SCF Done:  E(RHF) =  -152.080819659     A.U. after   11 cycles
 E2 =    -0.5345204565D+00 EUMP2 =    -0.15261534011569D+03
 CCSD(T)
 CCSD(T)= -0.15264147591D+03

 The electronic state is 1-A'.
 Alpha  occ. eigenvalues --  -20.60754 -20.48694  -1.40320  -1.27400  -0.78684
 Alpha  occ. eigenvalues --   -0.70671  -0.57875  -0.56256  -0.49330  -0.44265
 Alpha virt. eigenvalues --    0.10921   0.16408   0.20887   0.32686   0.48939
 Alpha virt. eigenvalues --    0.52313   0.59589   0.64777   0.71821   0.72722
 Alpha virt. eigenvalues --    0.75745   0.77521   0.79593   0.83913   0.85046

 Mulliken charges:
               1
     1  O   -0.600524
     2  H    0.289008
     3  H    0.208257
     4  O   -0.363970
     5  H    0.231229
     6  H    0.235999
 Sum of Mulliken charges =   0.00000

 Dipole moment (field-independent basis, Debye):
    X=             -2.5141    Y=              4.0610    Z=              0.0000  Tot=              4.7762
 Quadrupole moment (field-independent basis, Debye-Ang):
   XX=            -10.1010   YY=             -9.5770   ZZ=            -14.6116
   XY=              2.5480   XZ=              0.0000   YZ=              0.0000

 Normal termination of Gaussian 16 at Fri Aug 26 17:28:54 2022.
