 Gaussian 16, Revision A.03,
 Gaussian 16:  ES64L-G16RevA.03 25-Dec-2016

 ------------------
 #p CCSD(T)/cc-pVTZ
 ------------------

 ------------
 H2O_H2O_4674
 ------------
 Symbolic Z-matrix:
 Charge =  0 Multiplicity = 1

                         Standard orientation:
 ---------------------------------------------------------------------
 Center     Atomic      Atomic             Coordinates (Angstroms)
 Number     Number       Type             X           Y           Z
 ---------------------------------------------------------------------
      1          8           0       -0.013468    2.956048    0.000000
      2          1           0       -0.011125    1.973450    0.000000
      3          1           0        0.915263    3.276930    0.000000
      4          8           0       -0.013468   -2.796769    0.000000
      5          1           0       -0.996066   -2.799112    0.000000
      6          1           0        0.307414   -3.725500    0.000000
 ---------------------------------------------------------------------

 SCF Done:  E(RHF) =  -152.108331900     A.U. after   10 cycles
 E2 =    -0.5258002540D+00 EUMP2 =    -0.15263413215413D+03
 CCSD(T)
 CCSD(T)= -0.15266133311D+03

 The electronic state is 1-A'.
 Alpha  occ. eigenvalues --  -20.56151 -20.55122  -1.33454  -1.32428  -0.70861
 Alpha  occ. eigenvalues --   -0.69835  -0.56942  -0.55900  -0.50572  -0.49551
 Alpha virt. eigenvalues --    0.13293   0.14809   0.19410   0.21213   0.53484
 Alpha virt. eigenvalues --    0.54855   0.56688   0.57736   0.66939   0.68526
 Alpha virt. eigenvalues --    0.78312   0.79309   0.79635   0.80803   0.82086

 Mulliken charges:
               1
     1  O   -0.513893
     2  H    0.258836
     3  H    0.254994
     4  O   -0.514361
     5  H    0.256636
     6  H    0.257788
 Sum of Mulliken charges =  -0.00000

 Dipole moment (field-independent basis, Debye):
    X=              0.4638    Y=             -2.7901    Z=              0.0000  Tot=              2.8284
 Quadrupole moment (field-independent basis, Debye-Ang):
   XX=             -9.6487   YY=             -7.4084   ZZ=            -14.7144
   XY=              8.0124   XZ=              0.0000   YZ=              0.0000

 Normal termination of Gaussian 16 at Sun Aug 28 04:57:36 2022.
