 Gaussian 16, Revision A.03,
 Gaussian 16:  ES64L-G16RevA.03 25-Dec-2016

 ------------------
 #p CCSD(T)/cc-pVTZ
 ------------------

 ------------
 H2O_H2O_3832
 ------------
 Symbolic Z-matrix:
 Charge =  0 Multiplicity = 1

                         Standard orientation:
 ---------------------------------------------------------------------
 Center     Atomic      Atomic             Coordinates (Angstroms)
 Number     Number       Type             X           Y           Z
 ---------------------------------------------------------------------
      1          8           0        0.073529    2.631136    0.000000
      2          1           0        0.072882    1.648535    0.000000
      3          1           0       -0.855754    2.950414    0.000000
      4          8           0        0.073529   -2.464183   -0.000000
      5          1           0        0.507543   -3.345737   -0.000000
      6          1           0       -0.901133   -2.588842   -0.000000
 ---------------------------------------------------------------------

 SCF Done:  E(RHF) =  -152.108447315     A.U. after   10 cycles
 E2 =    -0.5258669676D+00 EUMP2 =    -0.15263431428247D+03
 CCSD(T)
 CCSD(T)= -0.15266150356D+03

 The electronic state is 1-A'.
 Alpha  occ. eigenvalues --  -20.56346 -20.54920  -1.33644  -1.32228  -0.71053
 Alpha  occ. eigenvalues --   -0.69622  -0.57134  -0.55695  -0.50761  -0.49349
 Alpha virt. eigenvalues --    0.12735   0.15210   0.19418   0.21559   0.53301
 Alpha virt. eigenvalues --    0.55025   0.56503   0.57918   0.66723   0.69088
 Alpha virt. eigenvalues --    0.78138   0.78903   0.79505   0.80462   0.82768

 Mulliken charges:
               1
     1  O   -0.513078
     2  H    0.260877
     3  H    0.251634
     4  O   -0.513653
     5  H    0.259536
     6  H    0.254685
 Sum of Mulliken charges =  -0.00000

 Dipole moment (field-independent basis, Debye):
    X=             -2.5159    Y=             -2.9531    Z=             -0.0000  Tot=              3.8795
 Quadrupole moment (field-independent basis, Debye-Ang):
   XX=             -9.8112   YY=             -7.3183   ZZ=            -14.7148
   XY=             -3.7721   XZ=             -0.0000   YZ=              0.0000

 CCSD(T)=-152.6615036\RMSD=7.163e-09\PG=CS [SG(H4O2)]\\@
 Normal termination of Gaussian 16 at Fri Aug 26 23:56:28 2022.
