 Gaussian 16, Revision A.03,
 Gaussian 16:  ES64L-G16RevA.03 25-Dec-2016

 ------------------
 #p CCSD(T)/cc-pVTZ
 ------------------

 ------------
 H2O_H2O_2353
 ------------
 Symbolic Z-matrix:
 Charge =  0 Multiplicity = 1

                         Standard orientation:
 ---------------------------------------------------------------------
 Center     Atomic      Atomic             Coordinates (Angstroms)
 Number     Number       Type             X           Y           Z
 ---------------------------------------------------------------------
      1          8           0        0.085604   -2.033360    0.000000
      2          1           0        0.085286   -1.050759    0.000000
      3          1           0       -0.843786   -2.352328    0.000000
      4          8           0        0.085604    1.883771    0.000000
      5          1           0        0.276988    2.847554    0.000000
      6          1           0       -0.888155    1.752246    0.000000
 ---------------------------------------------------------------------

 SCF Done:  E(RHF) =  -152.109399424     A.U. after   10 cycles
 E2 =    -0.5263362348D+00 EUMP2 =    -0.15263573565905D+03
 CCSD(T)
 CCSD(T)= -0.15266286833D+03

 The electronic state is 1-A'.
 Alpha  occ. eigenvalues --  -20.57032 -20.54657  -1.34314  -1.31971  -0.71764
 Alpha  occ. eigenvalues --   -0.69334  -0.57831  -0.55421  -0.51426  -0.49092
 Alpha virt. eigenvalues --    0.11703   0.16085   0.19709   0.24381   0.53186
 Alpha virt. eigenvalues --    0.55689   0.56478   0.57882   0.68592   0.71634
 Alpha virt. eigenvalues --    0.77095   0.79414   0.79851   0.80636   0.83344

 Mulliken charges:
               1
     1  O   -0.515953
     2  H    0.264486
     3  H    0.246754
     4  O   -0.504761
     5  H    0.259172
     6  H    0.250302
 Sum of Mulliken charges =  -0.00000

 Dipole moment (field-independent basis, Debye):
    X=             -2.9001    Y=              2.7487    Z=              0.0000  Tot=              3.9957
 Quadrupole moment (field-independent basis, Debye-Ang):
   XX=            -10.4208   YY=             -8.5466   ZZ=            -14.7171
   XY=              2.7129   XZ=              0.0000   YZ=              0.0000

 Normal termination of Gaussian 16 at Sun Aug 28 06:36:16 2022.
