 Gaussian 16, Revision A.03,
 Gaussian 16:  ES64L-G16RevA.03 25-Dec-2016

 ------------------
 #p CCSD(T)/cc-pVTZ
 ------------------

 ------------
 H2O_H2O_2538
 ------------
 Symbolic Z-matrix:
 Charge =  0 Multiplicity = 1

                         Standard orientation:
 ---------------------------------------------------------------------
 Center     Atomic      Atomic             Coordinates (Angstroms)
 Number     Number       Type             X           Y           Z
 ---------------------------------------------------------------------
      1          8           0        0.052315    2.119617   -0.000000
      2          1           0        0.050614    1.137017   -0.000000
      3          1           0       -0.876626    2.439891   -0.000000
      4          8           0        0.052315   -1.939745    0.000000
      5          1           0        0.789951   -2.588896    0.000000
      6          1           0       -0.800974   -2.426987    0.000000
 ---------------------------------------------------------------------

 SCF Done:  E(RHF) =  -152.110741437     A.U. after   10 cycles
 E2 =    -0.5260906066D+00 EUMP2 =    -0.15263683204404D+03
 CCSD(T)
 CCSD(T)= -0.15266394314D+03

 The electronic state is 1-A'.
 Alpha  occ. eigenvalues --  -20.56923 -20.54164  -1.34186  -1.31494  -0.71583
 Alpha  occ. eigenvalues --   -0.68887  -0.57772  -0.54978  -0.51320  -0.48636
 Alpha virt. eigenvalues --    0.12329   0.16380   0.19346   0.23981   0.52716
 Alpha virt. eigenvalues --    0.55624   0.56230   0.58999   0.69028   0.70492
 Alpha virt. eigenvalues --    0.77422   0.78729   0.80205   0.80658   0.83630

 Mulliken charges:
               1
     1  O   -0.522307
     2  H    0.266439
     3  H    0.250066
     4  O   -0.511060
     5  H    0.260469
     6  H    0.256392
 Sum of Mulliken charges =  -0.00000

 Dipole moment (field-independent basis, Debye):
    X=             -1.7778    Y=             -3.2931    Z=              0.0000  Tot=              3.7423
 Quadrupole moment (field-independent basis, Debye-Ang):
   XX=             -9.2280   YY=             -7.5033   ZZ=            -14.7225
   XY=             -4.2424   XZ=              0.0000   YZ=             -0.0000

 Normal termination of Gaussian 16 at Fri Aug 26 15:27:33 2022.
