 Gaussian 16, Revision A.03,
 Gaussian 16:  ES64L-G16RevA.03 25-Dec-2016

 ------------------
 #p CCSD(T)/cc-pVTZ
 ------------------

 -----------
 H2O_H2O_827
 -----------
 Symbolic Z-matrix:
 Charge =  0 Multiplicity = 1

                         Standard orientation:
 ---------------------------------------------------------------------
 Center     Atomic      Atomic             Coordinates (Angstroms)
 Number     Number       Type             X           Y           Z
 ---------------------------------------------------------------------
      1          8           0        0.088240   -1.422199    0.000000
      2          1           0        0.087944   -0.439597    0.000000
      3          1           0       -0.841157   -1.741146    0.000000
      4          8           0        0.088240    1.277901    0.000000
      5          1           0        0.216203    2.252135    0.000000
      6          1           0       -0.874836    1.082993    0.000000
 ---------------------------------------------------------------------

 SCF Done:  E(RHF) =  -152.104738864     A.U. after   10 cycles
 E2 =    -0.5304519798D+00 EUMP2 =    -0.15263519084364D+03
 CCSD(T)
 CCSD(T)= -0.15266202593D+03

 The electronic state is 1-A'.
 Alpha  occ. eigenvalues --  -20.59113 -20.52549  -1.36998  -1.30235  -0.75313
 Alpha  occ. eigenvalues --   -0.68059  -0.59737  -0.53792  -0.53257  -0.47272
 Alpha virt. eigenvalues --    0.11412   0.16530   0.20541   0.31624   0.48253
 Alpha virt. eigenvalues --    0.53005   0.58543   0.61918   0.68860   0.71668
 Alpha virt. eigenvalues --    0.74113   0.78042   0.79669   0.82528   0.83173

 Mulliken charges:
               1
     1  O   -0.548925
     2  H    0.288872
     3  H    0.226739
     4  O   -0.433844
     5  H    0.234452
     6  H    0.232706
 Sum of Mulliken charges =  -0.00000

 Dipole moment (field-independent basis, Debye):
    X=             -2.8825    Y=              3.1629    Z=              0.0000  Tot=              4.2793
 Quadrupole moment (field-independent basis, Debye-Ang):
   XX=            -10.6034   YY=             -9.1386   ZZ=            -14.6822
   XY=              2.3597   XZ=              0.0000   YZ=              0.0000

 Normal termination of Gaussian 16 at Fri Aug 26 20:45:29 2022.
