 Gaussian 16, Revision A.03,
 Gaussian 16:  ES64L-G16RevA.03 25-Dec-2016

 ------------------
 #p CCSD(T)/cc-pVTZ
 ------------------

 ------------
 H2O_H2O_3830
 ------------
 Symbolic Z-matrix:
 Charge =  0 Multiplicity = 1

                         Standard orientation:
 ---------------------------------------------------------------------
 Center     Atomic      Atomic             Coordinates (Angstroms)
 Number     Number       Type             X           Y           Z
 ---------------------------------------------------------------------
      1          8           0        0.079847    2.626854   -0.000000
      2          1           0        0.079411    1.644252   -0.000000
      3          1           0       -0.849504    2.945933   -0.000000
      4          8           0        0.079847   -2.467783    0.000000
      5          1           0        0.395282   -3.398379    0.000000
      6          1           0       -0.902748   -2.464368    0.000000
 ---------------------------------------------------------------------

 SCF Done:  E(RHF) =  -152.108269676     A.U. after   10 cycles
 E2 =    -0.5258809645D+00 EUMP2 =    -0.15263415064061D+03
 CCSD(T)
 CCSD(T)= -0.15266134413D+03

 The electronic state is 1-A'.
 Alpha  occ. eigenvalues --  -20.56350 -20.55004  -1.33648  -1.32311  -0.71061
 Alpha  occ. eigenvalues --   -0.69704  -0.57130  -0.55774  -0.50763  -0.49430
 Alpha virt. eigenvalues --    0.12585   0.15175   0.19291   0.21703   0.53229
 Alpha virt. eigenvalues --    0.55036   0.56491   0.57929   0.66733   0.69020
 Alpha virt. eigenvalues --    0.78136   0.78885   0.79429   0.80782   0.82671

 Mulliken charges:
               1
     1  O   -0.512144
     2  H    0.260199
     3  H    0.251438
     4  O   -0.512839
     5  H    0.259483
     6  H    0.253864
 Sum of Mulliken charges =   0.00000

 Dipole moment (field-independent basis, Debye):
    X=             -2.7319    Y=             -2.8129    Z=              0.0000  Tot=              3.9212
 Quadrupole moment (field-independent basis, Debye-Ang):
   XX=            -10.0966   YY=             -7.7355   ZZ=            -14.7141
   XY=             -3.3315   XZ=              0.0000   YZ=             -0.0000

 Normal termination of Gaussian 16 at Fri Aug 26 23:55:47 2022.
