 Gaussian 16, Revision A.03,
 Gaussian 16:  ES64L-G16RevA.03 25-Dec-2016

 ------------------
 #p CCSD(T)/cc-pVTZ
 ------------------

 ------------
 H2O_H2O_1791
 ------------
 Symbolic Z-matrix:
 Charge =  0 Multiplicity = 1

                         Standard orientation:
 ---------------------------------------------------------------------
 Center     Atomic      Atomic             Coordinates (Angstroms)
 Number     Number       Type             X           Y           Z
 ---------------------------------------------------------------------
      1          8           0        0.041195    1.820464    0.000000
      2          1           0        0.038654    0.837866    0.000000
      3          1           0       -0.887470    2.141533   -0.000000
      4          8           0        0.041195   -1.640590    0.000000
      5          1           0        0.890880   -2.134090    0.000000
      6          1           0       -0.701191   -2.284304   -0.000000
 ---------------------------------------------------------------------

 SCF Done:  E(RHF) =  -152.113116107     A.U. after   10 cycles
 E2 =    -0.5266392879D+00 EUMP2 =    -0.15263975539468D+03
 CCSD(T)
 CCSD(T)= -0.15266679413D+03

 The electronic state is 1-A'.
 Alpha  occ. eigenvalues --  -20.57579 -20.53393  -1.34835  -1.30780  -0.72204
 Alpha  occ. eigenvalues --   -0.68267  -0.58595  -0.54206  -0.51975  -0.47936
 Alpha virt. eigenvalues --    0.12182   0.17291   0.19064   0.27369   0.51087
 Alpha virt. eigenvalues --    0.54651   0.56317   0.59199   0.69062   0.72383
 Alpha virt. eigenvalues --    0.75492   0.77125   0.81038   0.83291   0.84600

 Mulliken charges:
               1
     1  O   -0.534628
     2  H    0.271889
     3  H    0.248744
     4  O   -0.507918
     5  H    0.263397
     6  H    0.258515
 Sum of Mulliken charges =  -0.00000

 Dipole moment (field-independent basis, Debye):
    X=             -1.3894    Y=             -3.4365    Z=             -0.0000  Tot=              3.7067
 Quadrupole moment (field-independent basis, Debye-Ang):
   XX=             -9.1523   YY=             -8.0353   ZZ=            -14.7325
   XY=             -4.0639   XZ=              0.0000   YZ=             -0.0000

 Normal termination of Gaussian 16 at Sun Aug 28 01:36:39 2022.
