 Gaussian 16, Revision A.03,
 Gaussian 16:  ES64L-G16RevA.03 25-Dec-2016

 ------------------
 #p CCSD(T)/cc-pVTZ
 ------------------

 ------------
 H2O_H2O_4282
 ------------
 Symbolic Z-matrix:
 Charge =  0 Multiplicity = 1

                         Standard orientation:
 ---------------------------------------------------------------------
 Center     Atomic      Atomic             Coordinates (Angstroms)
 Number     Number       Type             X           Y           Z
 ---------------------------------------------------------------------
      1          8           0        0.073525    2.810634    0.000000
      2          1           0        0.072921    1.828033    0.000000
      3          1           0       -0.855772    3.129872    0.000000
      4          8           0        0.073525   -2.643674   -0.000000
      5          1           0        0.507577   -3.525209   -0.000000
      6          1           0       -0.901132   -2.768375   -0.000000
 ---------------------------------------------------------------------

 SCF Done:  E(RHF) =  -152.108203903     A.U. after   10 cycles
 E2 =    -0.5258419217D+00 EUMP2 =    -0.15263404582506D+03
 CCSD(T)
 CCSD(T)= -0.15266124575D+03

 The electronic state is 1-A'.
 Alpha  occ. eigenvalues --  -20.56238 -20.55023  -1.33538  -1.32329  -0.70947
 Alpha  occ. eigenvalues --   -0.69725  -0.57021  -0.55793  -0.50654  -0.49448
 Alpha virt. eigenvalues --    0.13071   0.14952   0.19465   0.21238   0.53402
 Alpha virt. eigenvalues --    0.54921   0.56585   0.57799   0.66766   0.68808
 Alpha virt. eigenvalues --    0.78237   0.79303   0.79412   0.80561   0.82619

 Mulliken charges:
               1
     1  O   -0.512372
     2  H    0.259970
     3  H    0.252207
     4  O   -0.513351
     5  H    0.258871
     6  H    0.254675
 Sum of Mulliken charges =  -0.00000

 Dipole moment (field-independent basis, Debye):
    X=             -2.5197    Y=             -2.9367    Z=             -0.0000  Tot=              3.8695
 Quadrupole moment (field-independent basis, Debye-Ang):
   XX=             -9.8096   YY=             -7.1143   ZZ=            -14.7140
   XY=             -3.8942   XZ=             -0.0000   YZ=             -0.0000

 Normal termination of Gaussian 16 at Sun Aug 28 01:27:57 2022.
