 Gaussian 16, Revision A.03,
 Gaussian 16:  ES64L-G16RevA.03 25-Dec-2016

 ------------------
 #p CCSD(T)/cc-pVTZ
 ------------------

 ------------
 H2O_H2O_3571
 ------------
 Symbolic Z-matrix:
 Charge =  0 Multiplicity = 1

                         Standard orientation:
 ---------------------------------------------------------------------
 Center     Atomic      Atomic             Coordinates (Angstroms)
 Number     Number       Type             X           Y           Z
 ---------------------------------------------------------------------
      1          8           0       -0.023193    2.523321    0.000000
      2          1           0       -0.020765    1.540723    0.000000
      3          1           0        0.905510    2.844283    0.000000
      4          8           0       -0.023193   -2.352926    0.000000
      5          1           0       -0.986438   -2.547002    0.000000
      6          1           0        0.472783   -3.201168    0.000000
 ---------------------------------------------------------------------

 SCF Done:  E(RHF) =  -152.109159219     A.U. after   10 cycles
 E2 =    -0.5258376238D+00 EUMP2 =    -0.15263499684236D+03
 CCSD(T)
 CCSD(T)= -0.15266216774D+03

 The electronic state is 1-A'.
 Alpha  occ. eigenvalues --  -20.56406 -20.54764  -1.33701  -1.32078  -0.71105
 Alpha  occ. eigenvalues --   -0.69482  -0.57219  -0.55562  -0.50825  -0.49209
 Alpha virt. eigenvalues --    0.12686   0.15479   0.19398   0.21948   0.53325
 Alpha virt. eigenvalues --    0.55248   0.56548   0.57953   0.66915   0.69261
 Alpha virt. eigenvalues --    0.78076   0.78787   0.79632   0.80292   0.82953

 Mulliken charges:
               1
     1  O   -0.517113
     2  H    0.261852
     3  H    0.254218
     4  O   -0.516147
     5  H    0.258558
     6  H    0.258632
 Sum of Mulliken charges =   0.00000

 Dipole moment (field-independent basis, Debye):
    X=              0.7946    Y=             -3.0265    Z=              0.0000  Tot=              3.1290
 Quadrupole moment (field-independent basis, Debye-Ang):
   XX=             -9.3613   YY=             -7.2597   ZZ=            -14.7174
   XY=              6.2308   XZ=              0.0000   YZ=              0.0000

 CCSD(T)=-152.6621677\RMSD=7.001e-09\PG=CS [SG(H4O2)]\\@
 Normal termination of Gaussian 16 at Fri Aug 26 22:27:16 2022.
