 Gaussian 16, Revision A.03,
 Gaussian 16:  ES64L-G16RevA.03 25-Dec-2016

 ------------------
 #p CCSD(T)/cc-pVTZ
 ------------------

 ------------
 H2O_H2O_4538
 ------------
 Symbolic Z-matrix:
 Charge =  0 Multiplicity = 1

                         Standard orientation:
 ---------------------------------------------------------------------
 Center     Atomic      Atomic             Coordinates (Angstroms)
 Number     Number       Type             X           Y           Z
 ---------------------------------------------------------------------
      1          8           0        0.052271    2.917396   -0.000000
      2          1           0        0.051050    1.934795   -0.000000
      3          1           0       -0.876826    3.237217   -0.000000
      4          8           0        0.052271   -2.737473    0.000000
      5          1           0        0.790224   -3.386264    0.000000
      6          1           0       -0.800780   -3.225132    0.000000
 ---------------------------------------------------------------------

 SCF Done:  E(RHF) =  -152.108371599     A.U. after   10 cycles
 E2 =    -0.5258115040D+00 EUMP2 =    -0.15263418310334D+03
 CCSD(T)
 CCSD(T)= -0.15266138132D+03

 The electronic state is 1-A'.
 Alpha  occ. eigenvalues --  -20.56180 -20.54956  -1.33481  -1.32263  -0.70886
 Alpha  occ. eigenvalues --   -0.69663  -0.56973  -0.55733  -0.50600  -0.49385
 Alpha virt. eigenvalues --    0.13376   0.14912   0.19698   0.21025   0.53659
 Alpha virt. eigenvalues --    0.54845   0.56664   0.57793   0.66856   0.68735
 Alpha virt. eigenvalues --    0.78287   0.79471   0.79670   0.80174   0.82650

 Mulliken charges:
               1
     1  O   -0.513611
     2  H    0.260363
     3  H    0.253131
     4  O   -0.514386
     5  H    0.258316
     6  H    0.256187
 Sum of Mulliken charges =  -0.00000

 Dipole moment (field-independent basis, Debye):
    X=             -1.7927    Y=             -3.1575    Z=              0.0000  Tot=              3.6309
 Quadrupole moment (field-independent basis, Debye-Ang):
   XX=             -9.2250   YY=             -6.2213   ZZ=            -14.7147
   XY=             -5.3677   XZ=              0.0000   YZ=             -0.0000

 Normal termination of Gaussian 16 at Sun Aug 28 03:42:24 2022.
