 Gaussian 16, Revision A.03,
 Gaussian 16:  ES64L-G16RevA.03 25-Dec-2016

 ------------------
 #p CCSD(T)/cc-pVTZ
 ------------------

 ------------
 H2O_H2O_1530
 ------------
 Symbolic Z-matrix:
 Charge =  0 Multiplicity = 1

                         Standard orientation:
 ---------------------------------------------------------------------
 Center     Atomic      Atomic             Coordinates (Angstroms)
 Number     Number       Type             X           Y           Z
 ---------------------------------------------------------------------
      1          8           0        0.079867   -1.709416    0.000000
      2          1           0        0.079185   -0.726814    0.000000
      3          1           0       -0.849404   -2.028727    0.000000
      4          8           0        0.079867    1.550385    0.000000
      5          1           0        0.395068    2.481060    0.000000
      6          1           0       -0.902727    1.546725    0.000000
 ---------------------------------------------------------------------

 SCF Done:  E(RHF) =  -152.111410007     A.U. after   10 cycles
 E2 =    -0.5273078374D+00 EUMP2 =    -0.15263871784464D+03
 CCSD(T)
 CCSD(T)= -0.15266575997D+03

 The electronic state is 1-A'.
 Alpha  occ. eigenvalues --  -20.57867 -20.53695  -1.35187  -1.31086  -0.72699
 Alpha  occ. eigenvalues --   -0.68524  -0.58825  -0.54444  -0.52281  -0.48208
 Alpha virt. eigenvalues --    0.11738   0.16712   0.19738   0.28121   0.49807
 Alpha virt. eigenvalues --    0.55148   0.57328   0.58271   0.69273   0.74300
 Alpha virt. eigenvalues --    0.74394   0.77236   0.80998   0.82650   0.83859

 Mulliken charges:
               1
     1  O   -0.529447
     2  H    0.274839
     3  H    0.241057
     4  O   -0.491897
     5  H    0.254609
     6  H    0.250840
 Sum of Mulliken charges =  -0.00000

 Dipole moment (field-independent basis, Debye):
    X=             -2.6731    Y=              3.0984    Z=              0.0000  Tot=              4.0922
 Quadrupole moment (field-independent basis, Debye-Ang):
   XX=            -10.1326   YY=             -8.5539   ZZ=            -14.7230
   XY=              2.8959   XZ=              0.0000   YZ=              0.0000

 Normal termination of Gaussian 16 at Sat Aug 27 01:09:54 2022.
