 Gaussian 16, Revision A.03,
 Gaussian 16:  ES64L-G16RevA.03 25-Dec-2016

 ------------------
 #p CCSD(T)/cc-pVTZ
 ------------------

 ------------
 H2O_H2O_4681
 ------------
 Symbolic Z-matrix:
 Charge =  0 Multiplicity = 1

                         Standard orientation:
 ---------------------------------------------------------------------
 Center     Atomic      Atomic             Coordinates (Angstroms)
 Number     Number       Type             X           Y           Z
 ---------------------------------------------------------------------
      1          8           0        0.076747    2.968158    0.000000
      2          1           0        0.076271    1.985556    0.000000
      3          1           0       -0.852591    3.287275   -0.000000
      4          8           0        0.076747   -2.804929    0.000000
      5          1           0        0.452333   -3.712916    0.000000
      6          1           0       -0.903971   -2.865746   -0.000000
 ---------------------------------------------------------------------

 SCF Done:  E(RHF) =  -152.107999212     A.U. after   10 cycles
 E2 =    -0.5258382136D+00 EUMP2 =    -0.15263383742578D+03
 CCSD(T)
 CCSD(T)= -0.15266104423D+03

 The electronic state is 1-A'.
 Alpha  occ. eigenvalues --  -20.56166 -20.55127  -1.33468  -1.32431  -0.70878
 Alpha  occ. eigenvalues --   -0.69829  -0.56943  -0.55891  -0.50583  -0.49548
 Alpha virt. eigenvalues --    0.13281   0.14750   0.19478   0.21053   0.53517
 Alpha virt. eigenvalues --    0.54818   0.56637   0.57714   0.66966   0.68536
 Alpha virt. eigenvalues --    0.78304   0.79317   0.79601   0.80716   0.82173

 Mulliken charges:
               1
     1  O   -0.511566
     2  H    0.258983
     3  H    0.252521
     4  O   -0.512491
     5  H    0.258222
     6  H    0.254330
 Sum of Mulliken charges =  -0.00000

 Dipole moment (field-independent basis, Debye):
    X=             -2.6330    Y=             -2.8608    Z=             -0.0000  Tot=              3.8881
 Quadrupole moment (field-independent basis, Debye-Ang):
   XX=             -9.9476   YY=             -7.1707   ZZ=            -14.7133
   XY=             -3.7475   XZ=              0.0000   YZ=             -0.0000

 Normal termination of Gaussian 16 at Sun Aug 28 05:02:38 2022.
