 Gaussian 16, Revision A.03,
 Gaussian 16:  ES64L-G16RevA.03 25-Dec-2016

 ------------------
 #p CCSD(T)/cc-pVTZ
 ------------------

 ------------
 H2O_H2O_2296
 ------------
 Symbolic Z-matrix:
 Charge =  0 Multiplicity = 1

                         Standard orientation:
 ---------------------------------------------------------------------
 Center     Atomic      Atomic             Coordinates (Angstroms)
 Number     Number       Type             X           Y           Z
 ---------------------------------------------------------------------
      1          8           0       -0.023249    2.014740    0.000000
      2          1           0       -0.020181    1.032143    0.000000
      3          1           0        0.905245    2.336306    0.000000
      4          8           0       -0.023249   -1.844374    0.000000
      5          1           0       -0.986366   -2.039078    0.000000
      6          1           0        0.473280   -2.692293    0.000000
 ---------------------------------------------------------------------

 SCF Done:  E(RHF) =  -152.111402515     A.U. after   10 cycles
 E2 =    -0.5261771760D+00 EUMP2 =    -0.15263757969147D+03
 CCSD(T)
 CCSD(T)= -0.15266467291D+03

 The electronic state is 1-A'.
 Alpha  occ. eigenvalues --  -20.57067 -20.54101  -1.34333  -1.31440  -0.71737
 Alpha  occ. eigenvalues --   -0.68854  -0.57958  -0.54924  -0.51468  -0.48591
 Alpha virt. eigenvalues --    0.12260   0.16644   0.19240   0.25028   0.53157
 Alpha virt. eigenvalues --    0.55214   0.56275   0.58661   0.68895   0.71677
 Alpha virt. eigenvalues --    0.77002   0.78800   0.80296   0.82460   0.83619

 Mulliken charges:
               1
     1  O   -0.526936
     2  H    0.266477
     3  H    0.253086
     4  O   -0.511063
     5  H    0.260490
     6  H    0.257946
 Sum of Mulliken charges =  -0.00000

 Dipole moment (field-independent basis, Debye):
    X=              0.7926    Y=             -3.1495    Z=              0.0000  Tot=              3.2477
 Quadrupole moment (field-independent basis, Debye-Ang):
   XX=             -9.3620   YY=             -7.9122   ZZ=            -14.7248
   XY=              5.0054   XZ=              0.0000   YZ=              0.0000

 Normal termination of Gaussian 16 at Sun Aug 28 06:06:50 2022.
