 Gaussian 16, Revision A.03,
 Gaussian 16:  ES64L-G16RevA.03 25-Dec-2016

 ------------------
 #p CCSD(T)/cc-pVTZ
 ------------------

 -----------
 H2O_H2O_160
 -----------
 Symbolic Z-matrix:
 Charge =  0 Multiplicity = 1

                         Standard orientation:
 ---------------------------------------------------------------------
 Center     Atomic      Atomic             Coordinates (Angstroms)
 Number     Number       Type             X           Y           Z
 ---------------------------------------------------------------------
      1          8           0        0.063345    1.169833    0.000000
      2          1           0        0.061014    0.187235    0.000000
      3          1           0       -0.865390    1.490703   -0.000000
      4          8           0        0.063345   -0.994482    0.000000
      5          1           0        0.659665   -1.775449    0.000000
      6          1           0       -0.868803   -1.305297   -0.000000
 ---------------------------------------------------------------------

 SCF Done:  E(RHF) =  -152.061205742     A.U. after   11 cycles
 E2 =    -0.5353902029D+00 EUMP2 =    -0.15259659594486D+03
 CCSD(T)
 CCSD(T)= -0.15262234481D+03

 The electronic state is 1-A'.
 Alpha  occ. eigenvalues --  -20.61613 -20.45749  -1.42295  -1.25417  -0.79079
 Alpha  occ. eigenvalues --   -0.75035  -0.57711  -0.55687  -0.46155  -0.42060
 Alpha virt. eigenvalues --    0.10551   0.16394   0.21054   0.32749   0.48199
 Alpha virt. eigenvalues --    0.52187   0.61504   0.64054   0.71304   0.71622
 Alpha virt. eigenvalues --    0.78741   0.78942   0.81213   0.83297   0.86051

 Mulliken charges:
               1
     1  O   -0.644423
     2  H    0.294061
     3  H    0.202686
     4  O   -0.337125
     5  H    0.241488
     6  H    0.243312
 Sum of Mulliken charges =  -0.00000

 Dipole moment (field-independent basis, Debye):
    X=             -1.9411    Y=             -4.7583    Z=             -0.0000  Tot=              5.1390
 Quadrupole moment (field-independent basis, Debye-Ang):
   XX=             -9.4265   YY=             -9.9809   ZZ=            -14.5821
   XY=             -2.7065   XZ=             -0.0000   YZ=             -0.0000

 Normal termination of Gaussian 16 at Fri Aug 26 16:16:51 2022.
