 Gaussian 16, Revision A.03,
 Gaussian 16:  ES64L-G16RevA.03 25-Dec-2016

 ------------------
 #p CCSD(T)/cc-pVTZ
 ------------------

 ------------
 H2O_H2O_3163
 ------------
 Symbolic Z-matrix:
 Charge =  0 Multiplicity = 1

                         Standard orientation:
 ---------------------------------------------------------------------
 Center     Atomic      Atomic             Coordinates (Angstroms)
 Number     Number       Type             X           Y           Z
 ---------------------------------------------------------------------
      1          8           0        0.052297    2.368925    0.000000
      2          1           0        0.050783    1.386324    0.000000
      3          1           0       -0.876703    2.689023    0.000000
      4          8           0        0.052297   -2.189033   -0.000000
      5          1           0        0.790058   -2.838044   -0.000000
      6          1           0       -0.800898   -2.676437   -0.000000
 ---------------------------------------------------------------------

 SCF Done:  E(RHF) =  -152.109575263     A.U. after   10 cycles
 E2 =    -0.5259136912D+00 EUMP2 =    -0.15263548895430D+03
 CCSD(T)
 CCSD(T)= -0.15266264062D+03

 The electronic state is 1-A'.
 Alpha  occ. eigenvalues --  -20.56578 -20.54519  -1.33860  -1.31837  -0.71262
 Alpha  occ. eigenvalues --   -0.69230  -0.57393  -0.55321  -0.50987  -0.48970
 Alpha virt. eigenvalues --    0.12566   0.15794   0.19494   0.22329   0.53280
 Alpha virt. eigenvalues --    0.55303   0.56379   0.58382   0.67763   0.69351
 Alpha virt. eigenvalues --    0.77917   0.79060   0.79361   0.79861   0.83168

 Mulliken charges:
               1
     1  O   -0.517810
     2  H    0.263890
     3  H    0.251587
     4  O   -0.514486
     5  H    0.260088
     6  H    0.256731
 Sum of Mulliken charges =  -0.00000

 Dipole moment (field-independent basis, Debye):
    X=             -1.7844    Y=             -3.2264    Z=             -0.0000  Tot=              3.6870
 Quadrupole moment (field-independent basis, Debye-Ang):
   XX=             -9.2262   YY=             -7.0982   ZZ=            -14.7189
   XY=             -4.5945   XZ=             -0.0000   YZ=              0.0000

 Normal termination of Gaussian 16 at Fri Aug 26 20:09:31 2022.
