 Gaussian 16, Revision A.03,
 Gaussian 16:  ES64L-G16RevA.03 25-Dec-2016

 ------------------
 #p CCSD(T)/cc-pVTZ
 ------------------

 ------------
 H2O_H2O_2390
 ------------
 Symbolic Z-matrix:
 Charge =  0 Multiplicity = 1

                         Standard orientation:
 ---------------------------------------------------------------------
 Center     Atomic      Atomic             Coordinates (Angstroms)
 Number     Number       Type             X           Y           Z
 ---------------------------------------------------------------------
      1          8           0        0.044883    2.060060    0.000000
      2          1           0        0.042810    1.077461    0.000000
      3          1           0       -0.883936    2.380686    0.000000
      4          8           0        0.044883   -1.879685    0.000000
      5          1           0        0.860733   -2.427311    0.000000
      6          1           0       -0.737732   -2.473839    0.000000
 ---------------------------------------------------------------------

 SCF Done:  E(RHF) =  -152.111237800     A.U. after   10 cycles
 E2 =    -0.5261436903D+00 EUMP2 =    -0.15263738149075D+03
 CCSD(T)
 CCSD(T)= -0.15266447902D+03

 The electronic state is 1-A'.
 Alpha  occ. eigenvalues --  -20.57025 -20.54030  -1.34283  -1.31367  -0.71675
 Alpha  occ. eigenvalues --   -0.68767  -0.57899  -0.54851  -0.51421  -0.48513
 Alpha virt. eigenvalues --    0.12322   0.16570   0.19287   0.24561   0.52483
 Alpha virt. eigenvalues --    0.55484   0.56371   0.58987   0.69042   0.71219
 Alpha virt. eigenvalues --    0.77196   0.78454   0.80338   0.81655   0.83652

 Mulliken charges:
               1
     1  O   -0.524695
     2  H    0.267169
     3  H    0.250402
     4  O   -0.510548
     5  H    0.260772
     6  H    0.256899
 Sum of Mulliken charges =  -0.00000

 Dipole moment (field-independent basis, Debye):
    X=             -1.5238    Y=             -3.3242    Z=             -0.0000  Tot=              3.6568
 Quadrupole moment (field-independent basis, Debye-Ang):
   XX=             -9.1583   YY=             -7.5889   ZZ=            -14.7243
   XY=             -4.3850   XZ=              0.0000   YZ=             -0.0000

 Normal termination of Gaussian 16 at Sun Aug 28 06:51:22 2022.
