 Gaussian 16, Revision A.03,
 Gaussian 16:  ES64L-G16RevA.03 25-Dec-2016

 ------------------
 #p CCSD(T)/cc-pVTZ
 ------------------

 ------------
 H2O_H2O_1479
 ------------
 Symbolic Z-matrix:
 Charge =  0 Multiplicity = 1

                         Standard orientation:
 ---------------------------------------------------------------------
 Center     Atomic      Atomic             Coordinates (Angstroms)
 Number     Number       Type             X           Y           Z
 ---------------------------------------------------------------------
      1          8           0        0.082816   -1.687006    0.000000
      2          1           0        0.082281   -0.704405    0.000000
      3          1           0       -0.846504   -2.006179    0.000000
      4          8           0        0.082816    1.532515    0.000000
      5          1           0        0.336616    2.481773    0.000000
      6          1           0       -0.897446    1.464743    0.000000
 ---------------------------------------------------------------------

 SCF Done:  E(RHF) =  -152.110994966     A.U. after   10 cycles
 E2 =    -0.5274729489D+00 EUMP2 =    -0.15263846791445D+03
 CCSD(T)
 CCSD(T)= -0.15266551150D+03

 The electronic state is 1-A'.
 Alpha  occ. eigenvalues --  -20.57927 -20.53762  -1.35266  -1.31155  -0.72832
 Alpha  occ. eigenvalues --   -0.68568  -0.58874  -0.54502  -0.52347  -0.48271
 Alpha virt. eigenvalues --    0.11676   0.16633   0.19886   0.28301   0.49692
 Alpha virt. eigenvalues --    0.55002   0.57656   0.58140   0.69031   0.74026
 Alpha virt. eigenvalues --    0.74653   0.77277   0.80991   0.82427   0.83750

 Mulliken charges:
               1
     1  O   -0.529061
     2  H    0.275478
     3  H    0.240138
     4  O   -0.487221
     5  H    0.251732
     6  H    0.248934
 Sum of Mulliken charges =  -0.00000

 Dipole moment (field-independent basis, Debye):
    X=             -2.7675    Y=              3.0247    Z=              0.0000  Tot=              4.0998
 Quadrupole moment (field-independent basis, Debye-Ang):
   XX=            -10.2879   YY=             -8.6612   ZZ=            -14.7202
   XY=              2.7504   XZ=              0.0000   YZ=              0.0000

 Normal termination of Gaussian 16 at Sat Aug 27 00:50:11 2022.
