 Gaussian 16, Revision A.03,
 Gaussian 16:  ES64L-G16RevA.03 25-Dec-2016

 ------------------
 #p CCSD(T)/cc-pVTZ
 ------------------

 -----------
 H2O_H2O_226
 -----------
 Symbolic Z-matrix:
 Charge =  0 Multiplicity = 1

                         Standard orientation:
 ---------------------------------------------------------------------
 Center     Atomic      Atomic             Coordinates (Angstroms)
 Number     Number       Type             X           Y           Z
 ---------------------------------------------------------------------
      1          8           0        0.090691   -1.179827    0.000000
      2          1           0        0.090518   -0.197226    0.000000
      3          1           0       -0.838746   -1.498657    0.000000
      4          8           0        0.090691    1.041135    0.000000
      5          1           0        0.154783    2.021644    0.000000
      6          1           0       -0.857609    0.783776    0.000000
 ---------------------------------------------------------------------

 SCF Done:  E(RHF) =  -152.058261622     A.U. after   11 cycles
 E2 =    -0.5369469183D+00 EUMP2 =    -0.15259520854069D+03
 CCSD(T)
 CCSD(T)= -0.15262116243D+03

 The electronic state is 1-A'.
 Alpha  occ. eigenvalues --  -20.60992 -20.48895  -1.41879  -1.27720  -0.81532
 Alpha  occ. eigenvalues --   -0.69474  -0.57901  -0.56883  -0.49636  -0.44585
 Alpha virt. eigenvalues --    0.10907   0.16071   0.21534   0.32031   0.49203
 Alpha virt. eigenvalues --    0.51012   0.59601   0.66729   0.71343   0.72777
 Alpha virt. eigenvalues --    0.75663   0.76944   0.79443   0.83312   0.85332

 Mulliken charges:
               1
     1  O   -0.585801
     2  H    0.268137
     3  H    0.197119
     4  O   -0.339773
     5  H    0.226595
     6  H    0.233723
 Sum of Mulliken charges =  -0.00000

 Dipole moment (field-independent basis, Debye):
    X=             -2.8518    Y=              3.7736    Z=              0.0000  Tot=              4.7300
 Quadrupole moment (field-independent basis, Debye-Ang):
   XX=            -10.6850   YY=             -9.7645   ZZ=            -14.5611
   XY=              2.0747   XZ=              0.0000   YZ=              0.0000

 Normal termination of Gaussian 16 at Fri Aug 26 16:44:44 2022.
