 Gaussian 16, Revision A.03,
 Gaussian 16:  ES64L-G16RevA.03 25-Dec-2016

 ------------------
 #p CCSD(T)/cc-pVTZ
 ------------------

 ------------
 H2O_H2O_2985
 ------------
 Symbolic Z-matrix:
 Charge =  0 Multiplicity = 1

                         Standard orientation:
 ---------------------------------------------------------------------
 Center     Atomic      Atomic             Coordinates (Angstroms)
 Number     Number       Type             X           Y           Z
 ---------------------------------------------------------------------
      1          8           0        0.063239    2.296737   -0.000000
      2          1           0        0.062097    1.314136   -0.000000
      3          1           0       -0.865884    2.616483   -0.000000
      4          8           0        0.063239   -2.121233    0.000000
      5          1           0        0.660503   -2.901477    0.000000
      6          1           0       -0.868533   -2.433174    0.000000
 ---------------------------------------------------------------------

 SCF Done:  E(RHF) =  -152.109606961     A.U. after   10 cycles
 E2 =    -0.5259720744D+00 EUMP2 =    -0.15263557903555D+03
 CCSD(T)
 CCSD(T)= -0.15266272525D+03

 The electronic state is 1-A'.
 Alpha  occ. eigenvalues --  -20.56663 -20.54508  -1.33943  -1.31826  -0.71348
 Alpha  occ. eigenvalues --   -0.69214  -0.57474  -0.55306  -0.51069  -0.48957
 Alpha virt. eigenvalues --    0.12383   0.15893   0.19446   0.22680   0.53348
 Alpha virt. eigenvalues --    0.55368   0.56286   0.58588   0.68243   0.69334
 Alpha virt. eigenvalues --    0.77823   0.78990   0.79701   0.79878   0.83168

 Mulliken charges:
               1
     1  O   -0.517477
     2  H    0.264101
     3  H    0.250453
     4  O   -0.512859
     5  H    0.260163
     6  H    0.255619
 Sum of Mulliken charges =  -0.00000

 Dipole moment (field-independent basis, Debye):
    X=             -2.1553    Y=             -3.1620    Z=              0.0000  Tot=              3.8266
 Quadrupole moment (field-independent basis, Debye-Ang):
   XX=             -9.4582   YY=             -7.3710   ZZ=            -14.7188
   XY=             -4.0422   XZ=              0.0000   YZ=             -0.0000

 Normal termination of Gaussian 16 at Fri Aug 26 19:00:43 2022.
