 Gaussian 16, Revision A.03,
 Gaussian 16:  ES64L-G16RevA.03 25-Dec-2016

 ------------------
 #p CCSD(T)/cc-pVTZ
 ------------------

 ------------
 H2O_H2O_1527
 ------------
 Symbolic Z-matrix:
 Charge =  0 Multiplicity = 1

                         Standard orientation:
 ---------------------------------------------------------------------
 Center     Atomic      Atomic             Coordinates (Angstroms)
 Number     Number       Type             X           Y           Z
 ---------------------------------------------------------------------
      1          8           0        0.088237   -1.701417    0.000000
      2          1           0        0.087991   -0.718816    0.000000
      3          1           0       -0.841177   -2.020316    0.000000
      4          8           0        0.088237    1.557110    0.000000
      5          1           0        0.216249    2.531338    0.000000
      6          1           0       -0.874850    1.362252    0.000000
 ---------------------------------------------------------------------

 SCF Done:  E(RHF) =  -152.109981613     A.U. after   10 cycles
 E2 =    -0.5274726235D+00 EUMP2 =    -0.15263745423607D+03
 CCSD(T)
 CCSD(T)= -0.15266452760D+03

 The electronic state is 1-A'.
 Alpha  occ. eigenvalues --  -20.57840 -20.54147  -1.35185  -1.31513  -0.72831
 Alpha  occ. eigenvalues --   -0.68823  -0.58732  -0.54877  -0.52255  -0.48620
 Alpha virt. eigenvalues --    0.11576   0.16432   0.20171   0.27813   0.49988
 Alpha virt. eigenvalues --    0.54793   0.57736   0.57913   0.68365   0.74083
 Alpha virt. eigenvalues --    0.74658   0.77638   0.80692   0.82213   0.83503

 Mulliken charges:
               1
     1  O   -0.524076
     2  H    0.273176
     3  H    0.240165
     4  O   -0.485726
     5  H    0.251056
     6  H    0.245405
 Sum of Mulliken charges =  -0.00000

 Dipole moment (field-independent basis, Debye):
    X=             -2.9500    Y=              2.8071    Z=              0.0000  Tot=              4.0721
 Quadrupole moment (field-independent basis, Debye-Ang):
   XX=            -10.5981   YY=             -8.8598   ZZ=            -14.7156
   XY=              2.4561   XZ=              0.0000   YZ=              0.0000

 Normal termination of Gaussian 16 at Sat Aug 27 01:08:45 2022.
