 Gaussian 16, Revision A.03,
 Gaussian 16:  ES64L-G16RevA.03 25-Dec-2016

 ------------------
 #p CCSD(T)/cc-pVTZ
 ------------------

 ------------
 H2O_H2O_2741
 ------------
 Symbolic Z-matrix:
 Charge =  0 Multiplicity = 1

                         Standard orientation:
 ---------------------------------------------------------------------
 Center     Atomic      Atomic             Coordinates (Angstroms)
 Number     Number       Type             X           Y           Z
 ---------------------------------------------------------------------
      1          8           0        0.041154    2.199416   -0.000000
      2          1           0        0.039069    1.216816   -0.000000
      3          1           0       -0.887661    2.520054   -0.000000
      4          8           0        0.041154   -2.019503    0.000000
      5          1           0        0.891067   -2.512608    0.000000
      6          1           0       -0.700935   -2.663561    0.000000
 ---------------------------------------------------------------------

 SCF Done:  E(RHF) =  -152.110445501     A.U. after   10 cycles
 E2 =    -0.5259981328D+00 EUMP2 =    -0.15263644363370D+03
 CCSD(T)
 CCSD(T)= -0.15266356706D+03

 The electronic state is 1-A'.
 Alpha  occ. eigenvalues --  -20.56789 -20.54280  -1.34059  -1.31606  -0.71456
 Alpha  occ. eigenvalues --   -0.69003  -0.57630  -0.55097  -0.51192  -0.48747
 Alpha virt. eigenvalues --    0.12424   0.16210   0.19382   0.23390   0.52985
 Alpha virt. eigenvalues --    0.55587   0.56350   0.58816   0.69043   0.69607
 Alpha virt. eigenvalues --    0.77647   0.79002   0.79846   0.80081   0.83455

 Mulliken charges:
               1
     1  O   -0.521626
     2  H    0.265540
     3  H    0.251670
     4  O   -0.513184
     5  H    0.260294
     6  H    0.257306
 Sum of Mulliken charges =  -0.00000

 Dipole moment (field-independent basis, Debye):
    X=             -1.4011    Y=             -3.2683    Z=              0.0000  Tot=              3.5560
 Quadrupole moment (field-independent basis, Debye-Ang):
   XX=             -9.1494   YY=             -7.3669   ZZ=            -14.7216
   XY=             -4.7489   XZ=              0.0000   YZ=             -0.0000

 Normal termination of Gaussian 16 at Fri Aug 26 16:57:32 2022.
