 Gaussian 16, Revision A.03,
 Gaussian 16:  ES64L-G16RevA.03 25-Dec-2016

 ------------------
 #p CCSD(T)/cc-pVTZ
 ------------------

 ------------
 H2O_H2O_3154
 ------------
 Symbolic Z-matrix:
 Charge =  0 Multiplicity = 1

                         Standard orientation:
 ---------------------------------------------------------------------
 Center     Atomic      Atomic             Coordinates (Angstroms)
 Number     Number       Type             X           Y           Z
 ---------------------------------------------------------------------
      1          8           0       -0.082804    2.355139    0.000000
      2          1           0       -0.082425    1.372537    0.000000
      3          1           0        0.846567    2.674163    0.000000
      4          8           0       -0.082804   -2.200621    0.000000
      5          1           0       -0.336755   -3.149839    0.000000
      6          1           0        0.897470   -2.133006    0.000000
 ---------------------------------------------------------------------

 SCF Done:  E(RHF) =  -152.108635644     A.U. after   10 cycles
 E2 =    -0.5259908881D+00 EUMP2 =    -0.15263462653196D+03
 CCSD(T)
 CCSD(T)= -0.15266179898D+03

 The electronic state is 1-A'.
 Alpha  occ. eigenvalues --  -20.56584 -20.54883  -1.33875  -1.32192  -0.71295
 Alpha  occ. eigenvalues --   -0.69576  -0.57365  -0.55655  -0.50991  -0.49312
 Alpha virt. eigenvalues --    0.12022   0.15594   0.19363   0.22564   0.53831
 Alpha virt. eigenvalues --    0.54960   0.56400   0.58252   0.67603   0.69175
 Alpha virt. eigenvalues --    0.77911   0.78613   0.79545   0.80815   0.82771

 Mulliken charges:
               1
     1  O   -0.513028
     2  H    0.261449
     3  H    0.249915
     4  O   -0.510959
     5  H    0.259860
     6  H    0.252764
 Sum of Mulliken charges =  -0.00000

 Dipole moment (field-independent basis, Debye):
    X=              2.8234    Y=             -2.7666    Z=              0.0000  Tot=              3.9529
 Quadrupole moment (field-independent basis, Debye-Ang):
   XX=            -10.2533   YY=             -8.1643   ZZ=            -14.7152
   XY=              3.0061   XZ=              0.0000   YZ=              0.0000

 CCSD(T)=-152.661799\RMSD=7.124e-09\PG=CS [SG(H4O2)]\\@
 Normal termination of Gaussian 16 at Fri Aug 26 20:06:32 2022.
