 Gaussian 16, Revision A.03,
 Gaussian 16:  ES64L-G16RevA.03 25-Dec-2016

 ------------------
 #p CCSD(T)/cc-pVTZ
 ------------------

 ------------
 H2O_H2O_2163
 ------------
 Symbolic Z-matrix:
 Charge =  0 Multiplicity = 1

                         Standard orientation:
 ---------------------------------------------------------------------
 Center     Atomic      Atomic             Coordinates (Angstroms)
 Number     Number       Type             X           Y           Z
 ---------------------------------------------------------------------
      1          8           0        0.052327    1.970031    0.000000
      2          1           0        0.050492    0.987431    0.000000
      3          1           0       -0.876569    2.290433    0.000000
      4          8           0        0.052327   -1.790173   -0.000000
      5          1           0        0.789875   -2.439426   -0.000000
      6          1           0       -0.801028   -2.277299   -0.000000
 ---------------------------------------------------------------------

 SCF Done:  E(RHF) =  -152.111733943     A.U. after   10 cycles
 E2 =    -0.5263012614D+00 EUMP2 =    -0.15263803520426D+03
 CCSD(T)
 CCSD(T)= -0.15266511536D+03

 The electronic state is 1-A'.
 Alpha  occ. eigenvalues --  -20.57213 -20.53855  -1.34465  -1.31202  -0.71855
 Alpha  occ. eigenvalues --   -0.68610  -0.58116  -0.54672  -0.51604  -0.48350
 Alpha virt. eigenvalues --    0.12229   0.16777   0.19238   0.25460   0.51953
 Alpha virt. eigenvalues --    0.55341   0.56326   0.58975   0.69009   0.72009
 Alpha virt. eigenvalues --    0.76709   0.77973   0.80540   0.83519   0.83611

 Mulliken charges:
               1
     1  O   -0.526455
     2  H    0.268360
     3  H    0.248752
     4  O   -0.508418
     5  H    0.261309
     6  H    0.256452
 Sum of Mulliken charges =  -0.00000

 Dipole moment (field-independent basis, Debye):
    X=             -1.7721    Y=             -3.3525    Z=             -0.0000  Tot=              3.7921
 Quadrupole moment (field-independent basis, Debye-Ang):
   XX=             -9.2303   YY=             -7.7602   ZZ=            -14.7264
   XY=             -4.0304   XZ=             -0.0000   YZ=              0.0000

 Normal termination of Gaussian 16 at Sun Aug 28 04:59:51 2022.
