 Gaussian 16, Revision A.03,
 Gaussian 16:  ES64L-G16RevA.03 25-Dec-2016

 ------------------
 #p CCSD(T)/cc-pVTZ
 ------------------

 ------------
 H2O_H2O_1493
 ------------
 Symbolic Z-matrix:
 Charge =  0 Multiplicity = 1

                         Standard orientation:
 ---------------------------------------------------------------------
 Center     Atomic      Atomic             Coordinates (Angstroms)
 Number     Number       Type             X           Y           Z
 ---------------------------------------------------------------------
      1          8           0        0.033872    1.699493   -0.000000
      2          1           0        0.030754    0.716896   -0.000000
      3          1           0       -0.894606    2.021107   -0.000000
      4          8           0        0.033872   -1.522032    0.000000
      5          1           0        0.940479   -1.900935    0.000000
      6          1           0       -0.618575   -2.256757    0.000000
 ---------------------------------------------------------------------

 SCF Done:  E(RHF) =  -152.113953907     A.U. after   10 cycles
 E2 =    -0.5271132450D+00 EUMP2 =    -0.15264106715179D+03
 CCSD(T)
 CCSD(T)= -0.15266806245D+03

 The electronic state is 1-A'.
 Alpha  occ. eigenvalues --  -20.57948 -20.52934  -1.35241  -1.30383  -0.72596
 Alpha  occ. eigenvalues --   -0.68035  -0.59073  -0.53722  -0.52370  -0.47537
 Alpha virt. eigenvalues --    0.12120   0.17718   0.18921   0.29077   0.50316
 Alpha virt. eigenvalues --    0.54350   0.55987   0.60115   0.68851   0.72408
 Alpha virt. eigenvalues --    0.74270   0.77018   0.81528   0.83010   0.84713

 Mulliken charges:
               1
     1  O   -0.544201
     2  H    0.277611
     3  H    0.248572
     4  O   -0.505665
     5  H    0.265002
     6  H    0.258681
 Sum of Mulliken charges =  -0.00000

 Dipole moment (field-independent basis, Debye):
    X=             -1.1379    Y=             -3.4849    Z=              0.0000  Tot=              3.6659
 Quadrupole moment (field-independent basis, Debye-Ang):
   XX=             -9.1867   YY=             -8.3085   ZZ=            -14.7350
   XY=             -3.9832   XZ=              0.0000   YZ=             -0.0000

 CCSD(T)=-152.6680624\RMSD=6.432e-09\PG=CS [SG(H4O2)]\\@
 Normal termination of Gaussian 16 at Sat Aug 27 00:55:15 2022.
