 Gaussian 16, Revision A.03,
 Gaussian 16:  ES64L-G16RevA.03 25-Dec-2016

 ------------------
 #p CCSD(T)/cc-pVTZ
 ------------------

 ------------
 H2O_H2O_2248
 ------------
 Symbolic Z-matrix:
 Charge =  0 Multiplicity = 1

                         Standard orientation:
 ---------------------------------------------------------------------
 Center     Atomic      Atomic             Coordinates (Angstroms)
 Number     Number       Type             X           Y           Z
 ---------------------------------------------------------------------
      1          8           0       -0.016671    1.990999    0.000000
      2          1           0       -0.013279    1.008403    0.000000
      3          1           0        0.911717    2.312872    0.000000
      4          8           0       -0.016671   -1.827627    0.000000
      5          1           0       -0.996941   -1.895276    0.000000
      6          1           0        0.365233   -2.732975    0.000000
 ---------------------------------------------------------------------

 SCF Done:  E(RHF) =  -152.111315639     A.U. after   10 cycles
 E2 =    -0.5262099529D+00 EUMP2 =    -0.15263752559173D+03
 CCSD(T)
 CCSD(T)= -0.15266462065D+03

 The electronic state is 1-A'.
 Alpha  occ. eigenvalues --  -20.57087 -20.54186  -1.34361  -1.31525  -0.71778
 Alpha  occ. eigenvalues --   -0.68940  -0.57982  -0.55005  -0.51492  -0.48675
 Alpha virt. eigenvalues --    0.12200   0.16639   0.19250   0.25280   0.53487
 Alpha virt. eigenvalues --    0.54985   0.56090   0.58713   0.68726   0.72036
 Alpha virt. eigenvalues --    0.76882   0.79057   0.80241   0.82393   0.83580

 Mulliken charges:
               1
     1  O   -0.527257
     2  H    0.265855
     3  H    0.254142
     4  O   -0.510933
     5  H    0.260024
     6  H    0.258168
 Sum of Mulliken charges =  -0.00000

 Dipole moment (field-independent basis, Debye):
    X=              0.5721    Y=             -3.0244    Z=              0.0000  Tot=              3.0780
 Quadrupole moment (field-independent basis, Debye-Ang):
   XX=             -9.5443   YY=             -8.1310   ZZ=            -14.7244
   XY=              5.2223   XZ=              0.0000   YZ=              0.0000

 Normal termination of Gaussian 16 at Sun Aug 28 05:44:01 2022.
