 Gaussian 16, Revision A.03,
 Gaussian 16:  ES64L-G16RevA.03 25-Dec-2016

 ------------------
 #p CCSD(T)/cc-pVTZ
 ------------------

 ------------
 H2O_H2O_4058
 ------------
 Symbolic Z-matrix:
 Charge =  0 Multiplicity = 1

                         Standard orientation:
 ---------------------------------------------------------------------
 Center     Atomic      Atomic             Coordinates (Angstroms)
 Number     Number       Type             X           Y           Z
 ---------------------------------------------------------------------
      1          8           0        0.070188    2.722680    0.000000
      2          1           0        0.069456    1.740079    0.000000
      3          1           0       -0.859067    3.042039   -0.000000
      4          8           0        0.070188   -2.552418    0.000000
      5          1           0        0.560855   -3.403742    0.000000
      6          1           0       -0.894251   -2.740473   -0.000000
 ---------------------------------------------------------------------

 SCF Done:  E(RHF) =  -152.108384357     A.U. after   10 cycles
 E2 =    -0.5258460262D+00 EUMP2 =    -0.15263423038277D+03
 CCSD(T)
 CCSD(T)= -0.15266142404D+03

 The electronic state is 1-A'.
 Alpha  occ. eigenvalues --  -20.56286 -20.54941  -1.33585  -1.32249  -0.70994
 Alpha  occ. eigenvalues --   -0.69644  -0.57075  -0.55716  -0.50703  -0.49370
 Alpha virt. eigenvalues --    0.12960   0.15090   0.19492   0.21341   0.53380
 Alpha virt. eigenvalues --    0.54964   0.56554   0.57845   0.66698   0.68980
 Alpha virt. eigenvalues --    0.78192   0.79123   0.79486   0.80377   0.82743

 Mulliken charges:
               1
     1  O   -0.513088
     2  H    0.260682
     3  H    0.252051
     4  O   -0.513915
     5  H    0.259227
     6  H    0.255044
 Sum of Mulliken charges =  -0.00000

 Dipole moment (field-independent basis, Debye):
    X=             -2.4036    Y=             -3.0026    Z=             -0.0000  Tot=              3.8462
 Quadrupole moment (field-independent basis, Debye-Ang):
   XX=             -9.6802   YY=             -7.0367   ZZ=            -14.7146
   XY=             -4.0556   XZ=              0.0000   YZ=             -0.0000

 Normal termination of Gaussian 16 at Sat Aug 27 23:03:11 2022.
