 Gaussian 16, Revision A.03,
 Gaussian 16:  ES64L-G16RevA.03 25-Dec-2016

 ------------------
 #p CCSD(T)/cc-pVTZ
 ------------------

 -----------
 H2O_H2O_311
 -----------
 Symbolic Z-matrix:
 Charge =  0 Multiplicity = 1

                         Standard orientation:
 ---------------------------------------------------------------------
 Center     Atomic      Atomic             Coordinates (Angstroms)
 Number     Number       Type             X           Y           Z
 ---------------------------------------------------------------------
      1          8           0        0.059752    1.230722   -0.000000
      2          1           0        0.057276    0.248123   -0.000000
      3          1           0       -0.868936    1.551729    0.000000
      4          8           0        0.059752   -1.053426   -0.000000
      5          1           0        0.705763   -1.793814   -0.000000
      6          1           0       -0.850128   -1.424406    0.000000
 ---------------------------------------------------------------------

 SCF Done:  E(RHF) =  -152.083613201     A.U. after   11 cycles
 E2 =    -0.5336838548D+00 EUMP2 =    -0.15261729705529D+03
 CCSD(T)
 CCSD(T)= -0.15264334495D+03

 The electronic state is 1-A'.
 Alpha  occ. eigenvalues --  -20.60971 -20.47251  -1.40411  -1.26306  -0.76957
 Alpha  occ. eigenvalues --   -0.73417  -0.57050  -0.56532  -0.47762  -0.43101
 Alpha virt. eigenvalues --    0.10865   0.16856   0.20544   0.33214   0.47833
 Alpha virt. eigenvalues --    0.52849   0.61795   0.63666   0.71602   0.71920
 Alpha virt. eigenvalues --    0.77019   0.79765   0.79961   0.82921   0.84122

 Mulliken charges:
               1
     1  O   -0.628734
     2  H    0.305315
     3  H    0.213124
     4  O   -0.383239
     5  H    0.248278
     6  H    0.245256
 Sum of Mulliken charges =  -0.00000

 Dipole moment (field-independent basis, Debye):
    X=             -1.8662    Y=             -4.5309    Z=              0.0000  Tot=              4.9001
 Quadrupole moment (field-independent basis, Debye-Ang):
   XX=             -9.3444   YY=             -9.7246   ZZ=            -14.6285
   XY=             -2.8362   XZ=             -0.0000   YZ=             -0.0000

 Normal termination of Gaussian 16 at Fri Aug 26 17:20:57 2022.
