 Gaussian 16, Revision A.03,
 Gaussian 16:  ES64L-G16RevA.03 25-Dec-2016

 ------------------
 #p CCSD(T)/cc-pVTZ
 ------------------

 ------------
 H2O_H2O_3744
 ------------
 Symbolic Z-matrix:
 Charge =  0 Multiplicity = 1

                         Standard orientation:
 ---------------------------------------------------------------------
 Center     Atomic      Atomic             Coordinates (Angstroms)
 Number     Number       Type             X           Y           Z
 ---------------------------------------------------------------------
      1          8           0        0.030168    2.595962    0.000000
      2          1           0        0.028044    1.613363    0.000000
      3          1           0       -0.898634    2.916637   -0.000000
      4          8           0        0.030168   -2.420340    0.000000
      5          1           0        0.959939   -2.738198    0.000000
      6          1           0       -0.572043   -3.196774   -0.000000
 ---------------------------------------------------------------------

 SCF Done:  E(RHF) =  -152.109019274     A.U. after   10 cycles
 E2 =    -0.5258251920D+00 EUMP2 =    -0.15263484446608D+03
 CCSD(T)
 CCSD(T)= -0.15266202076D+03

 The electronic state is 1-A'.
 Alpha  occ. eigenvalues --  -20.56356 -20.54770  -1.33652  -1.32083  -0.71054
 Alpha  occ. eigenvalues --   -0.69485  -0.57166  -0.55565  -0.50775  -0.49212
 Alpha virt. eigenvalues --    0.12874   0.15368   0.19519   0.21635   0.53392
 Alpha virt. eigenvalues --    0.55094   0.56565   0.57894   0.66765   0.69215
 Alpha virt. eigenvalues --    0.78123   0.78975   0.79631   0.80028   0.82938

 Mulliken charges:
               1
     1  O   -0.516464
     2  H    0.261902
     3  H    0.253780
     4  O   -0.516146
     5  H    0.258769
     6  H    0.258159
 Sum of Mulliken charges =  -0.00000

 Dipole moment (field-independent basis, Debye):
    X=             -1.0330    Y=             -3.1110    Z=             -0.0000  Tot=              3.2780
 Quadrupole moment (field-independent basis, Debye-Ang):
   XX=             -9.2297   YY=             -6.9242   ZZ=            -14.7169
   XY=             -6.0167   XZ=              0.0000   YZ=             -0.0000

 Normal termination of Gaussian 16 at Fri Aug 26 23:26:01 2022.
