 Gaussian 16, Revision A.03,
 Gaussian 16:  ES64L-G16RevA.03 25-Dec-2016

 ------------------
 #p CCSD(T)/cc-pVTZ
 ------------------

 -----------
 H2O_H2O_205
 -----------
 Symbolic Z-matrix:
 Charge =  0 Multiplicity = 1

                         Standard orientation:
 ---------------------------------------------------------------------
 Center     Atomic      Atomic             Coordinates (Angstroms)
 Number     Number       Type             X           Y           Z
 ---------------------------------------------------------------------
      1          8           0        0.079894   -1.180877    0.000000
      2          1           0        0.078885   -0.198276    0.000000
      3          1           0       -0.849271   -1.500498    0.000000
      4          8           0        0.079894    1.021900    0.000000
      5          1           0        0.394784    1.952679    0.000000
      6          1           0       -0.902700    1.017911    0.000000
 ---------------------------------------------------------------------

 SCF Done:  E(RHF) =  -152.063850023     A.U. after   11 cycles
 E2 =    -0.5360343020D+00 EUMP2 =    -0.15259988432464D+03
 CCSD(T)
 CCSD(T)= -0.15262575757D+03

 The electronic state is 1-A'.
 Alpha  occ. eigenvalues --  -20.61265 -20.47455  -1.41827  -1.26602  -0.80331
 Alpha  occ. eigenvalues --   -0.71835  -0.57183  -0.56823  -0.48038  -0.43382
 Alpha virt. eigenvalues --    0.10713   0.16182   0.21203   0.32380   0.49217
 Alpha virt. eigenvalues --    0.51878   0.59842   0.64999   0.71529   0.72513
 Alpha virt. eigenvalues --    0.76809   0.77814   0.80415   0.84866   0.85487

 Mulliken charges:
               1
     1  O   -0.613759
     2  H    0.281624
     3  H    0.200411
     4  O   -0.335774
     5  H    0.230405
     6  H    0.237091
 Sum of Mulliken charges =  -0.00000

 Dipole moment (field-independent basis, Debye):
    X=             -2.4812    Y=              4.2728    Z=              0.0000  Tot=              4.9409
 Quadrupole moment (field-independent basis, Debye-Ang):
   XX=            -10.0817   YY=             -9.7731   ZZ=            -14.5760
   XY=              2.4902   XZ=              0.0000   YZ=              0.0000

 Normal termination of Gaussian 16 at Fri Aug 26 16:35:31 2022.
