 Gaussian 16, Revision A.03,
 Gaussian 16:  ES64L-G16RevA.03 25-Dec-2016

 ------------------
 #p CCSD(T)/cc-pVTZ
 ------------------

 ------------
 H2O_H2O_2397
 ------------
 Symbolic Z-matrix:
 Charge =  0 Multiplicity = 1

                         Standard orientation:
 ---------------------------------------------------------------------
 Center     Atomic      Atomic             Coordinates (Angstroms)
 Number     Number       Type             X           Y           Z
 ---------------------------------------------------------------------
      1          8           0       -0.019896    2.052847    0.000000
      2          1           0       -0.016746    1.070251    0.000000
      3          1           0        0.908571    2.374491    0.000000
      4          8           0       -0.019896   -1.885760    0.000000
      5          1           0       -0.993675   -2.017137    0.000000
      6          1           0        0.420186   -2.764301    0.000000
 ---------------------------------------------------------------------

 SCF Done:  E(RHF) =  -152.111059208     A.U. after   10 cycles
 E2 =    -0.5261243734D+00 EUMP2 =    -0.15263718358133D+03
 CCSD(T)
 CCSD(T)= -0.15266428717D+03

 The electronic state is 1-A'.
 Alpha  occ. eigenvalues --  -20.56983 -20.54233  -1.34255  -1.31568  -0.71663
 Alpha  occ. eigenvalues --   -0.68978  -0.57858  -0.55054  -0.51388  -0.48715
 Alpha virt. eigenvalues --    0.12240   0.16509   0.19255   0.24689   0.53515
 Alpha virt. eigenvalues --    0.55323   0.56234   0.58597   0.68820   0.71251
 Alpha virt. eigenvalues --    0.77197   0.79076   0.80161   0.81620   0.83670

 Mulliken charges:
               1
     1  O   -0.525684
     2  H    0.265703
     3  H    0.253731
     4  O   -0.511751
     5  H    0.259965
     6  H    0.258036
 Sum of Mulliken charges =  -0.00000

 Dipole moment (field-independent basis, Debye):
    X=              0.6804    Y=             -3.0725    Z=              0.0000  Tot=              3.1469
 Quadrupole moment (field-independent basis, Debye-Ang):
   XX=             -9.4474   YY=             -7.9541   ZZ=            -14.7235
   XY=              5.2375   XZ=              0.0000   YZ=              0.0000

 Normal termination of Gaussian 16 at Sun Aug 28 06:56:49 2022.
