 Gaussian 16, Revision A.03,
 Gaussian 16:  ES64L-G16RevA.03 25-Dec-2016

 ------------------
 #p CCSD(T)/cc-pVTZ
 ------------------

 ------------
 H2O_H2O_3743
 ------------
 Symbolic Z-matrix:
 Charge =  0 Multiplicity = 1

                         Standard orientation:
 ---------------------------------------------------------------------
 Center     Atomic      Atomic             Coordinates (Angstroms)
 Number     Number       Type             X           Y           Z
 ---------------------------------------------------------------------
      1          8           0        0.033771    2.597002    0.000000
      2          1           0        0.031769    1.614403    0.000000
      3          1           0       -0.895071    2.917562   -0.000000
      4          8           0        0.033771   -2.419464    0.000000
      5          1           0        0.940809   -2.797338    0.000000
      6          1           0       -0.617840   -3.154930   -0.000000
 ---------------------------------------------------------------------

 SCF Done:  E(RHF) =  -152.109021792     A.U. after   10 cycles
 E2 =    -0.5258268273D+00 EUMP2 =    -0.15263484861958D+03
 CCSD(T)
 CCSD(T)= -0.15266202463D+03

 The electronic state is 1-A'.
 Alpha  occ. eigenvalues --  -20.56358 -20.54753  -1.33653  -1.32066  -0.71055
 Alpha  occ. eigenvalues --   -0.69467  -0.57168  -0.55547  -0.50776  -0.49195
 Alpha virt. eigenvalues --    0.12898   0.15372   0.19553   0.21599   0.53426
 Alpha virt. eigenvalues --    0.55060   0.56559   0.57894   0.66767   0.69227
 Alpha virt. eigenvalues --    0.78122   0.79039   0.79648   0.79885   0.82953

 Mulliken charges:
               1
     1  O   -0.516403
     2  H    0.262068
     3  H    0.253536
     4  O   -0.516098
     5  H    0.258942
     6  H    0.257955
 Sum of Mulliken charges =  -0.00000

 Dipole moment (field-independent basis, Debye):
    X=             -1.1560    Y=             -3.1454    Z=             -0.0000  Tot=              3.3511
 Quadrupole moment (field-independent basis, Debye-Ang):
   XX=             -9.1862   YY=             -6.8357   ZZ=            -14.7170
   XY=             -5.8306   XZ=              0.0000   YZ=             -0.0000

 Normal termination of Gaussian 16 at Fri Aug 26 23:25:40 2022.
