 Gaussian 16, Revision A.03,
 Gaussian 16:  ES64L-G16RevA.03 25-Dec-2016

 ------------------
 #p CCSD(T)/cc-pVTZ
 ------------------

 ------------
 H2O_H2O_1144
 ------------
 Symbolic Z-matrix:
 Charge =  0 Multiplicity = 1

                         Standard orientation:
 ---------------------------------------------------------------------
 Center     Atomic      Atomic             Coordinates (Angstroms)
 Number     Number       Type             X           Y           Z
 ---------------------------------------------------------------------
      1          8           0        0.030302    1.558839    0.000000
      2          1           0        0.026681    0.576244    0.000000
      3          1           0       -0.898010    1.880929    0.000000
      4          8           0        0.030302   -1.383310   -0.000000
      5          1           0        0.959586   -1.702584   -0.000000
      6          1           0       -0.573091   -2.158824   -0.000000
 ---------------------------------------------------------------------

 SCF Done:  E(RHF) =  -152.113925270     A.U. after   10 cycles
 E2 =    -0.5280516889D+00 EUMP2 =    -0.15264197695936D+03
 CCSD(T)
 CCSD(T)= -0.15266887983D+03

 The electronic state is 1-A'.
 Alpha  occ. eigenvalues --  -20.58516 -20.52104  -1.35940  -1.29703  -0.73273
 Alpha  occ. eigenvalues --   -0.67914  -0.59657  -0.53023  -0.52828  -0.46837
 Alpha virt. eigenvalues --    0.11992   0.18275   0.18695   0.31216   0.49162
 Alpha virt. eigenvalues --    0.54649   0.55941   0.61850   0.68484   0.72533
 Alpha virt. eigenvalues --    0.73037   0.77194   0.82190   0.82539   0.84651

 Mulliken charges:
               1
     1  O   -0.561860
     2  H    0.289310
     3  H    0.246609
     4  O   -0.493694
     5  H    0.265466
     6  H    0.254169
 Sum of Mulliken charges =  -0.00000

 Dipole moment (field-independent basis, Debye):
    X=             -1.0101    Y=             -3.6134    Z=             -0.0000  Tot=              3.7519
 Quadrupole moment (field-independent basis, Debye-Ang):
   XX=             -9.2241   YY=             -8.6392   ZZ=            -14.7298
   XY=             -3.7455   XZ=             -0.0000   YZ=              0.0000

 Normal termination of Gaussian 16 at Fri Aug 26 22:43:32 2022.
