 Gaussian 16, Revision A.03,
 Gaussian 16:  ES64L-G16RevA.03 25-Dec-2016

 ------------------
 #p CCSD(T)/cc-pVTZ
 ------------------

 ------------
 H2O_H2O_4123
 ------------
 Symbolic Z-matrix:
 Charge =  0 Multiplicity = 1

                         Standard orientation:
 ---------------------------------------------------------------------
 Center     Atomic      Atomic             Coordinates (Angstroms)
 Number     Number       Type             X           Y           Z
 ---------------------------------------------------------------------
      1          8           0       -0.016591    2.738907    0.000000
      2          1           0       -0.014154    1.756308    0.000000
      3          1           0        0.912108    3.059878    0.000000
      4          8           0       -0.016591   -2.575502    0.000000
      5          1           0       -0.996927   -2.642200    0.000000
      6          1           0        0.364433   -3.481222    0.000000
 ---------------------------------------------------------------------

 SCF Done:  E(RHF) =  -152.108643455     A.U. after   10 cycles
 E2 =    -0.5258057190D+00 EUMP2 =    -0.15263444917389D+03
 CCSD(T)
 CCSD(T)= -0.15266163971D+03

 The electronic state is 1-A'.
 Alpha  occ. eigenvalues --  -20.56254 -20.54982  -1.33555  -1.32291  -0.70961
 Alpha  occ. eigenvalues --   -0.69698  -0.57056  -0.55768  -0.50675  -0.49418
 Alpha virt. eigenvalues --    0.12970   0.15101   0.19342   0.21560   0.53293
 Alpha virt. eigenvalues --    0.55062   0.56631   0.57825   0.66700   0.68904
 Alpha virt. eigenvalues --    0.78215   0.79181   0.79436   0.80699   0.82698

 Mulliken charges:
               1
     1  O   -0.515213
     2  H    0.260100
     3  H    0.254822
     4  O   -0.515568
     5  H    0.257415
     6  H    0.258442
 Sum of Mulliken charges =  -0.00000

 Dipole moment (field-independent basis, Debye):
    X=              0.5703    Y=             -2.8775    Z=              0.0000  Tot=              2.9335
 Quadrupole moment (field-independent basis, Debye-Ang):
   XX=             -9.5431   YY=             -7.3678   ZZ=            -14.7155
   XY=              7.1907   XZ=              0.0000   YZ=              0.0000

 Normal termination of Gaussian 16 at Sat Aug 27 23:55:53 2022.
