 Gaussian 16, Revision A.03,
 Gaussian 16:  ES64L-G16RevA.03 25-Dec-2016

 ------------------
 #p CCSD(T)/cc-pVTZ
 ------------------

 ------------
 H2O_H2O_4406
 ------------
 Symbolic Z-matrix:
 Charge =  0 Multiplicity = 1

                         Standard orientation:
 ---------------------------------------------------------------------
 Center     Atomic      Atomic             Coordinates (Angstroms)
 Number     Number       Type             X           Y           Z
 ---------------------------------------------------------------------
      1          8           0        0.076749    2.858465   -0.000000
      2          1           0        0.076254    1.875864   -0.000000
      3          1           0       -0.852583    3.177600   -0.000000
      4          8           0        0.076749   -2.695239    0.000000
      5          1           0        0.452317   -3.603233    0.000000
      6          1           0       -0.903970   -2.756037    0.000000
 ---------------------------------------------------------------------

 SCF Done:  E(RHF) =  -152.108088082     A.U. after   10 cycles
 E2 =    -0.5258435727D+00 EUMP2 =    -0.15263393165472D+03
 CCSD(T)
 CCSD(T)= -0.15266113509D+03

 The electronic state is 1-A'.
 Alpha  occ. eigenvalues --  -20.56215 -20.55080  -1.33516  -1.32385  -0.70926
 Alpha  occ. eigenvalues --   -0.69782  -0.56994  -0.55847  -0.50631  -0.49503
 Alpha virt. eigenvalues --    0.13107   0.14873   0.19420   0.21211   0.53406
 Alpha virt. eigenvalues --    0.54893   0.56595   0.57770   0.66828   0.68700
 Alpha virt. eigenvalues --    0.78259   0.79359   0.79409   0.80695   0.82477

 Mulliken charges:
               1
     1  O   -0.511856
     2  H    0.259465
     3  H    0.252257
     4  O   -0.512861
     5  H    0.258654
     6  H    0.254340
 Sum of Mulliken charges =  -0.00000

 Dipole moment (field-independent basis, Debye):
    X=             -2.6311    Y=             -2.8673    Z=              0.0000  Tot=              3.8916
 Quadrupole moment (field-independent basis, Debye-Ang):
   XX=             -9.9483   YY=             -7.2831   ZZ=            -14.7136
   XY=             -3.6851   XZ=              0.0000   YZ=             -0.0000

 Normal termination of Gaussian 16 at Sun Aug 28 02:33:52 2022.
