 Gaussian 16, Revision A.03,
 Gaussian 16:  ES64L-G16RevA.03 25-Dec-2016

 ------------------
 #p CCSD(T)/cc-pVTZ
 ------------------

 ------------
 H2O_H2O_3865
 ------------
 Symbolic Z-matrix:
 Charge =  0 Multiplicity = 1

                         Standard orientation:
 ---------------------------------------------------------------------
 Center     Atomic      Atomic             Coordinates (Angstroms)
 Number     Number       Type             X           Y           Z
 ---------------------------------------------------------------------
      1          8           0        0.044839    2.648425    0.000000
      2          1           0        0.043243    1.665825    0.000000
      3          1           0       -0.884135    2.968600   -0.000000
      4          8           0        0.044839   -2.468006    0.000000
      5          1           0        0.860956   -3.015236    0.000000
      6          1           0       -0.737488   -3.062540   -0.000000
 ---------------------------------------------------------------------

 SCF Done:  E(RHF) =  -152.108866881     A.U. after   10 cycles
 E2 =    -0.5258261197D+00 EUMP2 =    -0.15263469300052D+03
 CCSD(T)
 CCSD(T)= -0.15266187382D+03

 The electronic state is 1-A'.
 Alpha  occ. eigenvalues --  -20.56327 -20.54771  -1.33623  -1.32083  -0.71026
 Alpha  occ. eigenvalues --   -0.69482  -0.57133  -0.55561  -0.50745  -0.49210
 Alpha virt. eigenvalues --    0.13003   0.15286   0.19621   0.21427   0.53523
 Alpha virt. eigenvalues --    0.54947   0.56565   0.57860   0.66705   0.69181
 Alpha virt. eigenvalues --    0.78151   0.79375   0.79576   0.79635   0.82931

 Mulliken charges:
               1
     1  O   -0.515595
     2  H    0.261999
     3  H    0.252964
     4  O   -0.515724
     5  H    0.259168
     6  H    0.257188
 Sum of Mulliken charges =  -0.00000

 Dipole moment (field-independent basis, Debye):
    X=             -1.5348    Y=             -3.1909    Z=             -0.0000  Tot=              3.5408
 Quadrupole moment (field-independent basis, Debye-Ang):
   XX=             -9.1568   YY=             -6.6269   ZZ=            -14.7164
   XY=             -5.3661   XZ=              0.0000   YZ=             -0.0000

 Normal termination of Gaussian 16 at Sat Aug 27 00:09:50 2022.
