 Gaussian 16, Revision A.03,
 Gaussian 16:  ES64L-G16RevA.03 25-Dec-2016

 ------------------
 #p CCSD(T)/cc-pVTZ
 ------------------

 ------------
 H2O_H2O_2773
 ------------
 Symbolic Z-matrix:
 Charge =  0 Multiplicity = 1

                         Standard orientation:
 ---------------------------------------------------------------------
 Center     Atomic      Atomic             Coordinates (Angstroms)
 Number     Number       Type             X           Y           Z
 ---------------------------------------------------------------------
      1          8           0       -0.016643    2.200414    0.000000
      2          1           0       -0.013586    1.217817    0.000000
      3          1           0        0.911854    2.521970    0.000000
      4          8           0       -0.016643   -2.037031    0.000000
      5          1           0       -0.996936   -2.104345    0.000000
      6          1           0        0.364952   -2.942509    0.000000
 ---------------------------------------------------------------------

 SCF Done:  E(RHF) =  -152.110173957     A.U. after   10 cycles
 E2 =    -0.5259795183D+00 EUMP2 =    -0.15263615347573D+03
 CCSD(T)
 CCSD(T)= -0.15266328633D+03

 The electronic state is 1-A'.
 Alpha  occ. eigenvalues --  -20.56740 -20.54520  -1.34023  -1.31842  -0.71432
 Alpha  occ. eigenvalues --   -0.69250  -0.57578  -0.55334  -0.51152  -0.48983
 Alpha virt. eigenvalues --    0.12241   0.16111   0.19263   0.23613   0.53847
 Alpha virt. eigenvalues --    0.55580   0.56325   0.58417   0.68659   0.69638
 Alpha virt. eigenvalues --    0.77681   0.79011   0.79861   0.80578   0.83312

 Mulliken charges:
               1
     1  O   -0.521872
     2  H    0.263817
     3  H    0.254487
     4  O   -0.513962
     5  H    0.258950
     6  H    0.258580
 Sum of Mulliken charges =  -0.00000

 Dipole moment (field-independent basis, Debye):
    X=              0.5715    Y=             -2.9587    Z=              0.0000  Tot=              3.0133
 Quadrupole moment (field-independent basis, Debye-Ang):
   XX=             -9.5432   YY=             -7.9102   ZZ=            -14.7205
   XY=              5.7736   XZ=              0.0000   YZ=              0.0000

 Normal termination of Gaussian 16 at Fri Aug 26 17:13:05 2022.
