 Gaussian 16, Revision A.03,
 Gaussian 16:  ES64L-G16RevA.03 25-Dec-2016

 ------------------
 #p CCSD(T)/cc-pVTZ
 ------------------

 ------------
 H2O_H2O_4593
 ------------
 Symbolic Z-matrix:
 Charge =  0 Multiplicity = 1

                         Standard orientation:
 ---------------------------------------------------------------------
 Center     Atomic      Atomic             Coordinates (Angstroms)
 Number     Number       Type             X           Y           Z
 ---------------------------------------------------------------------
      1          8           0        0.033749    2.936056    0.000000
      2          1           0        0.031986    1.953456    0.000000
      3          1           0       -0.895170    3.256390   -0.000000
      4          8           0        0.033749   -2.758501    0.000000
      5          1           0        0.940879   -3.136155    0.000000
      6          1           0       -0.617684   -3.494125   -0.000000
 ---------------------------------------------------------------------

 SCF Done:  E(RHF) =  -152.108433648     A.U. after   10 cycles
 E2 =    -0.5258006620D+00 EUMP2 =    -0.15263423430964D+03
 CCSD(T)
 CCSD(T)= -0.15266143189D+03

 The electronic state is 1-A'.
 Alpha  occ. eigenvalues --  -20.56166 -20.54975  -1.33468  -1.32283  -0.70872
 Alpha  occ. eigenvalues --   -0.69686  -0.56962  -0.55755  -0.50587  -0.49407
 Alpha virt. eigenvalues --    0.13399   0.14900   0.19685   0.21034   0.53644
 Alpha virt. eigenvalues --    0.54853   0.56684   0.57794   0.66882   0.68686
 Alpha virt. eigenvalues --    0.78298   0.79450   0.79634   0.80329   0.82578

 Mulliken charges:
               1
     1  O   -0.514152
     2  H    0.260121
     3  H    0.253931
     4  O   -0.514777
     5  H    0.257771
     6  H    0.257105
 Sum of Mulliken charges =  -0.00000

 Dipole moment (field-independent basis, Debye):
    X=             -1.1581    Y=             -3.1140    Z=             -0.0000  Tot=              3.3224
 Quadrupole moment (field-independent basis, Debye-Ang):
   XX=             -9.1869   YY=             -6.3190   ZZ=            -14.7149
   XY=             -6.5236   XZ=             -0.0000   YZ=             -0.0000

 Normal termination of Gaussian 16 at Sun Aug 28 04:11:59 2022.
