 Gaussian 16, Revision A.03,
 Gaussian 16:  ES64L-G16RevA.03 25-Dec-2016

 ------------------
 #p CCSD(T)/cc-pVTZ
 ------------------

 ------------
 H2O_H2O_3966
 ------------
 Symbolic Z-matrix:
 Charge =  0 Multiplicity = 1

                         Standard orientation:
 ---------------------------------------------------------------------
 Center     Atomic      Atomic             Coordinates (Angstroms)
 Number     Number       Type             X           Y           Z
 ---------------------------------------------------------------------
      1          8           0        0.041118    2.688056    0.000000
      2          1           0        0.039425    1.705456    0.000000
      3          1           0       -0.887825    3.008323    0.000000
      4          8           0        0.041118   -2.508111   -0.000000
      5          1           0        0.891228   -3.000876   -0.000000
      6          1           0       -0.700713   -3.152465   -0.000000
 ---------------------------------------------------------------------

 SCF Done:  E(RHF) =  -152.108805925     A.U. after   10 cycles
 E2 =    -0.5258178476D+00 EUMP2 =    -0.15263462377248D+03
 CCSD(T)
 CCSD(T)= -0.15266180747D+03

 The electronic state is 1-A'.
 Alpha  occ. eigenvalues --  -20.56299 -20.54804  -1.33596  -1.32115  -0.70999
 Alpha  occ. eigenvalues --   -0.69515  -0.57104  -0.55592  -0.50718  -0.49242
 Alpha virt. eigenvalues --    0.13066   0.15226   0.19629   0.21359   0.53537
 Alpha virt. eigenvalues --    0.54937   0.56588   0.57840   0.66680   0.69118
 Alpha virt. eigenvalues --    0.78176   0.79375   0.79605   0.79723   0.82898

 Mulliken charges:
               1
     1  O   -0.515471
     2  H    0.261720
     3  H    0.253247
     4  O   -0.515766
     5  H    0.258915
     6  H    0.257354
 Sum of Mulliken charges =  -0.00000

 Dipole moment (field-independent basis, Debye):
    X=             -1.4081    Y=             -3.1777    Z=             -0.0000  Tot=              3.4757
 Quadrupole moment (field-independent basis, Debye-Ang):
   XX=             -9.1492   YY=             -6.5843   ZZ=            -14.7162
   XY=             -5.6255   XZ=             -0.0000   YZ=             -0.0000

 CCSD(T)=-152.6618075\RMSD=7.079e-09\PG=CS [SG(H4O2)]\\@
 Normal termination of Gaussian 16 at Sat Aug 27 00:44:00 2022.
