 Gaussian 16, Revision A.03,
 Gaussian 16:  ES64L-G16RevA.03 25-Dec-2016

 ------------------
 #p CCSD(T)/cc-pVTZ
 ------------------

 ------------
 H2O_H2O_1250
 ------------
 Symbolic Z-matrix:
 Charge =  0 Multiplicity = 1

                         Standard orientation:
 ---------------------------------------------------------------------
 Center     Atomic      Atomic             Coordinates (Angstroms)
 Number     Number       Type             X           Y           Z
 ---------------------------------------------------------------------
      1          8           0        0.092949   -1.585468    0.000000
      2          1           0        0.092949   -0.602867    0.000000
      3          1           0       -0.836544   -1.904135    0.000000
      4          8           0        0.092949    1.452681    0.000000
      5          1           0        0.092949    2.435283    0.000000
      6          1           0       -0.836544    1.134014    0.000000
 ---------------------------------------------------------------------

 SCF Done:  E(RHF) =  -152.107947353     A.U. after   10 cycles
 E2 =    -0.5284972388D+00 EUMP2 =    -0.15263644459158D+03
 CCSD(T)
 CCSD(T)= -0.15266350266D+03

 The electronic state is 1-A'.
 Alpha  occ. eigenvalues --  -20.58227 -20.54129  -1.35700  -1.31538  -0.73722
 Alpha  occ. eigenvalues --   -0.68660  -0.59095  -0.54839  -0.52690  -0.48616
 Alpha virt. eigenvalues --    0.11469   0.16339   0.20656   0.29121   0.48868
 Alpha virt. eigenvalues --    0.53604   0.57905   0.59284   0.67902   0.72487
 Alpha virt. eigenvalues --    0.73987   0.78210   0.80701   0.81246   0.83156

 Mulliken charges:
               1
     1  O   -0.524945
     2  H    0.276924
     3  H    0.235681
     4  O   -0.465640
     5  H    0.242560
     6  H    0.235420
 Sum of Mulliken charges =  -0.00000

 Dipole moment (field-independent basis, Debye):
    X=             -3.0842    Y=              2.6755    Z=              0.0000  Tot=              4.0830
 Quadrupole moment (field-independent basis, Debye-Ang):
   XX=            -10.9025   YY=             -9.1720   ZZ=            -14.7022
   XY=              2.1024   XZ=              0.0000   YZ=              0.0000

 Normal termination of Gaussian 16 at Fri Aug 26 23:23:25 2022.
