 Gaussian 16, Revision A.03,
 Gaussian 16:  ES64L-G16RevA.03 25-Dec-2016

 ------------------
 #p CCSD(T)/cc-pVTZ
 ------------------

 ------------
 H2O_H2O_4154
 ------------
 Symbolic Z-matrix:
 Charge =  0 Multiplicity = 1

                         Standard orientation:
 ---------------------------------------------------------------------
 Center     Atomic      Atomic             Coordinates (Angstroms)
 Number     Number       Type             X           Y           Z
 ---------------------------------------------------------------------
      1          8           0        0.082799    2.754021    0.000000
      2          1           0        0.082477    1.771420    0.000000
      3          1           0       -0.846590    3.072992    0.000000
      4          8           0        0.082799   -2.599493   -0.000000
      5          1           0        0.336805   -3.548697   -0.000000
      6          1           0       -0.897477   -2.531934   -0.000000
 ---------------------------------------------------------------------

 SCF Done:  E(RHF) =  -152.108031261     A.U. after   10 cycles
 E2 =    -0.5258656766D+00 EUMP2 =    -0.15263389693718D+03
 CCSD(T)
 CCSD(T)= -0.15266109980D+03

 The electronic state is 1-A'.
 Alpha  occ. eigenvalues --  -20.56271 -20.55115  -1.33572  -1.32419  -0.70984
 Alpha  occ. eigenvalues --   -0.69814  -0.57046  -0.55879  -0.50685  -0.49536
 Alpha virt. eigenvalues --    0.12775   0.14969   0.19221   0.21537   0.53228
 Alpha virt. eigenvalues --    0.54963   0.56536   0.57824   0.66750   0.68793
 Alpha virt. eigenvalues --    0.78209   0.79216   0.79328   0.80958   0.82494

 Mulliken charges:
               1
     1  O   -0.511310
     2  H    0.259253
     3  H    0.251835
     4  O   -0.512345
     5  H    0.258980
     6  H    0.253587
 Sum of Mulliken charges =   0.00000

 Dipole moment (field-independent basis, Debye):
    X=             -2.8363    Y=             -2.7210    Z=             -0.0000  Tot=              3.9304
 Quadrupole moment (field-independent basis, Debye-Ang):
   XX=            -10.2456   YY=             -7.8955   ZZ=            -14.7133
   XY=             -3.1501   XZ=             -0.0000   YZ=              0.0000

 Normal termination of Gaussian 16 at Sun Aug 28 00:12:00 2022.
