 Gaussian 16, Revision A.03,
 Gaussian 16:  ES64L-G16RevA.03 25-Dec-2016

 ------------------
 #p CCSD(T)/cc-pVTZ
 ------------------

 ------------
 H2O_H2O_4271
 ------------
 Symbolic Z-matrix:
 Charge =  0 Multiplicity = 1

                         Standard orientation:
 ---------------------------------------------------------------------
 Center     Atomic      Atomic             Coordinates (Angstroms)
 Number     Number       Type             X           Y           Z
 ---------------------------------------------------------------------
      1          8           0       -0.023171    2.802541    0.000000
      2          1           0       -0.020993    1.819942    0.000000
      3          1           0        0.905613    3.123267    0.000000
      4          8           0       -0.023171   -2.632133    0.000000
      5          1           0       -0.986465   -2.825965    0.000000
      6          1           0        0.472589   -3.480501    0.000000
 ---------------------------------------------------------------------

 SCF Done:  E(RHF) =  -152.108596120     A.U. after   10 cycles
 E2 =    -0.5258015123D+00 EUMP2 =    -0.15263439763253D+03
 CCSD(T)
 CCSD(T)= -0.15266159003D+03

 The electronic state is 1-A'.
 Alpha  occ. eigenvalues --  -20.56224 -20.54958  -1.33525  -1.32266  -0.70930
 Alpha  occ. eigenvalues --   -0.69672  -0.57024  -0.55742  -0.50645  -0.49392
 Alpha virt. eigenvalues --    0.13160   0.15036   0.19515   0.21302   0.53444
 Alpha virt. eigenvalues --    0.54966   0.56646   0.57812   0.66735   0.68851
 Alpha virt. eigenvalues --    0.78243   0.79330   0.79461   0.80458   0.82706

 Mulliken charges:
               1
     1  O   -0.514954
     2  H    0.260328
     3  H    0.254408
     4  O   -0.515453
     5  H    0.257700
     6  H    0.257971
 Sum of Mulliken charges =  -0.00000

 Dipole moment (field-independent basis, Debye):
    X=              0.7953    Y=             -2.9968    Z=              0.0000  Tot=              3.1006
 Quadrupole moment (field-independent basis, Debye-Ang):
   XX=             -9.3619   YY=             -6.9077   ZZ=            -14.7154
   XY=              6.9028   XZ=              0.0000   YZ=              0.0000

 Normal termination of Gaussian 16 at Sun Aug 28 01:23:31 2022.
