 Gaussian 16, Revision A.03,
 Gaussian 16:  ES64L-G16RevA.03 25-Dec-2016

 ------------------
 #p CCSD(T)/cc-pVTZ
 ------------------

 ------------
 H2O_H2O_4074
 ------------
 Symbolic Z-matrix:
 Charge =  0 Multiplicity = 1

                         Standard orientation:
 ---------------------------------------------------------------------
 Center     Atomic      Atomic             Coordinates (Angstroms)
 Number     Number       Type             X           Y           Z
 ---------------------------------------------------------------------
      1          8           0       -0.013485    2.716720    0.000000
      2          1           0       -0.010929    1.734122    0.000000
      3          1           0        0.915176    3.037803    0.000000
      4          8           0       -0.013485   -2.557447    0.000000
      5          1           0       -0.996084   -2.560002    0.000000
      6          1           0        0.307598   -3.486108    0.000000
 ---------------------------------------------------------------------

 SCF Done:  E(RHF) =  -152.108640082     A.U. after   10 cycles
 E2 =    -0.5258082776D+00 EUMP2 =    -0.15263444835927D+03
 CCSD(T)
 CCSD(T)= -0.15266163883D+03

 The electronic state is 1-A'.
 Alpha  occ. eigenvalues --  -20.56264 -20.55007  -1.33566  -1.32316  -0.70973
 Alpha  occ. eigenvalues --   -0.69724  -0.57065  -0.55794  -0.50686  -0.49443
 Alpha virt. eigenvalues --    0.12872   0.15119   0.19244   0.21709   0.53231
 Alpha virt. eigenvalues --    0.55103   0.56628   0.57827   0.66696   0.68909
 Alpha virt. eigenvalues --    0.78205   0.79146   0.79411   0.80849   0.82674

 Mulliken charges:
               1
     1  O   -0.515227
     2  H    0.259869
     3  H    0.255050
     4  O   -0.515516
     5  H    0.257192
     6  H    0.258633
 Sum of Mulliken charges =  -0.00000

 Dipole moment (field-independent basis, Debye):
    X=              0.4643    Y=             -2.8059    Z=              0.0000  Tot=              2.8440
 Quadrupole moment (field-independent basis, Debye-Ang):
   XX=             -9.6480   YY=             -7.6192   ZZ=            -14.7154
   XY=              7.3577   XZ=              0.0000   YZ=              0.0000

 1062\MP4DQ=-152.6435631\MP4SDQ=-152.6466094\CCSD=-152.6460247\CCSD(T)=
 Normal termination of Gaussian 16 at Sat Aug 27 23:18:13 2022.
