 Gaussian 16, Revision A.03,
 Gaussian 16:  ES64L-G16RevA.03 25-Dec-2016

 ------------------
 #p CCSD(T)/cc-pVTZ
 ------------------

 ------------
 H2O_H2O_4765
 ------------
 Symbolic Z-matrix:
 Charge =  0 Multiplicity = 1

                         Standard orientation:
 ---------------------------------------------------------------------
 Center     Atomic      Atomic             Coordinates (Angstroms)
 Number     Number       Type             X           Y           Z
 ---------------------------------------------------------------------
      1          8           0        0.044821    3.007423   -0.000000
      2          1           0        0.043422    2.024823   -0.000000
      3          1           0       -0.884217    3.327413   -0.000000
      4          8           0        0.044821   -2.826986    0.000000
      5          1           0        0.861046   -3.374054    0.000000
      6          1           0       -0.737387   -3.421676    0.000000
 ---------------------------------------------------------------------

 SCF Done:  E(RHF) =  -152.108319638     A.U. after   10 cycles
 E2 =    -0.5258057568D+00 EUMP2 =    -0.15263412539467D+03
 CCSD(T)
 CCSD(T)= -0.15266132590D+03

 The electronic state is 1-A'.
 Alpha  occ. eigenvalues --  -20.56141 -20.54995  -1.33443  -1.32301  -0.70847
 Alpha  occ. eigenvalues --   -0.69703  -0.56932  -0.55771  -0.50561  -0.49423
 Alpha virt. eigenvalues --    0.13480   0.14833   0.19731   0.20948   0.53705
 Alpha virt. eigenvalues --    0.54822   0.56700   0.57783   0.66975   0.68603
 Alpha virt. eigenvalues --    0.78323   0.79435   0.79733   0.80363   0.82434

 Mulliken charges:
               1
     1  O   -0.513519
     2  H    0.259919
     3  H    0.253538
     4  O   -0.514191
     5  H    0.257848
     6  H    0.256404
 Sum of Mulliken charges =  -0.00000

 Dipole moment (field-independent basis, Debye):
    X=             -1.5382    Y=             -3.1607    Z=              0.0000  Tot=              3.5152
 Quadrupole moment (field-independent basis, Debye-Ang):
   XX=             -9.1570   YY=             -6.0411   ZZ=            -14.7145
   XY=             -5.9636   XZ=              0.0000   YZ=             -0.0000

 Normal termination of Gaussian 16 at Sun Aug 28 05:44:20 2022.
