 Gaussian 16, Revision A.03,
 Gaussian 16:  ES64L-G16RevA.03 25-Dec-2016

 ------------------
 #p CCSD(T)/cc-pVTZ
 ------------------

 -----------
 H2O_H2O_689
 -----------
 Symbolic Z-matrix:
 Charge =  0 Multiplicity = 1

                         Standard orientation:
 ---------------------------------------------------------------------
 Center     Atomic      Atomic             Coordinates (Angstroms)
 Number     Number       Type             X           Y           Z
 ---------------------------------------------------------------------
      1          8           0        0.048697    1.381914    0.000000
      2          1           0        0.045782    0.399317    0.000000
      3          1           0       -0.879846    1.703337    0.000000
      4          8           0        0.048697   -1.201649   -0.000000
      5          1           0        0.826470   -1.802129   -0.000000
      6          1           0       -0.771566   -1.742643   -0.000000
 ---------------------------------------------------------------------

 SCF Done:  E(RHF) =  -152.108098228     A.U. after   11 cycles
 E2 =    -0.5303383833D+00 EUMP2 =    -0.15263843661183D+03
 CCSD(T)
 CCSD(T)= -0.15266503161D+03

 The electronic state is 1-A'.
 Alpha  occ. eigenvalues --  -20.59645 -20.50002  -1.37597  -1.28104  -0.74495
 Alpha  occ. eigenvalues --   -0.69578  -0.59284  -0.54467  -0.50628  -0.45129
 Alpha virt. eigenvalues --    0.11500   0.17799   0.19462   0.33221   0.47717
 Alpha virt. eigenvalues --    0.54073   0.59669   0.62206   0.69964   0.72382
 Alpha virt. eigenvalues --    0.72386   0.78153   0.81774   0.82797   0.84396

 Mulliken charges:
               1
     1  O   -0.595506
     2  H    0.311982
     3  H    0.232088
     4  O   -0.464577
     5  H    0.262525
     6  H    0.253488
 Sum of Mulliken charges =  -0.00000

 Dipole moment (field-independent basis, Debye):
    X=             -1.5777    Y=             -4.0813    Z=             -0.0000  Tot=              4.3756
 Quadrupole moment (field-independent basis, Debye-Ang):
   XX=             -9.1717   YY=             -9.1615   ZZ=            -14.7004
   XY=             -3.1725   XZ=             -0.0000   YZ=             -0.0000

 Normal termination of Gaussian 16 at Fri Aug 26 19:51:50 2022.
