 Gaussian 16, Revision A.03,
 Gaussian 16:  ES64L-G16RevA.03 25-Dec-2016

 ------------------
 #p CCSD(T)/cc-pVTZ
 ------------------

 ------------
 H2O_H2O_4545
 ------------
 Symbolic Z-matrix:
 Charge =  0 Multiplicity = 1

                         Standard orientation:
 ---------------------------------------------------------------------
 Center     Atomic      Atomic             Coordinates (Angstroms)
 Number     Number       Type             X           Y           Z
 ---------------------------------------------------------------------
      1          8           0        0.026613    2.913776    0.000000
      2          1           0        0.024623    1.931177    0.000000
      3          1           0       -0.902233    3.234325    0.000000
      4          8           0        0.026613   -2.740524   -0.000000
      5          1           0        0.975216   -2.996761   -0.000000
      6          1           0       -0.523416   -3.554756   -0.000000
 ---------------------------------------------------------------------

 SCF Done:  E(RHF) =  -152.108455997     A.U. after   10 cycles
 E2 =    -0.5257990119D+00 EUMP2 =    -0.15263425500889D+03
 CCSD(T)
 CCSD(T)= -0.15266145210D+03

 The electronic state is 1-A'.
 Alpha  occ. eigenvalues --  -20.56173 -20.54995  -1.33475  -1.32303  -0.70879
 Alpha  occ. eigenvalues --   -0.69708  -0.56969  -0.55776  -0.50594  -0.49427
 Alpha virt. eigenvalues --    0.13346   0.14909   0.19618   0.21097   0.53578
 Alpha virt. eigenvalues --    0.54876   0.56679   0.57790   0.66859   0.68689
 Alpha virt. eigenvalues --    0.78291   0.79429   0.79555   0.80451   0.82556

 Mulliken charges:
               1
     1  O   -0.514329
     2  H    0.259955
     3  H    0.254266
     4  O   -0.514909
     5  H    0.257543
     6  H    0.257474
 Sum of Mulliken charges =  -0.00000

 Dipole moment (field-independent basis, Debye):
    X=             -0.9136    Y=             -3.0393    Z=             -0.0000  Tot=              3.1736
 Quadrupole moment (field-independent basis, Debye-Ang):
   XX=             -9.2893   YY=             -6.5990   ZZ=            -14.7149
   XY=             -6.9361   XZ=             -0.0000   YZ=             -0.0000

 9206\MP4DQ=-152.643377\MP4SDQ=-152.6464234\CCSD=-152.6458391\CCSD(T)=-
 Normal termination of Gaussian 16 at Sun Aug 28 03:45:12 2022.
