 Gaussian 16, Revision A.03,
 Gaussian 16:  ES64L-G16RevA.03 25-Dec-2016

 ------------------
 #p CCSD(T)/cc-pVTZ
 ------------------

 ------------
 H2O_H2O_1543
 ------------
 Symbolic Z-matrix:
 Charge =  0 Multiplicity = 1

                         Standard orientation:
 ---------------------------------------------------------------------
 Center     Atomic      Atomic             Coordinates (Angstroms)
 Number     Number       Type             X           Y           Z
 ---------------------------------------------------------------------
      1          8           0        0.033868    1.719438   -0.000000
      2          1           0        0.030789    0.736841   -0.000000
      3          1           0       -0.894622    2.041015   -0.000000
      4          8           0        0.033868   -1.541974    0.000000
      5          1           0        0.940491   -1.920842    0.000000
      6          1           0       -0.618548   -2.276725    0.000000
 ---------------------------------------------------------------------

 SCF Done:  E(RHF) =  -152.113836149     A.U. after   10 cycles
 E2 =    -0.5270144878D+00 EUMP2 =    -0.15264085063641D+03
 CCSD(T)
 CCSD(T)= -0.15266785474D+03

 The electronic state is 1-A'.
 Alpha  occ. eigenvalues --  -20.57878 -20.53030  -1.35162  -1.30465  -0.72522
 Alpha  occ. eigenvalues --   -0.68077  -0.58987  -0.53824  -0.52294  -0.47621
 Alpha virt. eigenvalues --    0.12136   0.17646   0.18948   0.28776   0.50495
 Alpha virt. eigenvalues --    0.54342   0.56028   0.59949   0.68899   0.72447
 Alpha virt. eigenvalues --    0.74473   0.77032   0.81432   0.83064   0.84687

 Mulliken charges:
               1
     1  O   -0.542396
     2  H    0.276284
     3  H    0.248874
     4  O   -0.506320
     5  H    0.264722
     6  H    0.258835
 Sum of Mulliken charges =  -0.00000

 Dipole moment (field-independent basis, Debye):
    X=             -1.1390    Y=             -3.4665    Z=              0.0000  Tot=              3.6488
 Quadrupole moment (field-independent basis, Debye-Ang):
   XX=             -9.1871   YY=             -8.2673   ZZ=            -14.7348
   XY=             -4.0251   XZ=              0.0000   YZ=              0.0000

 Normal termination of Gaussian 16 at Sat Aug 27 23:01:17 2022.
