 Gaussian 16, Revision A.03,
 Gaussian 16:  ES64L-G16RevA.03 25-Dec-2016

 ------------------
 #p CCSD(T)/cc-pVTZ
 ------------------

 ----------
 H2O_H2O_32
 ----------
 Symbolic Z-matrix:
 Charge =  0 Multiplicity = 1

                         Standard orientation:
 ---------------------------------------------------------------------
 Center     Atomic      Atomic             Coordinates (Angstroms)
 Number     Number       Type             X           Y           Z
 ---------------------------------------------------------------------
      1          8           0        0.073610   -1.115332    0.000000
      2          1           0        0.072013   -0.132732    0.000000
      3          1           0       -0.855364   -1.435508    0.000000
      4          8           0        0.073610    0.948520    0.000000
      5          1           0        0.506770    1.830494    0.000000
      6          1           0       -0.901173    1.072237    0.000000
 ---------------------------------------------------------------------

 SCF Done:  E(RHF) =  -152.028841485     A.U. after   11 cycles
 E2 =    -0.5376279177D+00 EUMP2 =    -0.15256646940246D+03
 CCSD(T)
 CCSD(T)= -0.15259193974D+03

 The electronic state is 1-A'.
 Alpha  occ. eigenvalues --  -20.62102 -20.44825  -1.44548  -1.24965  -0.82449
 Alpha  occ. eigenvalues --   -0.74983  -0.58832  -0.54671  -0.45134  -0.41509
 Alpha virt. eigenvalues --    0.10306   0.15844   0.21630   0.31885   0.49204
 Alpha virt. eigenvalues --    0.51418   0.60286   0.64409   0.70405   0.71719
 Alpha virt. eigenvalues --    0.77001   0.79296   0.81749   0.84698   0.88237

 Mulliken charges:
               1
     1  O   -0.649485
     2  H    0.269796
     3  H    0.189651
     4  O   -0.283141
     5  H    0.231349
     6  H    0.241830
 Sum of Mulliken charges =  -0.00000

 Dipole moment (field-independent basis, Debye):
    X=             -2.2260    Y=              4.8008    Z=              0.0000  Tot=              5.2918
 Quadrupole moment (field-independent basis, Debye-Ang):
   XX=             -9.7660   YY=            -10.1456   ZZ=            -14.5224
   XY=              2.5160   XZ=              0.0000   YZ=              0.0000

 Normal termination of Gaussian 16 at Fri Aug 26 15:24:16 2022.
