 Gaussian 16, Revision A.03,
 Gaussian 16:  ES64L-G16RevA.03 25-Dec-2016

 ------------------
 #p CCSD(T)/cc-pVTZ
 ------------------

 ------------
 H2O_H2O_2465
 ------------
 Symbolic Z-matrix:
 Charge =  0 Multiplicity = 1

                         Standard orientation:
 ---------------------------------------------------------------------
 Center     Atomic      Atomic             Coordinates (Angstroms)
 Number     Number       Type             X           Y           Z
 ---------------------------------------------------------------------
      1          8           0        0.044880    2.089977   -0.000000
      2          1           0        0.042839    1.107378   -0.000000
      3          1           0       -0.883949    2.410574   -0.000000
      4          8           0        0.044880   -1.909599    0.000000
      5          1           0        0.860748   -2.457199    0.000000
      6          1           0       -0.737716   -2.503778    0.000000
 ---------------------------------------------------------------------

 SCF Done:  E(RHF) =  -152.111044056     A.U. after   10 cycles
 E2 =    -0.5261074618D+00 EUMP2 =    -0.15263715151783D+03
 CCSD(T)
 CCSD(T)= -0.15266425499D+03

 The electronic state is 1-A'.
 Alpha  occ. eigenvalues --  -20.56971 -20.54089  -1.34231  -1.31423  -0.71624
 Alpha  occ. eigenvalues --   -0.68821  -0.57834  -0.54909  -0.51368  -0.48568
 Alpha virt. eigenvalues --    0.12341   0.16489   0.19311   0.24279   0.52605
 Alpha virt. eigenvalues --    0.55539   0.56349   0.58984   0.69046   0.70874
 Alpha virt. eigenvalues --    0.77319   0.78599   0.80276   0.81116   0.83688

 Mulliken charges:
               1
     1  O   -0.523887
     2  H    0.266814
     3  H    0.250616
     4  O   -0.511090
     5  H    0.260641
     6  H    0.256905
 Sum of Mulliken charges =  -0.00000

 Dipole moment (field-independent basis, Debye):
    X=             -1.5246    Y=             -3.3130    Z=              0.0000  Tot=              3.6469
 Quadrupole moment (field-independent basis, Debye-Ang):
   XX=             -9.1581   YY=             -7.5375   ZZ=            -14.7236
   XY=             -4.4350   XZ=              0.0000   YZ=             -0.0000

 36835\MP4DQ=-152.646133\MP4SDQ=-152.6491965\CCSD=-152.6485976\CCSD(T)=
 Normal termination of Gaussian 16 at Sun Aug 28 07:32:56 2022.
