 Gaussian 16, Revision A.03,
 Gaussian 16:  ES64L-G16RevA.03 25-Dec-2016

 ------------------
 #p CCSD(T)/cc-pVTZ
 ------------------

 -----------
 H2O_H2O_606
 -----------
 Symbolic Z-matrix:
 Charge =  0 Multiplicity = 1

                         Standard orientation:
 ---------------------------------------------------------------------
 Center     Atomic      Atomic             Coordinates (Angstroms)
 Number     Number       Type             X           Y           Z
 ---------------------------------------------------------------------
      1          8           0        0.076798   -1.342685    0.000000
      2          1           0        0.075709   -0.360084    0.000000
      3          1           0       -0.852341   -1.662382    0.000000
      4          8           0        0.076798    1.179552    0.000000
      5          1           0        0.451818    2.087774    0.000000
      6          1           0       -0.903957    1.239758    0.000000
 ---------------------------------------------------------------------

 SCF Done:  E(RHF) =  -152.101703144     A.U. after   11 cycles
 E2 =    -0.5316025439D+00 EUMP2 =    -0.15263330568823D+03
 CCSD(T)
 CCSD(T)= -0.15265986320D+03

 The electronic state is 1-A'.
 Alpha  occ. eigenvalues --  -20.59807 -20.50539  -1.38072  -1.28624  -0.75888
 Alpha  occ. eigenvalues --   -0.69135  -0.59252  -0.54731  -0.51198  -0.45613
 Alpha virt. eigenvalues --    0.11275   0.16802   0.20263   0.32802   0.48314
 Alpha virt. eigenvalues --    0.53344   0.59274   0.62914   0.70874   0.72062
 Alpha virt. eigenvalues --    0.74027   0.78134   0.79545   0.83769   0.83870

 Mulliken charges:
               1
     1  O   -0.580536
     2  H    0.299387
     3  H    0.222018
     4  O   -0.418129
     5  H    0.237706
     6  H    0.239554
 Sum of Mulliken charges =  -0.00000

 Dipole moment (field-independent basis, Debye):
    X=             -2.4715    Y=              3.7804    Z=              0.0000  Tot=              4.5166
 Quadrupole moment (field-independent basis, Debye-Ang):
   XX=             -9.9775   YY=             -9.2186   ZZ=            -14.6703
   XY=              2.7441   XZ=              0.0000   YZ=              0.0000

 Normal termination of Gaussian 16 at Fri Aug 26 19:21:27 2022.
