 Gaussian 16, Revision A.03,
 Gaussian 16:  ES64L-G16RevA.03 25-Dec-2016

 ------------------
 #p CCSD(T)/cc-pVTZ
 ------------------

 ------------
 H2O_H2O_4369
 ------------
 Symbolic Z-matrix:
 Charge =  0 Multiplicity = 1

                         Standard orientation:
 ---------------------------------------------------------------------
 Center     Atomic      Atomic             Coordinates (Angstroms)
 Number     Number       Type             X           Y           Z
 ---------------------------------------------------------------------
      1          8           0        0.030151    2.845266    0.000000
      2          1           0        0.028219    1.862666    0.000000
      3          1           0       -0.898714    3.165759    0.000000
      4          8           0        0.030151   -2.669632   -0.000000
      5          1           0        0.959984   -2.987308   -0.000000
      6          1           0       -0.571907   -3.446183   -0.000000
 ---------------------------------------------------------------------

 SCF Done:  E(RHF) =  -152.108554103     A.U. after   10 cycles
 E2 =    -0.5258011126D+00 EUMP2 =    -0.15263435521566D+03
 CCSD(T)
 CCSD(T)= -0.15266154895D+03

 The electronic state is 1-A'.
 Alpha  occ. eigenvalues --  -20.56206 -20.54940  -1.33507  -1.32248  -0.70911
 Alpha  occ. eigenvalues --   -0.69652  -0.57005  -0.55723  -0.50627  -0.49373
 Alpha virt. eigenvalues --    0.13271   0.14999   0.19624   0.21164   0.53558
 Alpha virt. eigenvalues --    0.54906   0.56656   0.57808   0.66770   0.68820
 Alpha virt. eigenvalues --    0.78261   0.79470   0.79480   0.80277   0.82713

 Mulliken charges:
               1
     1  O   -0.514699
     2  H    0.260483
     3  H    0.254037
     4  O   -0.515282
     5  H    0.257929
     6  H    0.257533
 Sum of Mulliken charges =  -0.00000

 Dipole moment (field-independent basis, Debye):
    X=             -1.0343    Y=             -3.0863    Z=             -0.0000  Tot=              3.2550
 Quadrupole moment (field-independent basis, Debye-Ang):
   XX=             -9.2303   YY=             -6.5624   ZZ=            -14.7153
   XY=             -6.5571   XZ=             -0.0000   YZ=              0.0000

 Normal termination of Gaussian 16 at Sun Aug 28 02:18:30 2022.
