 Gaussian 16, Revision A.03,
 Gaussian 16:  ES64L-G16RevA.03 25-Dec-2016

 ------------------
 #p CCSD(T)/cc-pVTZ
 ------------------

 ------------
 H2O_H2O_3912
 ------------
 Symbolic Z-matrix:
 Charge =  0 Multiplicity = 1

                         Standard orientation:
 ---------------------------------------------------------------------
 Center     Atomic      Atomic             Coordinates (Angstroms)
 Number     Number       Type             X           Y           Z
 ---------------------------------------------------------------------
      1          8           0        0.055974    2.667557    0.000000
      2          1           0        0.054757    1.684956    0.000000
      3          1           0       -0.873123    2.987374    0.000000
      4          8           0        0.055974   -2.488630   -0.000000
      5          1           0        0.749918   -3.184294   -0.000000
      6          1           0       -0.827142   -2.919456   -0.000000
 ---------------------------------------------------------------------

 SCF Done:  E(RHF) =  -152.108717080     A.U. after   10 cycles
 E2 =    -0.5258344080D+00 EUMP2 =    -0.15263455148846D+03
 CCSD(T)
 CCSD(T)= -0.15266173599D+03

 The electronic state is 1-A'.
 Alpha  occ. eigenvalues --  -20.56318 -20.54809  -1.33615  -1.32119  -0.71019
 Alpha  occ. eigenvalues --   -0.69516  -0.57118  -0.55594  -0.50735  -0.49245
 Alpha virt. eigenvalues --    0.12999   0.15233   0.19607   0.21377   0.53505
 Alpha virt. eigenvalues --    0.54935   0.56556   0.57858   0.66692   0.69141
 Alpha virt. eigenvalues --    0.78161   0.79251   0.79604   0.79796   0.82890

 Mulliken charges:
               1
     1  O   -0.514744
     2  H    0.261738
     3  H    0.252449
     4  O   -0.515135
     5  H    0.259335
     6  H    0.256357
 Sum of Mulliken charges =  -0.00000

 Dipole moment (field-independent basis, Debye):
    X=             -1.9160    Y=             -3.1623    Z=             -0.0000  Tot=              3.6975
 Quadrupole moment (field-independent basis, Debye-Ang):
   XX=             -9.2856   YY=             -6.6717   ZZ=            -14.7159
   XY=             -4.8221   XZ=             -0.0000   YZ=              0.0000

 Normal termination of Gaussian 16 at Sat Aug 27 00:25:49 2022.
