 Gaussian 16, Revision A.03,
 Gaussian 16:  ES64L-G16RevA.03 25-Dec-2016

 ------------------
 #p CCSD(T)/cc-pVTZ
 ------------------

 ------------
 H2O_H2O_3907
 ------------
 Symbolic Z-matrix:
 Charge =  0 Multiplicity = 1

                         Standard orientation:
 ---------------------------------------------------------------------
 Center     Atomic      Atomic             Coordinates (Angstroms)
 Number     Number       Type             X           Y           Z
 ---------------------------------------------------------------------
      1          8           0        0.073528    2.661052    0.000000
      2          1           0        0.072889    1.678451    0.000000
      3          1           0       -0.855757    2.980323    0.000000
      4          8           0        0.073528   -2.494097   -0.000000
      5          1           0        0.507548   -3.375649   -0.000000
      6          1           0       -0.901132   -2.618764   -0.000000
 ---------------------------------------------------------------------

 SCF Done:  E(RHF) =  -152.108399963     A.U. after   10 cycles
 E2 =    -0.5258612393D+00 EUMP2 =    -0.15263426120230D+03
 CCSD(T)
 CCSD(T)= -0.15266145263D+03

 The electronic state is 1-A'.
 Alpha  occ. eigenvalues --  -20.56326 -20.54939  -1.33624  -1.32246  -0.71034
 Alpha  occ. eigenvalues --   -0.69641  -0.57113  -0.55713  -0.50741  -0.49367
 Alpha virt. eigenvalues --    0.12792   0.15163   0.19423   0.21497   0.53305
 Alpha virt. eigenvalues --    0.55010   0.56518   0.57892   0.66705   0.69046
 Alpha virt. eigenvalues --    0.78156   0.78965   0.79488   0.80480   0.82747

 Mulliken charges:
               1
     1  O   -0.512945
     2  H    0.260721
     3  H    0.251743
     4  O   -0.513647
     5  H    0.259437
     6  H    0.254692
 Sum of Mulliken charges =   0.00000

 Dipole moment (field-independent basis, Debye):
    X=             -2.5166    Y=             -2.9499    Z=             -0.0000  Tot=              3.8775
 Quadrupole moment (field-independent basis, Debye-Ang):
   XX=             -9.8109   YY=             -7.2845   ZZ=            -14.7147
   XY=             -3.7924   XZ=             -0.0000   YZ=              0.0000

 Normal termination of Gaussian 16 at Sat Aug 27 00:24:10 2022.
