 Gaussian 16, Revision A.03,
 Gaussian 16:  ES64L-G16RevA.03 25-Dec-2016

 ------------------
 #p CCSD(T)/cc-pVTZ
 ------------------

 ----------
 H2O_H2O_47
 ----------
 Symbolic Z-matrix:
 Charge =  0 Multiplicity = 1

                         Standard orientation:
 ---------------------------------------------------------------------
 Center     Atomic      Atomic             Coordinates (Angstroms)
 Number     Number       Type             X           Y           Z
 ---------------------------------------------------------------------
      1          8           0        0.020139   -1.115437    0.000000
      2          1           0        0.014129   -0.132854    0.000000
      3          1           0       -0.907388   -1.439782    0.000000
      4          8           0        0.020139    0.948466    0.000000
      5          1           0        0.993532    1.082677    0.000000
      6          1           0       -0.422498    1.825722    0.000000
 ---------------------------------------------------------------------

 SCF Done:  E(RHF) =  -152.030759176     A.U. after   11 cycles
 E2 =    -0.5365415028D+00 EUMP2 =    -0.15256730067881D+03
 CCSD(T)
 CCSD(T)= -0.15259275184D+03

 The electronic state is 1-A'.
 Alpha  occ. eigenvalues --  -20.61938 -20.44194  -1.44375  -1.24515  -0.82417
 Alpha  occ. eigenvalues --   -0.74474  -0.58729  -0.55347  -0.44197  -0.41069
 Alpha virt. eigenvalues --    0.10543   0.16834   0.20977   0.33369   0.47378
 Alpha virt. eigenvalues --    0.51551   0.60404   0.69132   0.70454   0.71402
 Alpha virt. eigenvalues --    0.76237   0.77082   0.80994   0.85120   0.88130

 Mulliken charges:
               1
     1  O   -0.686562
     2  H    0.269727
     3  H    0.218996
     4  O   -0.298517
     5  H    0.266874
     6  H    0.229483
 Sum of Mulliken charges =  -0.00000

 Dipole moment (field-independent basis, Debye):
    X=             -0.5994    Y=              4.8395    Z=              0.0000  Tot=              4.8765
 Quadrupole moment (field-independent basis, Debye-Ang):
   XX=             -9.3107   YY=            -10.1719   ZZ=            -14.5349
   XY=              2.7632   XZ=              0.0000   YZ=              0.0000

 Normal termination of Gaussian 16 at Fri Aug 26 15:30:27 2022.
