 Gaussian 16, Revision A.03,
 Gaussian 16:  ES64L-G16RevA.03 25-Dec-2016

 ------------------
 #p CCSD(T)/cc-pVTZ
 ------------------

 ------------
 H2O_H2O_2959
 ------------
 Symbolic Z-matrix:
 Charge =  0 Multiplicity = 1

                         Standard orientation:
 ---------------------------------------------------------------------
 Center     Atomic      Atomic             Coordinates (Angstroms)
 Number     Number       Type             X           Y           Z
 ---------------------------------------------------------------------
      1          8           0        0.066763    2.285459   -0.000000
      2          1           0        0.065752    1.302858   -0.000000
      3          1           0       -0.862402    2.605081   -0.000000
      4          8           0        0.066763   -2.112358    0.000000
      5          1           0        0.611826   -2.929923    0.000000
      6          1           0       -0.883382   -2.362818    0.000000
 ---------------------------------------------------------------------

 SCF Done:  E(RHF) =  -152.109539790     A.U. after   10 cycles
 E2 =    -0.5259874819D+00 EUMP2 =    -0.15263552727159D+03
 CCSD(T)
 CCSD(T)= -0.15266267415D+03

 The electronic state is 1-A'.
 Alpha  occ. eigenvalues --  -20.56676 -20.54534  -1.33956  -1.31851  -0.71364
 Alpha  occ. eigenvalues --   -0.69238  -0.57484  -0.55329  -0.51081  -0.48981
 Alpha virt. eigenvalues --    0.12321   0.15889   0.19439   0.22737   0.53432
 Alpha virt. eigenvalues --    0.55346   0.56276   0.58591   0.68289   0.69335
 Alpha virt. eigenvalues --    0.77807   0.78964   0.79857   0.79864   0.83135

 Mulliken charges:
               1
     1  O   -0.517084
     2  H    0.263973
     3  H    0.250158
     4  O   -0.512355
     5  H    0.260113
     6  H    0.255195
 Sum of Mulliken charges =   0.00000

 Dipole moment (field-independent basis, Debye):
    X=             -2.2749    Y=             -3.1203    Z=              0.0000  Tot=              3.8615
 Quadrupole moment (field-independent basis, Debye-Ang):
   XX=             -9.5658   YY=             -7.4744   ZZ=            -14.7185
   XY=             -3.8724   XZ=              0.0000   YZ=             -0.0000

 CCSD(T)=-152.6626741\RMSD=6.932e-09\PG=CS [SG(H4O2)]\\@
 Normal termination of Gaussian 16 at Fri Aug 26 18:45:27 2022.
