 Gaussian 16, Revision A.03,
 Gaussian 16:  ES64L-G16RevA.03 25-Dec-2016

 ------------------
 #p CCSD(T)/cc-pVTZ
 ------------------

 ------------
 H2O_H2O_2533
 ------------
 Symbolic Z-matrix:
 Charge =  0 Multiplicity = 1

                         Standard orientation:
 ---------------------------------------------------------------------
 Center     Atomic      Atomic             Coordinates (Angstroms)
 Number     Number       Type             X           Y           Z
 ---------------------------------------------------------------------
      1          8           0        0.070207    2.114377   -0.000000
      2          1           0        0.069255    1.131776   -0.000000
      3          1           0       -0.858977    2.433943   -0.000000
      4          8           0        0.070207   -1.944146    0.000000
      5          1           0        0.560684   -2.795579    0.000000
      6          1           0       -0.894274   -2.131986    0.000000
 ---------------------------------------------------------------------

 SCF Done:  E(RHF) =  -152.110147015     A.U. after   10 cycles
 E2 =    -0.5261492737D+00 EUMP2 =    -0.15263629628895D+03
 CCSD(T)
 CCSD(T)= -0.15266341807D+03

 The electronic state is 1-A'.
 Alpha  occ. eigenvalues --  -20.56923 -20.54355  -1.34193  -1.31679  -0.71605
 Alpha  occ. eigenvalues --   -0.69061  -0.57747  -0.55151  -0.51320  -0.48812
 Alpha virt. eigenvalues --    0.12118   0.16219   0.19419   0.23880   0.53198
 Alpha virt. eigenvalues --    0.55639   0.56096   0.58702   0.68860   0.70439
 Alpha virt. eigenvalues --    0.77413   0.78990   0.80050   0.80823   0.83319

 Mulliken charges:
               1
     1  O   -0.519306
     2  H    0.265584
     3  H    0.248519
     4  O   -0.509063
     5  H    0.259881
     6  H    0.254385
 Sum of Mulliken charges =  -0.00000

 Dipole moment (field-independent basis, Debye):
    X=             -2.3848    Y=             -3.1131    Z=              0.0000  Tot=              3.9216
 Quadrupole moment (field-independent basis, Debye-Ang):
   XX=             -9.6902   YY=             -7.7974   ZZ=            -14.7203
   XY=             -3.5721   XZ=              0.0000   YZ=             -0.0000

 Normal termination of Gaussian 16 at Fri Aug 26 15:25:08 2022.
