 Gaussian 16, Revision A.03,
 Gaussian 16:  ES64L-G16RevA.03 25-Dec-2016

 ------------------
 #p CCSD(T)/cc-pVTZ
 ------------------

 ------------
 H2O_H2O_3254
 ------------
 Symbolic Z-matrix:
 Charge =  0 Multiplicity = 1

                         Standard orientation:
 ---------------------------------------------------------------------
 Center     Atomic      Atomic             Coordinates (Angstroms)
 Number     Number       Type             X           Y           Z
 ---------------------------------------------------------------------
      1          8           0        0.082803    2.395027   -0.000000
      2          1           0        0.082431    1.412426   -0.000000
      3          1           0       -0.846569    2.714045   -0.000000
      4          8           0        0.082803   -2.240508    0.000000
      5          1           0        0.336760   -3.189724    0.000000
      6          1           0       -0.897471   -2.172900    0.000000
 ---------------------------------------------------------------------

 SCF Done:  E(RHF) =  -152.108548405     A.U. after   10 cycles
 E2 =    -0.5259693311D+00 EUMP2 =    -0.15263451773587D+03
 CCSD(T)
 CCSD(T)= -0.15266169448D+03

 The electronic state is 1-A'.
 Alpha  occ. eigenvalues --  -20.56543 -20.54913  -1.33835  -1.32221  -0.71254
 Alpha  occ. eigenvalues --   -0.69607  -0.57323  -0.55684  -0.50951  -0.49340
 Alpha virt. eigenvalues --    0.12076   0.15527   0.19331   0.22422   0.53686
 Alpha virt. eigenvalues --    0.54990   0.56409   0.58199   0.67373   0.69164
 Alpha virt. eigenvalues --    0.77954   0.78601   0.79516   0.80844   0.82745

 Mulliken charges:
               1
     1  O   -0.512718
     2  H    0.261125
     3  H    0.250181
     4  O   -0.511341
     5  H    0.259862
     6  H    0.252892
 Sum of Mulliken charges =   0.00000

 Dipole moment (field-independent basis, Debye):
    X=             -2.8251    Y=             -2.7603    Z=              0.0000  Tot=              3.9497
 Quadrupole moment (field-independent basis, Debye-Ang):
   XX=            -10.2522   YY=             -8.1379   ZZ=            -14.7150
   XY=             -3.0205   XZ=              0.0000   YZ=              0.0000

 Normal termination of Gaussian 16 at Fri Aug 26 20:39:34 2022.
