 Gaussian 16, Revision A.03,
 Gaussian 16:  ES64L-G16RevA.03 25-Dec-2016

 ------------------
 #p CCSD(T)/cc-pVTZ
 ------------------

 ------------
 H2O_H2O_3964
 ------------
 Symbolic Z-matrix:
 Charge =  0 Multiplicity = 1

                         Standard orientation:
 ---------------------------------------------------------------------
 Center     Atomic      Atomic             Coordinates (Angstroms)
 Number     Number       Type             X           Y           Z
 ---------------------------------------------------------------------
      1          8           0        0.048563    2.688307   -0.000000
      2          1           0        0.047113    1.705707   -0.000000
      3          1           0       -0.880459    3.008344   -0.000000
      4          8           0        0.048563   -2.507897    0.000000
      5          1           0        0.827231   -3.107217    0.000000
      6          1           0       -0.770892   -3.050113    0.000000
 ---------------------------------------------------------------------

 SCF Done:  E(RHF) =  -152.108756676     A.U. after   10 cycles
 E2 =    -0.5258238367D+00 EUMP2 =    -0.15263458051249D+03
 CCSD(T)
 CCSD(T)= -0.15266176503D+03

 The electronic state is 1-A'.
 Alpha  occ. eigenvalues --  -20.56302 -20.54804  -1.33599  -1.32115  -0.71002
 Alpha  occ. eigenvalues --   -0.69514  -0.57105  -0.55591  -0.50720  -0.49241
 Alpha virt. eigenvalues --    0.13062   0.15218   0.19635   0.21340   0.53550
 Alpha virt. eigenvalues --    0.54917   0.56578   0.57841   0.66681   0.69122
 Alpha virt. eigenvalues --    0.78174   0.79477   0.79597   0.79607   0.82896

 Mulliken charges:
               1
     1  O   -0.515111
     2  H    0.261749
     3  H    0.252856
     4  O   -0.515487
     5  H    0.259121
     6  H    0.256872
 Sum of Mulliken charges =  -0.00000

 Dipole moment (field-independent basis, Debye):
    X=             -1.6628    Y=             -3.1862    Z=              0.0000  Tot=              3.5940
 Quadrupole moment (field-independent basis, Debye-Ang):
   XX=             -9.1822   YY=             -6.5646   ZZ=            -14.7160
   XY=             -5.2391   XZ=              0.0000   YZ=             -0.0000

 Normal termination of Gaussian 16 at Sat Aug 27 00:43:15 2022.
