 Gaussian 16, Revision A.03,
 Gaussian 16:  ES64L-G16RevA.03 25-Dec-2016

 ------------------
 #p CCSD(T)/cc-pVTZ
 ------------------

 ------------
 H2O_H2O_1759
 ------------
 Symbolic Z-matrix:
 Charge =  0 Multiplicity = 1

                         Standard orientation:
 ---------------------------------------------------------------------
 Center     Atomic      Atomic             Coordinates (Angstroms)
 Number     Number       Type             X           Y           Z
 ---------------------------------------------------------------------
      1          8           0        0.066788    1.806787   -0.000000
      2          1           0        0.065495    0.824186   -0.000000
      3          1           0       -0.862285    2.126675   -0.000000
      4          8           0        0.066788   -1.633725    0.000000
      5          1           0        0.611617   -2.451445    0.000000
      6          1           0       -0.883430   -1.883912    0.000000
 ---------------------------------------------------------------------

 SCF Done:  E(RHF) =  -152.112266737     A.U. after   10 cycles
 E2 =    -0.5267849154D+00 EUMP2 =    -0.15263905165281D+03
 CCSD(T)
 CCSD(T)= -0.15266610048D+03

 The electronic state is 1-A'.
 Alpha  occ. eigenvalues --  -20.57612 -20.53593  -1.34880  -1.30969  -0.72284
 Alpha  occ. eigenvalues --   -0.68421  -0.58579  -0.54381  -0.52007  -0.48111
 Alpha virt. eigenvalues --    0.11983   0.16948   0.19319   0.27233   0.50544
 Alpha virt. eigenvalues --    0.55289   0.56354   0.58708   0.69260   0.72889
 Alpha virt. eigenvalues --    0.75352   0.77403   0.80915   0.83181   0.84132

 Mulliken charges:
               1
     1  O   -0.529385
     2  H    0.271590
     3  H    0.244741
     4  O   -0.503824
     5  H    0.261803
     6  H    0.255075
 Sum of Mulliken charges =   0.00000

 Dipole moment (field-independent basis, Debye):
    X=             -2.2480    Y=             -3.3093    Z=              0.0000  Tot=              4.0006
 Quadrupole moment (field-independent basis, Debye-Ang):
   XX=             -9.5798   YY=             -8.1718   ZZ=            -14.7288
   XY=             -3.4317   XZ=              0.0000   YZ=             -0.0000

 Normal termination of Gaussian 16 at Sun Aug 28 01:21:52 2022.
