 Gaussian 16, Revision A.03,
 Gaussian 16:  ES64L-G16RevA.03 25-Dec-2016

 ------------------
 #p CCSD(T)/cc-pVTZ
 ------------------

 ------------
 H2O_H2O_1480
 ------------
 Symbolic Z-matrix:
 Charge =  0 Multiplicity = 1

                         Standard orientation:
 ---------------------------------------------------------------------
 Center     Atomic      Atomic             Coordinates (Angstroms)
 Number     Number       Type             X           Y           Z
 ---------------------------------------------------------------------
      1          8           0        0.079868   -1.689471    0.000000
      2          1           0        0.079178   -0.706870    0.000000
      3          1           0       -0.849401   -2.008791    0.000000
      4          8           0        0.079868    1.530443    0.000000
      5          1           0        0.395061    2.461119    0.000000
      6          1           0       -0.902727    1.526773    0.000000
 ---------------------------------------------------------------------

 SCF Done:  E(RHF) =  -152.111449302     A.U. after   10 cycles
 E2 =    -0.5274216427D+00 EUMP2 =    -0.15263887094480D+03
 CCSD(T)
 CCSD(T)= -0.15266590516D+03

 The electronic state is 1-A'.
 Alpha  occ. eigenvalues --  -20.57936 -20.53619  -1.35267  -1.31020  -0.72789
 Alpha  occ. eigenvalues --   -0.68477  -0.58904  -0.54364  -0.52356  -0.48141
 Alpha virt. eigenvalues --    0.11727   0.16732   0.19751   0.28409   0.49629
 Alpha virt. eigenvalues --    0.55081   0.57475   0.58307   0.69304   0.74086
 Alpha virt. eigenvalues --    0.74472   0.77122   0.81086   0.82558   0.83883

 Mulliken charges:
               1
     1  O   -0.530783
     2  H    0.276030
     3  H    0.240490
     4  O   -0.489678
     5  H    0.253400
     6  H    0.250541
 Sum of Mulliken charges =  -0.00000

 Dipole moment (field-independent basis, Debye):
    X=             -2.6699    Y=              3.1150    Z=              0.0000  Tot=              4.1027
 Quadrupole moment (field-independent basis, Debye-Ang):
   XX=            -10.1336   YY=             -8.5781   ZZ=            -14.7226
   XY=              2.8853   XZ=              0.0000   YZ=              0.0000

 Normal termination of Gaussian 16 at Sat Aug 27 00:50:33 2022.
