 Gaussian 16, Revision A.03,
 Gaussian 16:  ES64L-G16RevA.03 25-Dec-2016

 ------------------
 #p CCSD(T)/cc-pVTZ
 ------------------

 ------------
 H2O_H2O_4717
 ------------
 Symbolic Z-matrix:
 Charge =  0 Multiplicity = 1

                         Standard orientation:
 ---------------------------------------------------------------------
 Center     Atomic      Atomic             Coordinates (Angstroms)
 Number     Number       Type             X           Y           Z
 ---------------------------------------------------------------------
      1          8           0        0.037405    2.986699   -0.000000
      2          1           0        0.035779    2.004099   -0.000000
      3          1           0       -0.891560    3.306903    0.000000
      4          8           0        0.037405   -2.807701   -0.000000
      5          1           0        0.917953   -3.243752   -0.000000
      6          1           0       -0.660649   -3.499240    0.000000
 ---------------------------------------------------------------------

 SCF Done:  E(RHF) =  -152.108369026     A.U. after   10 cycles
 E2 =    -0.5258020154D+00 EUMP2 =    -0.15263417104169D+03
 CCSD(T)
 CCSD(T)= -0.15266137046D+03

 The electronic state is 1-A'.
 Alpha  occ. eigenvalues --  -20.56146 -20.54992  -1.33448  -1.32299  -0.70852
 Alpha  occ. eigenvalues --   -0.69702  -0.56940  -0.55770  -0.50567  -0.49422
 Alpha virt. eigenvalues --    0.13459   0.14852   0.19716   0.20974   0.53685
 Alpha virt. eigenvalues --    0.54831   0.56698   0.57786   0.66948   0.68621
 Alpha virt. eigenvalues --    0.78317   0.79436   0.79700   0.80370   0.82468

 Mulliken charges:
               1
     1  O   -0.513828
     2  H    0.259944
     3  H    0.253813
     4  O   -0.514459
     5  H    0.257726
     6  H    0.256804
 Sum of Mulliken charges =  -0.00000

 Dipole moment (field-independent basis, Debye):
    X=             -1.2837    Y=             -3.1364    Z=              0.0000  Tot=              3.3890
 Quadrupole moment (field-independent basis, Debye-Ang):
   XX=             -9.1597   YY=             -6.1567   ZZ=            -14.7147
   XY=             -6.3930   XZ=              0.0000   YZ=              0.0000

 8386\MP4DQ=-152.6432944\MP4SDQ=-152.6463413\CCSD=-152.6457569\CCSD(T)=
 Normal termination of Gaussian 16 at Sun Aug 28 05:20:46 2022.
