 Gaussian 16, Revision A.03,
 Gaussian 16:  ES64L-G16RevA.03 25-Dec-2016

 ------------------
 #p CCSD(T)/cc-pVTZ
 ------------------

 ------------
 H2O_H2O_1352
 ------------
 Symbolic Z-matrix:
 Charge =  0 Multiplicity = 1

                         Standard orientation:
 ---------------------------------------------------------------------
 Center     Atomic      Atomic             Coordinates (Angstroms)
 Number     Number       Type             X           Y           Z
 ---------------------------------------------------------------------
      1          8           0        0.088238   -1.631613    0.000000
      2          1           0        0.087981   -0.649011    0.000000
      3          1           0       -0.841172   -1.950522    0.000000
      4          8           0        0.088238    1.487308    0.000000
      5          1           0        0.216238    2.461536    0.000000
      6          1           0       -0.874847    1.292439    0.000000
 ---------------------------------------------------------------------

 SCF Done:  E(RHF) =  -152.109793805     A.U. after   10 cycles
 E2 =    -0.5279546546D+00 EUMP2 =    -0.15263774845966D+03
 CCSD(T)
 CCSD(T)= -0.15266479463D+03

 The electronic state is 1-A'.
 Alpha  occ. eigenvalues --  -20.58090 -20.53900  -1.35488  -1.31303  -0.73232
 Alpha  occ. eigenvalues --   -0.68622  -0.59006  -0.54621  -0.52531  -0.48401
 Alpha virt. eigenvalues --    0.11557   0.16481   0.20241   0.28794   0.49337
 Alpha virt. eigenvalues --    0.54388   0.57905   0.58513   0.68365   0.73286
 Alpha virt. eigenvalues --    0.74575   0.77611   0.80983   0.81787   0.83481

 Mulliken charges:
               1
     1  O   -0.527959
     2  H    0.276736
     3  H    0.237849
     4  O   -0.475331
     5  H    0.245550
     6  H    0.243155
 Sum of Mulliken charges =  -0.00000

 Dipole moment (field-independent basis, Debye):
    X=             -2.9372    Y=              2.8663    Z=              0.0000  Tot=              4.1040
 Quadrupole moment (field-independent basis, Debye-Ang):
   XX=            -10.6024   YY=             -8.9051   ZZ=            -14.7122
   XY=              2.4368   XZ=              0.0000   YZ=              0.0000

 Normal termination of Gaussian 16 at Sat Aug 27 00:03:28 2022.
