 Gaussian 16, Revision A.03,
 Gaussian 16:  ES64L-G16RevA.03 25-Dec-2016

 ------------------
 #p CCSD(T)/cc-pVTZ
 ------------------

 -----------
 H2O_H2O_572
 -----------
 Symbolic Z-matrix:
 Charge =  0 Multiplicity = 1

                         Standard orientation:
 ---------------------------------------------------------------------
 Center     Atomic      Atomic             Coordinates (Angstroms)
 Number     Number       Type             X           Y           Z
 ---------------------------------------------------------------------
      1          8           0       -0.020053    1.324865    0.000000
      2          1           0       -0.015057    0.342276    0.000000
      3          1           0        0.907808    1.648253    0.000000
      4          8           0       -0.020053   -1.157853    0.000000
      5          1           0       -0.993584   -1.291060    0.000000
      6          1           0        0.421680   -2.035565    0.000000
 ---------------------------------------------------------------------

 SCF Done:  E(RHF) =  -152.101869452     A.U. after   11 cycles
 E2 =    -0.5313104851D+00 EUMP2 =    -0.15263317993678D+03
 CCSD(T)
 CCSD(T)= -0.15265964837D+03

 The electronic state is 1-A'.
 Alpha  occ. eigenvalues --  -20.59879 -20.49626  -1.38274  -1.27910  -0.75965
 Alpha  occ. eigenvalues --   -0.69246  -0.59441  -0.54914  -0.50134  -0.44916
 Alpha virt. eigenvalues --    0.11558   0.18070   0.19449   0.33862   0.47741
 Alpha virt. eigenvalues --    0.53608   0.58278   0.68184   0.68768   0.72186
 Alpha virt. eigenvalues --    0.74141   0.76876   0.79608   0.83902   0.84066

 Mulliken charges:
               1
     1  O   -0.611093
     2  H    0.299574
     3  H    0.240748
     4  O   -0.425791
     5  H    0.259793
     6  H    0.236769
 Sum of Mulliken charges =  -0.00000

 Dipole moment (field-independent basis, Debye):
    X=              0.6557    Y=             -3.9418    Z=              0.0000  Tot=              3.9960
 Quadrupole moment (field-independent basis, Debye-Ang):
   XX=             -9.4039   YY=             -9.3008   ZZ=            -14.6745
   XY=              3.3559   XZ=              0.0000   YZ=              0.0000

 Normal termination of Gaussian 16 at Fri Aug 26 19:09:00 2022.
