 Gaussian 16, Revision A.03,
 Gaussian 16:  ES64L-G16RevA.03 25-Dec-2016

 ------------------
 #p CCSD(T)/cc-pVTZ
 ------------------

 ------------
 H2O_H2O_1069
 ------------
 Symbolic Z-matrix:
 Charge =  0 Multiplicity = 1

                         Standard orientation:
 ---------------------------------------------------------------------
 Center     Atomic      Atomic             Coordinates (Angstroms)
 Number     Number       Type             X           Y           Z
 ---------------------------------------------------------------------
      1          8           0        0.030309    1.528921   -0.000000
      2          1           0        0.026613    0.546327   -0.000000
      3          1           0       -0.897979    1.851082   -0.000000
      4          8           0        0.030309   -1.353397    0.000000
      5          1           0        0.959570   -1.672741    0.000000
      6          1           0       -0.573143   -2.128865    0.000000
 ---------------------------------------------------------------------

 SCF Done:  E(RHF) =  -152.113625313     A.U. after   10 cycles
 E2 =    -0.5283281333D+00 EUMP2 =    -0.15264195344663D+03
 CCSD(T)
 CCSD(T)= -0.15266882474D+03

 The electronic state is 1-A'.
 Alpha  occ. eigenvalues --  -20.58664 -20.51855  -1.36139  -1.29505  -0.73458
 Alpha  occ. eigenvalues --   -0.67956  -0.59749  -0.53203  -0.52561  -0.46631
 Alpha virt. eigenvalues --    0.11949   0.18410   0.18628   0.31662   0.48905
 Alpha virt. eigenvalues --    0.54677   0.56108   0.62293   0.68423   0.72528
 Alpha virt. eigenvalues --    0.72849   0.77269   0.82153   0.82607   0.84609

 Mulliken charges:
               1
     1  O   -0.566849
     2  H    0.292415
     3  H    0.245730
     4  O   -0.489776
     5  H    0.265300
     6  H    0.253180
 Sum of Mulliken charges =  -0.00000

 Dipole moment (field-independent basis, Debye):
    X=             -1.0077    Y=             -3.6603    Z=              0.0000  Tot=              3.7965
 Quadrupole moment (field-independent basis, Debye-Ang):
   XX=             -9.2220   YY=             -8.7141   ZZ=            -14.7270
   XY=             -3.6774   XZ=              0.0000   YZ=             -0.0000

 Normal termination of Gaussian 16 at Fri Aug 26 22:16:13 2022.
