 Gaussian 16, Revision A.03,
 Gaussian 16:  ES64L-G16RevA.03 25-Dec-2016

 ------------------
 #p CCSD(T)/cc-pVTZ
 ------------------

 ------------
 H2O_H2O_1636
 ------------
 Symbolic Z-matrix:
 Charge =  0 Multiplicity = 1

                         Standard orientation:
 ---------------------------------------------------------------------
 Center     Atomic      Atomic             Coordinates (Angstroms)
 Number     Number       Type             X           Y           Z
 ---------------------------------------------------------------------
      1          8           0        0.059681    1.759281   -0.000000
      2          1           0        0.057988    0.776681   -0.000000
      3          1           0       -0.869262    2.079547   -0.000000
      4          8           0        0.059681   -1.581889    0.000000
      5          1           0        0.706282   -2.321763    0.000000
      6          1           0       -0.849902   -1.953595    0.000000
 ---------------------------------------------------------------------

 SCF Done:  E(RHF) =  -152.113041087     A.U. after   10 cycles
 E2 =    -0.5269383418D+00 EUMP2 =    -0.15263997942916D+03
 CCSD(T)
 CCSD(T)= -0.15266700520D+03

 The electronic state is 1-A'.
 Alpha  occ. eigenvalues --  -20.57771 -20.53281  -1.35042  -1.30685  -0.72417
 Alpha  occ. eigenvalues --   -0.68211  -0.58798  -0.54071  -0.52171  -0.47831
 Alpha virt. eigenvalues --    0.12020   0.17216   0.19177   0.28068   0.50122
 Alpha virt. eigenvalues --    0.55028   0.56358   0.59024   0.69295   0.72528
 Alpha virt. eigenvalues --    0.74872   0.76905   0.81204   0.83114   0.84488

 Mulliken charges:
               1
     1  O   -0.534518
     2  H    0.274429
     3  H    0.244789
     4  O   -0.504707
     5  H    0.263366
     6  H    0.256641
 Sum of Mulliken charges =  -0.00000

 Dipole moment (field-independent basis, Debye):
    X=             -2.0047    Y=             -3.4305    Z=              0.0000  Tot=              3.9733
 Quadrupole moment (field-independent basis, Debye-Ang):
   XX=             -9.3762   YY=             -8.1911   ZZ=            -14.7321
   XY=             -3.5685   XZ=              0.0000   YZ=             -0.0000

 Normal termination of Gaussian 16 at Sun Aug 28 00:08:18 2022.
