 Gaussian 16, Revision A.03,
 Gaussian 16:  ES64L-G16RevA.03 25-Dec-2016

 ------------------
 #p CCSD(T)/cc-pVTZ
 ------------------

 ------------
 H2O_H2O_2346
 ------------
 Symbolic Z-matrix:
 Charge =  0 Multiplicity = 1

                         Standard orientation:
 ---------------------------------------------------------------------
 Center     Atomic      Atomic             Coordinates (Angstroms)
 Number     Number       Type             X           Y           Z
 ---------------------------------------------------------------------
      1          8           0       -0.023246    2.034684    0.000000
      2          1           0       -0.020210    1.052088    0.000000
      3          1           0        0.905258    2.356221    0.000000
      4          8           0       -0.023246   -1.864318    0.000000
      5          1           0       -0.986370   -2.058990    0.000000
      6          1           0        0.473255   -2.712252    0.000000
 ---------------------------------------------------------------------

 SCF Done:  E(RHF) =  -152.111272274     A.U. after   10 cycles
 E2 =    -0.5261494196D+00 EUMP2 =    -0.15263742169343D+03
 CCSD(T)
 CCSD(T)= -0.15266451897D+03

 The electronic state is 1-A'.
 Alpha  occ. eigenvalues --  -20.57028 -20.54140  -1.34296  -1.31478  -0.71699
 Alpha  occ. eigenvalues --   -0.68889  -0.57912  -0.54963  -0.51431  -0.48627
 Alpha virt. eigenvalues --    0.12265   0.16589   0.19248   0.24838   0.53235
 Alpha virt. eigenvalues --    0.55294   0.56294   0.58640   0.68894   0.71451
 Alpha virt. eigenvalues --    0.77105   0.78874   0.80250   0.82080   0.83646

 Mulliken charges:
               1
     1  O   -0.526342
     2  H    0.266272
     3  H    0.253154
     4  O   -0.511361
     5  H    0.260357
     6  H    0.257920
 Sum of Mulliken charges =  -0.00000

 Dipole moment (field-independent basis, Debye):
    X=              0.7927    Y=             -3.1419    Z=              0.0000  Tot=              3.2403
 Quadrupole moment (field-independent basis, Debye-Ang):
   XX=             -9.3619   YY=             -7.8851   ZZ=            -14.7243
   XY=              5.0536   XZ=              0.0000   YZ=              0.0000

 Normal termination of Gaussian 16 at Sun Aug 28 06:27:56 2022.
