 Gaussian 16, Revision A.03,
 Gaussian 16:  ES64L-G16RevA.03 25-Dec-2016

 ------------------
 #p CCSD(T)/cc-pVTZ
 ------------------

 ------------
 H2O_H2O_1003
 ------------
 Symbolic Z-matrix:
 Charge =  0 Multiplicity = 1

                         Standard orientation:
 ---------------------------------------------------------------------
 Center     Atomic      Atomic             Coordinates (Angstroms)
 Number     Number       Type             X           Y           Z
 ---------------------------------------------------------------------
      1          8           0        0.085613   -1.494865    0.000000
      2          1           0        0.085174   -0.512264    0.000000
      3          1           0       -0.843737   -1.813947    0.000000
      4          8           0        0.085613    1.345297    0.000000
      5          1           0        0.276879    2.309104    0.000000
      6          1           0       -0.888129    1.213654    0.000000
 ---------------------------------------------------------------------

 SCF Done:  E(RHF) =  -152.108554404     A.U. after   10 cycles
 E2 =    -0.5292883465D+00 EUMP2 =    -0.15263784275069D+03
 CCSD(T)
 CCSD(T)= -0.15266476469D+03

 The electronic state is 1-A'.
 Alpha  occ. eigenvalues --  -20.58732 -20.52925  -1.36346  -1.30492  -0.74281
 Alpha  occ. eigenvalues --   -0.68182  -0.59584  -0.53630  -0.53291  -0.47562
 Alpha virt. eigenvalues --    0.11504   0.16623   0.20250   0.30925   0.48411
 Alpha virt. eigenvalues --    0.53753   0.58372   0.60278   0.68791   0.72197
 Alpha virt. eigenvalues --    0.74385   0.77610   0.80712   0.82069   0.83472

 Mulliken charges:
               1
     1  O   -0.543359
     2  H    0.286491
     3  H    0.231814
     4  O   -0.450335
     5  H    0.236500
     6  H    0.238890
 Sum of Mulliken charges =  -0.00000

 Dipole moment (field-independent basis, Debye):
    X=             -2.8175    Y=              3.1470    Z=              0.0000  Tot=              4.2239
 Quadrupole moment (field-independent basis, Debye-Ang):
   XX=            -10.4509   YY=             -8.9685   ZZ=            -14.7004
   XY=              2.5288   XZ=              0.0000   YZ=              0.0000

 Normal termination of Gaussian 16 at Fri Aug 26 21:50:54 2022.
