 Gaussian 16, Revision A.03,
 Gaussian 16:  ES64L-G16RevA.03 25-Dec-2016

 ------------------
 #p CCSD(T)/cc-pVTZ
 ------------------

 ------------
 H2O_H2O_1834
 ------------
 Symbolic Z-matrix:
 Charge =  0 Multiplicity = 1

                         Standard orientation:
 ---------------------------------------------------------------------
 Center     Atomic      Atomic             Coordinates (Angstroms)
 Number     Number       Type             X           Y           Z
 ---------------------------------------------------------------------
      1          8           0        0.066786    1.836704    0.000000
      2          1           0        0.065516    0.854104    0.000000
      3          1           0       -0.862295    2.156572    0.000000
      4          8           0        0.066786   -1.663639   -0.000000
      5          1           0        0.611633   -2.481348   -0.000000
      6          1           0       -0.883426   -1.913848   -0.000000
 ---------------------------------------------------------------------

 SCF Done:  E(RHF) =  -152.112063262     A.U. after   10 cycles
 E2 =    -0.5266841573D+00 EUMP2 =    -0.15263874741935D+03
 CCSD(T)
 CCSD(T)= -0.15266580484D+03

 The electronic state is 1-A'.
 Alpha  occ. eigenvalues --  -20.57528 -20.53688  -1.34792  -1.31054  -0.72197
 Alpha  occ. eigenvalues --   -0.68487  -0.58474  -0.54479  -0.51920  -0.48196
 Alpha virt. eigenvalues --    0.12003   0.16886   0.19324   0.26837   0.50846
 Alpha virt. eigenvalues --    0.55356   0.56281   0.58670   0.69162   0.72790
 Alpha virt. eigenvalues --    0.75643   0.77615   0.80807   0.83247   0.84050

 Mulliken charges:
               1
     1  O   -0.527955
     2  H    0.270499
     3  H    0.245275
     4  O   -0.504495
     5  H    0.261690
     6  H    0.254986
 Sum of Mulliken charges =  -0.00000

 Dipole moment (field-independent basis, Debye):
    X=             -2.2508    Y=             -3.2903    Z=             -0.0000  Tot=              3.9865
 Quadrupole moment (field-independent basis, Debye-Ang):
   XX=             -9.5787   YY=             -8.1230   ZZ=            -14.7280
   XY=             -3.4598   XZ=             -0.0000   YZ=             -0.0000

 Normal termination of Gaussian 16 at Sun Aug 28 02:00:00 2022.
