 Gaussian 16, Revision A.03,
 Gaussian 16:  ES64L-G16RevA.03 25-Dec-2016

 ------------------
 #p CCSD(T)/cc-pVTZ
 ------------------

 ------------
 H2O_H2O_2805
 ------------
 Symbolic Z-matrix:
 Charge =  0 Multiplicity = 1

                         Standard orientation:
 ---------------------------------------------------------------------
 Center     Atomic      Atomic             Coordinates (Angstroms)
 Number     Number       Type             X           Y           Z
 ---------------------------------------------------------------------
      1          8           0        0.079854    2.217997   -0.000000
      2          1           0        0.079334    1.235396   -0.000000
      3          1           0       -0.849470    2.537155   -0.000000
      4          8           0        0.079854   -2.058941    0.000000
      5          1           0        0.395210   -2.989563    0.000000
      6          1           0       -0.902741   -2.055442    0.000000
 ---------------------------------------------------------------------

 SCF Done:  E(RHF) =  -152.109187127     A.U. after   10 cycles
 E2 =    -0.5260788407D+00 EUMP2 =    -0.15263526596717D+03
 CCSD(T)
 CCSD(T)= -0.15266241658D+03

 The electronic state is 1-A'.
 Alpha  occ. eigenvalues --  -20.56753 -20.54690  -1.34036  -1.32003  -0.71458
 Alpha  occ. eigenvalues --   -0.69383  -0.57546  -0.55469  -0.51155  -0.49128
 Alpha virt. eigenvalues --    0.11974   0.15875   0.19466   0.23147   0.53946
 Alpha virt. eigenvalues --    0.55129   0.56342   0.58434   0.68566   0.69421
 Alpha virt. eigenvalues --    0.77698   0.78904   0.79733   0.80558   0.82959

 Mulliken charges:
               1
     1  O   -0.515275
     2  H    0.263286
     3  H    0.248945
     4  O   -0.509580
     5  H    0.259710
     6  H    0.252915
 Sum of Mulliken charges =  -0.00000

 Dipole moment (field-independent basis, Debye):
    X=             -2.7170    Y=             -2.8766    Z=              0.0000  Tot=              3.9569
 Quadrupole moment (field-independent basis, Debye-Ang):
   XX=            -10.1062   YY=             -8.0764   ZZ=            -14.7170
   XY=             -3.1423   XZ=              0.0000   YZ=             -0.0000

 Normal termination of Gaussian 16 at Fri Aug 26 17:26:38 2022.
