 Gaussian 16, Revision A.03,
 Gaussian 16:  ES64L-G16RevA.03 25-Dec-2016

 ------------------
 #p CCSD(T)/cc-pVTZ
 ------------------

 ------------
 H2O_H2O_3333
 ------------
 Symbolic Z-matrix:
 Charge =  0 Multiplicity = 1

                         Standard orientation:
 ---------------------------------------------------------------------
 Center     Atomic      Atomic             Coordinates (Angstroms)
 Number     Number       Type             X           Y           Z
 ---------------------------------------------------------------------
      1          8           0        0.070196    2.433488    0.000000
      2          1           0        0.069373    1.450887    0.000000
      3          1           0       -0.859030    2.752932    0.000000
      4          8           0        0.070196   -2.263239   -0.000000
      5          1           0        0.560785   -3.114608   -0.000000
      6          1           0       -0.894260   -2.451205   -0.000000
 ---------------------------------------------------------------------

 SCF Done:  E(RHF) =  -152.108957824     A.U. after   10 cycles
 E2 =    -0.5259188067D+00 EUMP2 =    -0.15263487663116D+03
 CCSD(T)
 CCSD(T)= -0.15266204519D+03

 The electronic state is 1-A'.
 Alpha  occ. eigenvalues --  -20.56510 -20.54729  -1.33800  -1.32041  -0.71209
 Alpha  occ. eigenvalues --   -0.69431  -0.57306  -0.55514  -0.50921  -0.49167
 Alpha virt. eigenvalues --    0.12452   0.15571   0.19446   0.22070   0.53436
 Alpha virt. eigenvalues --    0.55130   0.56396   0.58210   0.67263   0.69300
 Alpha virt. eigenvalues --    0.77986   0.78735   0.79677   0.80145   0.82950

 Mulliken charges:
               1
     1  O   -0.514828
     2  H    0.262388
     3  H    0.250878
     4  O   -0.513406
     5  H    0.260009
     6  H    0.254959
 Sum of Mulliken charges =  -0.00000

 Dipole moment (field-independent basis, Debye):
    X=             -2.3966    Y=             -3.0392    Z=             -0.0000  Tot=              3.8705
 Quadrupole moment (field-independent basis, Debye-Ang):
   XX=             -9.6833   YY=             -7.3962   ZZ=            -14.7167
   XY=             -3.8258   XZ=             -0.0000   YZ=             -0.0000

 Normal termination of Gaussian 16 at Fri Aug 26 21:07:16 2022.
