 Gaussian 16, Revision A.03,
 Gaussian 16:  ES64L-G16RevA.03 25-Dec-2016

 ------------------
 #p CCSD(T)/cc-pVTZ
 ------------------

 ------------
 H2O_H2O_4828
 ------------
 Symbolic Z-matrix:
 Charge =  0 Multiplicity = 1

                         Standard orientation:
 ---------------------------------------------------------------------
 Center     Atomic      Atomic             Coordinates (Angstroms)
 Number     Number       Type             X           Y           Z
 ---------------------------------------------------------------------
      1          8           0        0.085596   -3.020591    0.000000
      2          1           0        0.085384   -2.037989    0.000000
      3          1           0       -0.843828   -3.339458    0.000000
      4          8           0        0.085596    2.870983    0.000000
      5          1           0        0.277085    3.834745    0.000000
      6          1           0       -0.888178    2.739564    0.000000
 ---------------------------------------------------------------------

 SCF Done:  E(RHF) =  -152.107784553     A.U. after   10 cycles
 E2 =    -0.5258519569D+00 EUMP2 =    -0.15263363650947D+03
 CCSD(T)
 CCSD(T)= -0.15266084855D+03

 The electronic state is 1-A'.
 Alpha  occ. eigenvalues --  -20.56150 -20.55253  -1.33452  -1.32556  -0.70863
 Alpha  occ. eigenvalues --   -0.69954  -0.56917  -0.56011  -0.50565  -0.49671
 Alpha virt. eigenvalues --    0.13225   0.14634   0.19289   0.21122   0.53483
 Alpha virt. eigenvalues --    0.54746   0.56627   0.57632   0.67053   0.68377
 Alpha virt. eigenvalues --    0.78323   0.79199   0.79706   0.80875   0.81776

 Mulliken charges:
               1
     1  O   -0.510464
     2  H    0.257920
     3  H    0.252513
     4  O   -0.511338
     5  H    0.257888
     6  H    0.253481
 Sum of Mulliken charges =   0.00000

 Dipole moment (field-independent basis, Debye):
    X=             -2.9377    Y=              2.6190    Z=              0.0000  Tot=              3.9357
 Quadrupole moment (field-independent basis, Debye-Ang):
   XX=            -10.3961   YY=             -8.0519   ZZ=            -14.7125
   XY=              2.9766   XZ=              0.0000   YZ=              0.0000

 Normal termination of Gaussian 16 at Sun Aug 28 06:12:15 2022.
