 Gaussian 16, Revision A.03,
 Gaussian 16:  ES64L-G16RevA.03 25-Dec-2016

 ------------------
 #p CCSD(T)/cc-pVTZ
 ------------------

 ------------
 H2O_H2O_2760
 ------------
 Symbolic Z-matrix:
 Charge =  0 Multiplicity = 1

                         Standard orientation:
 ---------------------------------------------------------------------
 Center     Atomic      Atomic             Coordinates (Angstroms)
 Number     Number       Type             X           Y           Z
 ---------------------------------------------------------------------
      1          8           0        0.063243    2.206986   -0.000000
      2          1           0        0.062053    1.224385   -0.000000
      3          1           0       -0.865863    2.526778   -0.000000
      4          8           0        0.063243   -2.031488    0.000000
      5          1           0        0.660468   -2.811762    0.000000
      6          1           0       -0.868545   -2.343384    0.000000
 ---------------------------------------------------------------------

 SCF Done:  E(RHF) =  -152.109985395     A.U. after   10 cycles
 E2 =    -0.5260360798D+00 EUMP2 =    -0.15263602147504D+03
 CCSD(T)
 CCSD(T)= -0.15266315363D+03

 The electronic state is 1-A'.
 Alpha  occ. eigenvalues --  -20.56784 -20.54391  -1.34057  -1.31713  -0.71462
 Alpha  occ. eigenvalues --   -0.69100  -0.57605  -0.55193  -0.51185  -0.48847
 Alpha virt. eigenvalues --    0.12295   0.16090   0.19414   0.23238   0.53218
 Alpha virt. eigenvalues --    0.55540   0.56188   0.58800   0.68873   0.69538
 Alpha virt. eigenvalues --    0.77661   0.79050   0.79921   0.79991   0.83295

 Mulliken charges:
               1
     1  O   -0.518928
     2  H    0.265049
     3  H    0.249820
     4  O   -0.511574
     5  H    0.260151
     6  H    0.255482
 Sum of Mulliken charges =  -0.00000

 Dipole moment (field-independent basis, Debye):
    X=             -2.1523    Y=             -3.1844    Z=              0.0000  Tot=              3.8436
 Quadrupole moment (field-independent basis, Debye-Ang):
   XX=             -9.4596   YY=             -7.5015   ZZ=            -14.7200
   XY=             -3.9494   XZ=              0.0000   YZ=             -0.0000

 Normal termination of Gaussian 16 at Fri Aug 26 17:07:41 2022.
