 Gaussian 16, Revision A.03,
 Gaussian 16:  ES64L-G16RevA.03 25-Dec-2016

 ------------------
 #p CCSD(T)/cc-pVTZ
 ------------------

 ------------
 H2O_H2O_1110
 ------------
 Symbolic Z-matrix:
 Charge =  0 Multiplicity = 1

                         Standard orientation:
 ---------------------------------------------------------------------
 Center     Atomic      Atomic             Coordinates (Angstroms)
 Number     Number       Type             X           Y           Z
 ---------------------------------------------------------------------
      1          8           0        0.063291    1.548805    0.000000
      2          1           0        0.061565    0.566205    0.000000
      3          1           0       -0.865641    1.869103    0.000000
      4          8           0        0.063291   -1.373376   -0.000000
      5          1           0        0.660091   -2.153976   -0.000000
      6          1           0       -0.868665   -1.684764   -0.000000
 ---------------------------------------------------------------------

 SCF Done:  E(RHF) =  -152.113018140     A.U. after   10 cycles
 E2 =    -0.5283455092D+00 EUMP2 =    -0.15264136364925D+03
 CCSD(T)
 CCSD(T)= -0.15266826365D+03

 The electronic state is 1-A'.
 Alpha  occ. eigenvalues --  -20.58606 -20.52173  -1.36044  -1.29767  -0.73375
 Alpha  occ. eigenvalues --   -0.68043  -0.59589  -0.53111  -0.52895  -0.46879
 Alpha virt. eigenvalues --    0.11769   0.17442   0.19323   0.31159   0.48479
 Alpha virt. eigenvalues --    0.54753   0.57701   0.59545   0.69814   0.72691
 Alpha virt. eigenvalues --    0.72949   0.76803   0.82191   0.82414   0.84619

 Mulliken charges:
               1
     1  O   -0.555061
     2  H    0.292040
     3  H    0.237943
     4  O   -0.488430
     5  H    0.258946
     6  H    0.254563
 Sum of Mulliken charges =  -0.00000

 Dipole moment (field-independent basis, Debye):
    X=             -2.0941    Y=             -3.6214    Z=             -0.0000  Tot=              4.1833
 Quadrupole moment (field-independent basis, Debye-Ang):
   XX=             -9.4734   YY=             -8.6606   ZZ=            -14.7256
   XY=             -3.2461   XZ=             -0.0000   YZ=              0.0000

 Normal termination of Gaussian 16 at Fri Aug 26 22:31:32 2022.
