 Gaussian 16, Revision A.03,
 Gaussian 16:  ES64L-G16RevA.03 25-Dec-2016

 ------------------
 #p CCSD(T)/cc-pVTZ
 ------------------

 ------------
 H2O_H2O_3218
 ------------
 Symbolic Z-matrix:
 Charge =  0 Multiplicity = 1

                         Standard orientation:
 ---------------------------------------------------------------------
 Center     Atomic      Atomic             Coordinates (Angstroms)
 Number     Number       Type             X           Y           Z
 ---------------------------------------------------------------------
      1          8           0        0.033787    2.387586    0.000000
      2          1           0        0.031603    1.404987    0.000000
      3          1           0       -0.894995    2.708318    0.000000
      4          8           0        0.033787   -2.210061   -0.000000
      5          1           0        0.940754   -2.588102   -0.000000
      6          1           0       -0.617960   -2.945405   -0.000000
 ---------------------------------------------------------------------

 SCF Done:  E(RHF) =  -152.109637833     A.U. after   10 cycles
 E2 =    -0.5258848574D+00 EUMP2 =    -0.15263552268996D+03
 CCSD(T)
 CCSD(T)= -0.15266267520D+03

 The electronic state is 1-A'.
 Alpha  occ. eigenvalues --  -20.56545 -20.54554  -1.33830  -1.31872  -0.71230
 Alpha  occ. eigenvalues --   -0.69272  -0.57366  -0.55361  -0.50958  -0.49007
 Alpha virt. eigenvalues --    0.12591   0.15772   0.19461   0.22322   0.53326
 Alpha virt. eigenvalues --    0.55358   0.56458   0.58244   0.67611   0.69354
 Alpha virt. eigenvalues --    0.77946   0.78890   0.79707   0.79824   0.83145

 Mulliken charges:
               1
     1  O   -0.518691
     2  H    0.263507
     3  H    0.253082
     4  O   -0.515525
     5  H    0.259570
     6  H    0.258057
 Sum of Mulliken charges =  -0.00000

 Dipole moment (field-independent basis, Debye):
    X=             -1.1540    Y=             -3.1787    Z=             -0.0000  Tot=              3.3817
 Quadrupole moment (field-independent basis, Debye-Ang):
   XX=             -9.1860   YY=             -7.1514   ZZ=            -14.7191
   XY=             -5.4022   XZ=             -0.0000   YZ=             -0.0000

 CCSD(T)=-152.6626752\RMSD=6.900e-09\PG=CS [SG(H4O2)]\\@
 Normal termination of Gaussian 16 at Fri Aug 26 20:27:38 2022.
