 Gaussian 16, Revision A.03,
 Gaussian 16:  ES64L-G16RevA.03 25-Dec-2016

 ------------------
 #p CCSD(T)/cc-pVTZ
 ------------------

 ------------
 H2O_H2O_4116
 ------------
 Symbolic Z-matrix:
 Charge =  0 Multiplicity = 1

                         Standard orientation:
 ---------------------------------------------------------------------
 Center     Atomic      Atomic             Coordinates (Angstroms)
 Number     Number       Type             X           Y           Z
 ---------------------------------------------------------------------
      1          8           0        0.041114    2.747889   -0.000000
      2          1           0        0.039460    1.765289   -0.000000
      3          1           0       -0.887841    3.068120   -0.000000
      4          8           0        0.041114   -2.567941    0.000000
      5          1           0        0.891244   -3.060673    0.000000
      6          1           0       -0.700692   -3.212324    0.000000
 ---------------------------------------------------------------------

 SCF Done:  E(RHF) =  -152.108693518     A.U. after   10 cycles
 E2 =    -0.5258117288D+00 EUMP2 =    -0.15263450524649D+03
 CCSD(T)
 CCSD(T)= -0.15266169323D+03

 The electronic state is 1-A'.
 Alpha  occ. eigenvalues --  -20.56262 -20.54846  -1.33561  -1.32156  -0.70964
 Alpha  occ. eigenvalues --   -0.69557  -0.57065  -0.55632  -0.50682  -0.49282
 Alpha virt. eigenvalues --    0.13159   0.15138   0.19651   0.21255   0.53574
 Alpha virt. eigenvalues --    0.54907   0.56613   0.57823   0.66684   0.69022
 Alpha virt. eigenvalues --    0.78209   0.79488   0.79568   0.79807   0.82849

 Mulliken charges:
               1
     1  O   -0.515062
     2  H    0.261359
     3  H    0.253348
     4  O   -0.515568
     5  H    0.258697
     6  H    0.257226
 Sum of Mulliken charges =  -0.00000

 Dipole moment (field-independent basis, Debye):
    X=             -1.4087    Y=             -3.1716    Z=              0.0000  Tot=              3.4703
 Quadrupole moment (field-independent basis, Debye-Ang):
   XX=             -9.1492   YY=             -6.4884   ZZ=            -14.7158
   XY=             -5.7328   XZ=              0.0000   YZ=             -0.0000

 Normal termination of Gaussian 16 at Sat Aug 27 23:52:28 2022.
