 Gaussian 16, Revision A.03,
 Gaussian 16:  ES64L-G16RevA.03 25-Dec-2016

 ------------------
 #p CCSD(T)/cc-pVTZ
 ------------------

 ------------
 H2O_H2O_4680
 ------------
 Symbolic Z-matrix:
 Charge =  0 Multiplicity = 1

                         Standard orientation:
 ---------------------------------------------------------------------
 Center     Atomic      Atomic             Coordinates (Angstroms)
 Number     Number       Type             X           Y           Z
 ---------------------------------------------------------------------
      1          8           0        0.079843    2.965903   -0.000000
      2          1           0        0.079458    1.983302   -0.000000
      3          1           0       -0.849525    3.284934   -0.000000
      4          8           0        0.079843   -2.806825    0.000000
      5          1           0        0.395326   -3.737403    0.000000
      6          1           0       -0.902752   -2.803460    0.000000
 ---------------------------------------------------------------------

 SCF Done:  E(RHF) =  -152.107940109     A.U. after   10 cycles
 E2 =    -0.5258432775D+00 EUMP2 =    -0.15263378338656D+03
 CCSD(T)
 CCSD(T)= -0.15266099150D+03

 The electronic state is 1-A'.
 Alpha  occ. eigenvalues --  -20.56169 -20.55160  -1.33471  -1.32464  -0.70881
 Alpha  occ. eigenvalues --   -0.69862  -0.56942  -0.55923  -0.50585  -0.49580
 Alpha virt. eigenvalues --    0.13236   0.14731   0.19408   0.21098   0.53483
 Alpha virt. eigenvalues --    0.54812   0.56627   0.57701   0.66972   0.68510
 Alpha virt. eigenvalues --    0.78303   0.79286   0.79612   0.80790   0.82073

 Mulliken charges:
               1
     1  O   -0.511239
     2  H    0.258720
     3  H    0.252461
     4  O   -0.512175
     5  H    0.258194
     6  H    0.254038
 Sum of Mulliken charges =   0.00000

 Dipole moment (field-independent basis, Debye):
    X=             -2.7392    Y=             -2.7880    Z=              0.0000  Tot=              3.9085
 Quadrupole moment (field-independent basis, Debye-Ang):
   XX=            -10.0933   YY=             -7.4432   ZZ=            -14.7131
   XY=             -3.4885   XZ=              0.0000   YZ=             -0.0000

 04544\MP4DQ=-152.6429058\MP4SDQ=-152.6459566\CCSD=-152.645371\CCSD(T)=
 Normal termination of Gaussian 16 at Sun Aug 28 05:01:38 2022.
