 Gaussian 16, Revision A.03,
 Gaussian 16:  ES64L-G16RevA.03 25-Dec-2016

 ------------------
 #p CCSD(T)/cc-pVTZ
 ------------------

 ------------
 H2O_H2O_2684
 ------------
 Symbolic Z-matrix:
 Charge =  0 Multiplicity = 1

                         Standard orientation:
 ---------------------------------------------------------------------
 Center     Atomic      Atomic             Coordinates (Angstroms)
 Number     Number       Type             X           Y           Z
 ---------------------------------------------------------------------
      1          8           0        0.066768    2.175764    0.000000
      2          1           0        0.065704    1.193163    0.000000
      3          1           0       -0.862380    2.495436    0.000000
      4          8           0        0.066768   -2.002671   -0.000000
      5          1           0        0.611787   -2.820265   -0.000000
      6          1           0       -0.883391   -2.253079   -0.000000
 ---------------------------------------------------------------------

 SCF Done:  E(RHF) =  -152.110002832     A.U. after   10 cycles
 E2 =    -0.5260734451D+00 EUMP2 =    -0.15263607627747D+03
 CCSD(T)
 CCSD(T)= -0.15266320571D+03

 The electronic state is 1-A'.
 Alpha  occ. eigenvalues --  -20.56828 -20.54392  -1.34101  -1.31713  -0.71508
 Alpha  occ. eigenvalues --   -0.69098  -0.57648  -0.55190  -0.51228  -0.48847
 Alpha virt. eigenvalues --    0.12220   0.16126   0.19412   0.23439   0.53268
 Alpha virt. eigenvalues --    0.55559   0.56153   0.58787   0.68893   0.69786
 Alpha virt. eigenvalues --    0.77590   0.79037   0.79998   0.80210   0.83288

 Mulliken charges:
               1
     1  O   -0.518874
     2  H    0.265168
     3  H    0.249318
     4  O   -0.510649
     5  H    0.260037
     6  H    0.255000
 Sum of Mulliken charges =  -0.00000

 Dipole moment (field-independent basis, Debye):
    X=             -2.2709    Y=             -3.1484    Z=             -0.0000  Tot=              3.8819
 Quadrupole moment (field-independent basis, Debye-Ang):
   XX=             -9.5679   YY=             -7.6245   ZZ=            -14.7199
   XY=             -3.7722   XZ=             -0.0000   YZ=              0.0000

 Normal termination of Gaussian 16 at Fri Aug 26 16:32:45 2022.
