 Gaussian 16, Revision A.03,
 Gaussian 16:  ES64L-G16RevA.03 25-Dec-2016

 ------------------
 #p CCSD(T)/cc-pVTZ
 ------------------

 ------------
 H2O_H2O_4258
 ------------
 Symbolic Z-matrix:
 Charge =  0 Multiplicity = 1

                         Standard orientation:
 ---------------------------------------------------------------------
 Center     Atomic      Atomic             Coordinates (Angstroms)
 Number     Number       Type             X           Y           Z
 ---------------------------------------------------------------------
      1          8           0        0.070186    2.802457   -0.000000
      2          1           0        0.069475    1.819856   -0.000000
      3          1           0       -0.859076    3.121796   -0.000000
      4          8           0        0.070186   -2.632192    0.000000
      5          1           0        0.560872   -3.483505    0.000000
      6          1           0       -0.894248   -2.820268    0.000000
 ---------------------------------------------------------------------

 SCF Done:  E(RHF) =  -152.108278867     A.U. after   10 cycles
 E2 =    -0.5258374379D+00 EUMP2 =    -0.15263411630471D+03
 CCSD(T)
 CCSD(T)= -0.15266131435D+03

 The electronic state is 1-A'.
 Alpha  occ. eigenvalues --  -20.56241 -20.54987  -1.33541  -1.32293  -0.70950
 Alpha  occ. eigenvalues --   -0.69690  -0.57027  -0.55759  -0.50658  -0.49414
 Alpha virt. eigenvalues --    0.13100   0.14981   0.19517   0.21214   0.53439
 Alpha virt. eigenvalues --    0.54919   0.56589   0.57805   0.66750   0.68849
 Alpha virt. eigenvalues --    0.78233   0.79300   0.79445   0.80437   0.82673

 Mulliken charges:
               1
     1  O   -0.512761
     2  H    0.260266
     3  H    0.252278
     4  O   -0.513699
     5  H    0.258916
     6  H    0.255001
 Sum of Mulliken charges =  -0.00000

 Dipole moment (field-independent basis, Debye):
    X=             -2.4051    Y=             -2.9957    Z=              0.0000  Tot=              3.8417
 Quadrupole moment (field-independent basis, Debye-Ang):
   XX=             -9.6796   YY=             -6.9362   ZZ=            -14.7143
   XY=             -4.1190   XZ=              0.0000   YZ=              0.0000

 Normal termination of Gaussian 16 at Sun Aug 28 01:17:12 2022.
