 Gaussian 16, Revision A.03,
 Gaussian 16:  ES64L-G16RevA.03 25-Dec-2016

 ------------------
 #p CCSD(T)/cc-pVTZ
 ------------------

 ----------
 H2O_H2O_28
 ----------
 Symbolic Z-matrix:
 Charge =  0 Multiplicity = 1

                         Standard orientation:
 ---------------------------------------------------------------------
 Center     Atomic      Atomic             Coordinates (Angstroms)
 Number     Number       Type             X           Y           Z
 ---------------------------------------------------------------------
      1          8           0        0.085626   -1.105945    0.000000
      2          1           0        0.085021   -0.123344    0.000000
      3          1           0       -0.843671   -1.425184    0.000000
      4          8           0        0.085626    0.956406    0.000000
      5          1           0        0.276728    1.920245    0.000000
      6          1           0       -0.888095    0.824599    0.000000
 ---------------------------------------------------------------------

 SCF Done:  E(RHF) =  -152.019342593     A.U. after   11 cycles
 E2 =    -0.5391408652D+00 EUMP2 =    -0.15255848345844D+03
 CCSD(T)
 CCSD(T)= -0.15258393374D+03

 The electronic state is 1-A'.
 Alpha  occ. eigenvalues --  -20.61908 -20.45980  -1.45005  -1.25781  -0.84047
 Alpha  occ. eigenvalues --   -0.72550  -0.58710  -0.55437  -0.46473  -0.42468
 Alpha virt. eigenvalues --    0.10455   0.15680   0.21876   0.31442   0.49499
 Alpha virt. eigenvalues --    0.50733   0.60252   0.65902   0.70485   0.72200
 Alpha virt. eigenvalues --    0.75409   0.78811   0.80873   0.86076   0.87262

 Mulliken charges:
               1
     1  O   -0.623926
     2  H    0.253395
     3  H    0.184056
     4  O   -0.280729
     5  H    0.226924
     6  H    0.240281
 Sum of Mulliken charges =  -0.00000

 Dipole moment (field-independent basis, Debye):
    X=             -2.6189    Y=              4.3940    Z=              0.0000  Tot=              5.1152
 Quadrupole moment (field-independent basis, Debye-Ang):
   XX=            -10.3388   YY=            -10.0646   ZZ=            -14.4988
   XY=              2.2238   XZ=              0.0000   YZ=              0.0000

 Normal termination of Gaussian 16 at Fri Aug 26 15:22:36 2022.
