 Gaussian 16, Revision A.03,
 Gaussian 16:  ES64L-G16RevA.03 25-Dec-2016

 ------------------
 #p CCSD(T)/cc-pVTZ
 ------------------

 -----------
 H2O_H2O_129
 -----------
 Symbolic Z-matrix:
 Charge =  0 Multiplicity = 1

                         Standard orientation:
 ---------------------------------------------------------------------
 Center     Atomic      Atomic             Coordinates (Angstroms)
 Number     Number       Type             X           Y           Z
 ---------------------------------------------------------------------
      1          8           0        0.082837   -1.148499    0.000000
      2          1           0        0.082033   -0.165898    0.000000
      3          1           0       -0.846395   -1.467926    0.000000
      4          8           0        0.082837    0.994053    0.000000
      5          1           0        0.336377    1.943381    0.000000
      6          1           0       -0.897406    0.926014    0.000000
 ---------------------------------------------------------------------

 SCF Done:  E(RHF) =  -152.047669627     A.U. after   11 cycles
 E2 =    -0.5373266167D+00 EUMP2 =    -0.15258499624391D+03
 CCSD(T)
 CCSD(T)= -0.15261069974D+03

 The electronic state is 1-A'.
 Alpha  occ. eigenvalues --  -20.61545 -20.46898  -1.43036  -1.26296  -0.81889
 Alpha  occ. eigenvalues --   -0.72054  -0.57794  -0.56284  -0.47464  -0.43037
 Alpha virt. eigenvalues --    0.10605   0.15968   0.21494   0.32006   0.49420
 Alpha virt. eigenvalues --    0.51388   0.59966   0.65380   0.71178   0.72423
 Alpha virt. eigenvalues --    0.76074   0.78511   0.80624   0.85834   0.86016

 Mulliken charges:
               1
     1  O   -0.616950
     2  H    0.271353
     3  H    0.193713
     4  O   -0.314510
     5  H    0.228805
     6  H    0.237589
 Sum of Mulliken charges =  -0.00000

 Dipole moment (field-independent basis, Debye):
    X=             -2.5564    Y=              4.3086    Z=              0.0000  Tot=              5.0099
 Quadrupole moment (field-independent basis, Debye-Ang):
   XX=            -10.2160   YY=             -9.8897   ZZ=            -14.5449
   XY=              2.3684   XZ=              0.0000   YZ=              0.0000

 Normal termination of Gaussian 16 at Fri Aug 26 16:04:17 2022.
