 Gaussian 16, Revision A.03,
 Gaussian 16:  ES64L-G16RevA.03 25-Dec-2016

 ------------------
 #p CCSD(T)/cc-pVTZ
 ------------------

 ------------
 H2O_H2O_2387
 ------------
 Symbolic Z-matrix:
 Charge =  0 Multiplicity = 1

                         Standard orientation:
 ---------------------------------------------------------------------
 Center     Atomic      Atomic             Coordinates (Angstroms)
 Number     Number       Type             X           Y           Z
 ---------------------------------------------------------------------
      1          8           0        0.056009    2.059248    0.000000
      2          1           0        0.054416    1.076648    0.000000
      3          1           0       -0.872967    2.379421   -0.000000
      4          8           0        0.056009   -1.880364    0.000000
      5          1           0        0.749686   -2.576294    0.000000
      6          1           0       -0.827273   -2.310852   -0.000000
 ---------------------------------------------------------------------

 SCF Done:  E(RHF) =  -152.111018112     A.U. after   10 cycles
 E2 =    -0.5261720542D+00 EUMP2 =    -0.15263719016581D+03
 CCSD(T)
 CCSD(T)= -0.15266429104D+03

 The electronic state is 1-A'.
 Alpha  occ. eigenvalues --  -20.57031 -20.54075  -1.34290  -1.31410  -0.71687
 Alpha  occ. eigenvalues --   -0.68804  -0.57893  -0.54889  -0.51425  -0.48553
 Alpha virt. eigenvalues --    0.12260   0.16509   0.19316   0.24504   0.52499
 Alpha virt. eigenvalues --    0.55607   0.56187   0.58989   0.68978   0.71168
 Alpha virt. eigenvalues --    0.77190   0.78500   0.80305   0.81665   0.83632

 Mulliken charges:
               1
     1  O   -0.523257
     2  H    0.267062
     3  H    0.249201
     4  O   -0.509599
     5  H    0.260582
     6  H    0.256012
 Sum of Mulliken charges =  -0.00000

 Dipole moment (field-independent basis, Debye):
    X=             -1.9008    Y=             -3.2962    Z=              0.0000  Tot=              3.8050
 Quadrupole moment (field-independent basis, Debye-Ang):
   XX=             -9.2904   YY=             -7.6311   ZZ=            -14.7235
   XY=             -4.0408   XZ=              0.0000   YZ=              0.0000

 Normal termination of Gaussian 16 at Sun Aug 28 06:50:16 2022.
