 Gaussian 16, Revision A.03,
 Gaussian 16:  ES64L-G16RevA.03 25-Dec-2016

 ------------------
 #p CCSD(T)/cc-pVTZ
 ------------------

 -----------
 H2O_H2O_512
 -----------
 Symbolic Z-matrix:
 Charge =  0 Multiplicity = 1

                         Standard orientation:
 ---------------------------------------------------------------------
 Center     Atomic      Atomic             Coordinates (Angstroms)
 Number     Number       Type             X           Y           Z
 ---------------------------------------------------------------------
      1          8           0        0.056097    1.311300   -0.000000
      2          1           0        0.053530    0.328701   -0.000000
      3          1           0       -0.872560    1.632394   -0.000000
      4          8           0        0.056097   -1.132526    0.000000
      5          1           0        0.749084   -1.829144    0.000000
      6          1           0       -0.827611   -1.562138    0.000000
 ---------------------------------------------------------------------

 SCF Done:  E(RHF) =  -152.100299685     A.U. after   11 cycles
 E2 =    -0.5317578277D+00 EUMP2 =    -0.15263205751227D+03
 CCSD(T)
 CCSD(T)= -0.15265843754D+03

 The electronic state is 1-A'.
 Alpha  occ. eigenvalues --  -20.60209 -20.48919  -1.38664  -1.27372  -0.75386
 Alpha  occ. eigenvalues --   -0.71116  -0.58471  -0.55295  -0.49505  -0.44311
 Alpha virt. eigenvalues --    0.11222   0.17343   0.19968   0.33394   0.47680
 Alpha virt. eigenvalues --    0.53561   0.61537   0.62320   0.71053   0.72248
 Alpha virt. eigenvalues --    0.73875   0.78666   0.80904   0.82823   0.84108

 Mulliken charges:
               1
     1  O   -0.609717
     2  H    0.312884
     3  H    0.223724
     4  O   -0.431817
     5  H    0.255775
     6  H    0.249150
 Sum of Mulliken charges =  -0.00000

 Dipole moment (field-independent basis, Debye):
    X=             -1.7897    Y=             -4.2598    Z=              0.0000  Tot=              4.6205
 Quadrupole moment (field-independent basis, Debye-Ang):
   XX=             -9.2760   YY=             -9.4077   ZZ=            -14.6727
   XY=             -2.9980   XZ=              0.0000   YZ=             -0.0000

 Normal termination of Gaussian 16 at Fri Aug 26 18:45:13 2022.
