 Gaussian 16, Revision A.03,
 Gaussian 16:  ES64L-G16RevA.03 25-Dec-2016

 ------------------
 #p CCSD(T)/cc-pVTZ
 ------------------

 ------------
 H2O_H2O_2981
 ------------
 Symbolic Z-matrix:
 Charge =  0 Multiplicity = 1

                         Standard orientation:
 ---------------------------------------------------------------------
 Center     Atomic      Atomic             Coordinates (Angstroms)
 Number     Number       Type             X           Y           Z
 ---------------------------------------------------------------------
      1          8           0        0.076759    2.290055    0.000000
      2          1           0        0.076137    1.307454    0.000000
      3          1           0       -0.852532    2.609310    0.000000
      4          8           0        0.076759   -2.126849   -0.000000
      5          1           0        0.452210   -3.034892   -0.000000
      6          1           0       -0.903968   -2.187520   -0.000000
 ---------------------------------------------------------------------

 SCF Done:  E(RHF) =  -152.109119057     A.U. after   10 cycles
 E2 =    -0.5260121319D+00 EUMP2 =    -0.15263513118892D+03
 CCSD(T)
 CCSD(T)= -0.15266228789D+03

 The electronic state is 1-A'.
 Alpha  occ. eigenvalues --  -20.56664 -20.54697  -1.33949  -1.32010  -0.71364
 Alpha  occ. eigenvalues --   -0.69393  -0.57457  -0.55479  -0.51068  -0.49134
 Alpha virt. eigenvalues --    0.12125   0.15781   0.19428   0.22740   0.53781
 Alpha virt. eigenvalues --    0.55132   0.56332   0.58445   0.68117   0.69286
 Alpha virt. eigenvalues --    0.77820   0.78803   0.79715   0.80413   0.82954

 Mulliken charges:
               1
     1  O   -0.515099
     2  H    0.262930
     3  H    0.249664
     4  O   -0.511152
     5  H    0.259917
     6  H    0.253741
 Sum of Mulliken charges =  -0.00000

 Dipole moment (field-independent basis, Debye):
    X=             -2.6151    Y=             -2.9374    Z=             -0.0000  Tot=              3.9329
 Quadrupole moment (field-independent basis, Debye-Ang):
   XX=             -9.9570   YY=             -7.8476   ZZ=            -14.7170
   XY=             -3.3616   XZ=             -0.0000   YZ=              0.0000

 Normal termination of Gaussian 16 at Fri Aug 26 18:58:06 2022.
