 Gaussian 16, Revision A.03,
 Gaussian 16:  ES64L-G16RevA.03 25-Dec-2016

 ------------------
 #p CCSD(T)/cc-pVTZ
 ------------------

 ------------
 H2O_H2O_4485
 ------------
 Symbolic Z-matrix:
 Charge =  0 Multiplicity = 1

                         Standard orientation:
 ---------------------------------------------------------------------
 Center     Atomic      Atomic             Coordinates (Angstroms)
 Number     Number       Type             X           Y           Z
 ---------------------------------------------------------------------
      1          8           0        0.063217    2.895068    0.000000
      2          1           0        0.062318    1.912467    0.000000
      3          1           0       -0.865984    3.214584   -0.000000
      4          8           0        0.063217   -2.719532    0.000000
      5          1           0        0.660674   -3.499630    0.000000
      6          1           0       -0.868478   -3.031705   -0.000000
 ---------------------------------------------------------------------

 SCF Done:  E(RHF) =  -152.108280580     A.U. after   10 cycles
 E2 =    -0.5258228272D+00 EUMP2 =    -0.15263410340731D+03
 CCSD(T)
 CCSD(T)= -0.15266130314D+03

 The electronic state is 1-A'.
 Alpha  occ. eigenvalues --  -20.56193 -20.54986  -1.33495  -1.32293  -0.70901
 Alpha  occ. eigenvalues --   -0.69691  -0.56982  -0.55760  -0.50612  -0.49414
 Alpha virt. eigenvalues --    0.13302   0.14901   0.19631   0.21056   0.53584
 Alpha virt. eigenvalues --    0.54860   0.56641   0.57782   0.66841   0.68737
 Alpha virt. eigenvalues --    0.78276   0.79445   0.79533   0.80334   0.82623

 Mulliken charges:
               1
     1  O   -0.513010
     2  H    0.260171
     3  H    0.252710
     4  O   -0.513890
     5  H    0.258527
     6  H    0.255491
 Sum of Mulliken charges =  -0.00000

 Dipole moment (field-independent basis, Debye):
    X=             -2.1677    Y=             -3.0819    Z=             -0.0000  Tot=              3.7679
 Quadrupole moment (field-independent basis, Debye-Ang):
   XX=             -9.4538   YY=             -6.5097   ZZ=            -14.7143
   XY=             -4.6609   XZ=             -0.0000   YZ=             -0.0000

 Normal termination of Gaussian 16 at Sun Aug 28 03:17:18 2022.
