 Gaussian 16, Revision A.03,
 Gaussian 16:  ES64L-G16RevA.03 25-Dec-2016

 ------------------
 #p CCSD(T)/cc-pVTZ
 ------------------

 ------------
 H2O_H2O_4789
 ------------
 Symbolic Z-matrix:
 Charge =  0 Multiplicity = 1

                         Standard orientation:
 ---------------------------------------------------------------------
 Center     Atomic      Atomic             Coordinates (Angstroms)
 Number     Number       Type             X           Y           Z
 ---------------------------------------------------------------------
      1          8           0        0.048548    3.017389    0.000000
      2          1           0        0.047261    2.034788    0.000000
      3          1           0       -0.880527    3.337272    0.000000
      4          8           0        0.048548   -2.836963   -0.000000
      5          1           0        0.827314   -3.436153   -0.000000
      6          1           0       -0.770818   -3.379315   -0.000000
 ---------------------------------------------------------------------

 SCF Done:  E(RHF) =  -152.108288676     A.U. after   10 cycles
 E2 =    -0.5258080889D+00 EUMP2 =    -0.15263409676518D+03
 CCSD(T)
 CCSD(T)= -0.15266129796D+03

 The electronic state is 1-A'.
 Alpha  occ. eigenvalues --  -20.56138 -20.55001  -1.33440  -1.32308  -0.70844
 Alpha  occ. eigenvalues --   -0.69709  -0.56928  -0.55776  -0.50558  -0.49430
 Alpha virt. eigenvalues --    0.13485   0.14820   0.19731   0.20937   0.53707
 Alpha virt. eigenvalues --    0.54818   0.56700   0.57778   0.66989   0.68589
 Alpha virt. eigenvalues --    0.78326   0.79429   0.79735   0.80384   0.82403

 Mulliken charges:
               1
     1  O   -0.513333
     2  H    0.259863
     3  H    0.253413
     4  O   -0.514026
     5  H    0.257889
     6  H    0.256195
 Sum of Mulliken charges =   0.00000

 Dipole moment (field-independent basis, Debye):
    X=             -1.6661    Y=             -3.1601    Z=             -0.0000  Tot=              3.5724
 Quadrupole moment (field-independent basis, Debye-Ang):
   XX=             -9.1821   YY=             -6.0270   ZZ=            -14.7144
   XY=             -5.7447   XZ=             -0.0000   YZ=             -0.0000

 Normal termination of Gaussian 16 at Sun Aug 28 05:54:21 2022.
