 Gaussian 16, Revision A.03,
 Gaussian 16:  ES64L-G16RevA.03 25-Dec-2016

 ------------------
 #p CCSD(T)/cc-pVTZ
 ------------------

 ------------
 H2O_H2O_4860
 ------------
 Symbolic Z-matrix:
 Charge =  0 Multiplicity = 1

                         Standard orientation:
 ---------------------------------------------------------------------
 Center     Atomic      Atomic             Coordinates (Angstroms)
 Number     Number       Type             X           Y           Z
 ---------------------------------------------------------------------
      1          8           0        0.063213    3.044650   -0.000000
      2          1           0        0.062360    2.062049   -0.000000
      3          1           0       -0.866003    3.364123    0.000000
      4          8           0        0.063213   -2.869108   -0.000000
      5          1           0        0.660706   -3.649178   -0.000000
      6          1           0       -0.868467   -3.181324    0.000000
 ---------------------------------------------------------------------

 SCF Done:  E(RHF) =  -152.108136824     A.U. after   10 cycles
 E2 =    -0.5258201923D+00 EUMP2 =    -0.15263395701595D+03
 CCSD(T)
 CCSD(T)= -0.15266116150D+03

 The electronic state is 1-A'.
 Alpha  occ. eigenvalues --  -20.56132 -20.55058  -1.33434  -1.32363  -0.70841
 Alpha  occ. eigenvalues --   -0.69763  -0.56915  -0.55828  -0.50551  -0.49483
 Alpha virt. eigenvalues --    0.13471   0.14753   0.19681   0.20908   0.53675
 Alpha virt. eigenvalues --    0.54799   0.56692   0.57740   0.67037   0.68519
 Alpha virt. eigenvalues --    0.78334   0.79379   0.79700   0.80545   0.82228

 Mulliken charges:
               1
     1  O   -0.512453
     2  H    0.259418
     3  H    0.252992
     4  O   -0.513228
     5  H    0.257963
     6  H    0.255308
 Sum of Mulliken charges =  -0.00000

 Dipole moment (field-independent basis, Debye):
    X=             -2.1696    Y=             -3.0731    Z=              0.0000  Tot=              3.7618
 Quadrupole moment (field-independent basis, Debye-Ang):
   XX=             -9.4534   YY=             -6.2896   ZZ=            -14.7139
   XY=             -4.8155   XZ=              0.0000   YZ=              0.0000

 Normal termination of Gaussian 16 at Sun Aug 28 06:26:09 2022.
