 Gaussian 16, Revision A.03,
 Gaussian 16:  ES64L-G16RevA.03 25-Dec-2016

 ------------------
 #p CCSD(T)/cc-pVTZ
 ------------------

 ------------
 H2O_H2O_1118
 ------------
 Symbolic Z-matrix:
 Charge =  0 Multiplicity = 1

                         Standard orientation:
 ---------------------------------------------------------------------
 Center     Atomic      Atomic             Coordinates (Angstroms)
 Number     Number       Type             X           Y           Z
 ---------------------------------------------------------------------
      1          8           0        0.033900    1.549904    0.000000
      2          1           0        0.030464    0.567308    0.000000
      3          1           0       -0.894472    1.871819    0.000000
      4          8           0        0.033900   -1.372464   -0.000000
      5          1           0        0.940385   -1.751663   -0.000000
      6          1           0       -0.618784   -2.106978   -0.000000
 ---------------------------------------------------------------------

 SCF Done:  E(RHF) =  -152.113955857     A.U. after   10 cycles
 E2 =    -0.5281475318D+00 EUMP2 =    -0.15264210338923D+03
 CCSD(T)
 CCSD(T)= -0.15266899431D+03

 The electronic state is 1-A'.
 Alpha  occ. eigenvalues --  -20.58579 -20.51971  -1.36012  -1.29589  -0.73303
 Alpha  occ. eigenvalues --   -0.67930  -0.59682  -0.53093  -0.52693  -0.46720
 Alpha virt. eigenvalues --    0.11960   0.18305   0.18678   0.31379   0.48997
 Alpha virt. eigenvalues --    0.54686   0.56025   0.61718   0.68518   0.72204
 Alpha virt. eigenvalues --    0.72985   0.77287   0.82265   0.82573   0.84741

 Mulliken charges:
               1
     1  O   -0.563224
     2  H    0.291247
     3  H    0.245230
     4  O   -0.494938
     5  H    0.265942
     6  H    0.255743
 Sum of Mulliken charges =  -0.00000

 Dipole moment (field-independent basis, Debye):
    X=             -1.1270    Y=             -3.6677    Z=             -0.0000  Tot=              3.8370
 Quadrupole moment (field-independent basis, Debye-Ang):
   XX=             -9.1808   YY=             -8.6541   ZZ=            -14.7299
   XY=             -3.6648   XZ=             -0.0000   YZ=             -0.0000

 CCSD(T)=-152.6689943\RMSD=6.941e-09\PG=CS [SG(H4O2)]\\@
 Normal termination of Gaussian 16 at Fri Aug 26 22:34:24 2022.
