 Gaussian 16, Revision A.03,
 Gaussian 16:  ES64L-G16RevA.03 25-Dec-2016

 ------------------
 #p CCSD(T)/cc-pVTZ
 ------------------

 ------------
 H2O_H2O_3081
 ------------
 Symbolic Z-matrix:
 Charge =  0 Multiplicity = 1

                         Standard orientation:
 ---------------------------------------------------------------------
 Center     Atomic      Atomic             Coordinates (Angstroms)
 Number     Number       Type             X           Y           Z
 ---------------------------------------------------------------------
      1          8           0        0.076759    2.329944    0.000000
      2          1           0        0.076147    1.347342    0.000000
      3          1           0       -0.852536    2.649188   -0.000000
      4          8           0        0.076759   -2.166736    0.000000
      5          1           0        0.452220   -3.074775    0.000000
      6          1           0       -0.903967   -2.227418   -0.000000
 ---------------------------------------------------------------------

 SCF Done:  E(RHF) =  -152.108998992     A.U. after   10 cycles
 E2 =    -0.5259866665D+00 EUMP2 =    -0.15263498565884D+03
 CCSD(T)
 CCSD(T)= -0.15266214759D+03

 The electronic state is 1-A'.
 Alpha  occ. eigenvalues --  -20.56617 -20.54735  -1.33904  -1.32047  -0.71319
 Alpha  occ. eigenvalues --   -0.69432  -0.57408  -0.55516  -0.51023  -0.49171
 Alpha virt. eigenvalues --    0.12169   0.15707   0.19415   0.22552   0.53717
 Alpha virt. eigenvalues --    0.55107   0.56351   0.58379   0.67825   0.69270
 Alpha virt. eigenvalues --    0.77876   0.78735   0.79677   0.80436   0.82920

 Mulliken charges:
               1
     1  O   -0.514641
     2  H    0.262540
     3  H    0.249953
     4  O   -0.511645
     5  H    0.259956
     6  H    0.253837
 Sum of Mulliken charges =  -0.00000

 Dipole moment (field-independent basis, Debye):
    X=             -2.6167    Y=             -2.9296    Z=             -0.0000  Tot=              3.9280
 Quadrupole moment (field-independent basis, Debye-Ang):
   XX=             -9.9560   YY=             -7.8083   ZZ=            -14.7166
   XY=             -3.3843   XZ=             -0.0000   YZ=             -0.0000

 Normal termination of Gaussian 16 at Fri Aug 26 19:39:54 2022.
