 Gaussian 16, Revision A.03,
 Gaussian 16:  ES64L-G16RevA.03 25-Dec-2016

 ------------------
 #p CCSD(T)/cc-pVTZ
 ------------------

 -----------
 H2O_H2O_403
 -----------
 Symbolic Z-matrix:
 Charge =  0 Multiplicity = 1

                         Standard orientation:
 ---------------------------------------------------------------------
 Center     Atomic      Atomic             Coordinates (Angstroms)
 Number     Number       Type             X           Y           Z
 ---------------------------------------------------------------------
      1          8           0        0.085620   -1.255531    0.000000
      2          1           0        0.085092   -0.272930    0.000000
      3          1           0       -0.843701   -1.574697    0.000000
      4          8           0        0.085620    1.105979    0.000000
      5          1           0        0.276798    2.069802    0.000000
      6          1           0       -0.888112    0.974246    0.000000
 ---------------------------------------------------------------------

 SCF Done:  E(RHF) =  -152.085063620     A.U. after   11 cycles
 E2 =    -0.5341076087D+00 EUMP2 =    -0.15261917122865D+03
 CCSD(T)
 CCSD(T)= -0.15264547205D+03

 The electronic state is 1-A'.
 Alpha  occ. eigenvalues --  -20.60413 -20.49864  -1.39683  -1.28267  -0.78510
 Alpha  occ. eigenvalues --   -0.69280  -0.58698  -0.55733  -0.50568  -0.45186
 Alpha virt. eigenvalues --    0.11057   0.16379   0.20939   0.32560   0.48866
 Alpha virt. eigenvalues --    0.52092   0.59291   0.65099   0.71676   0.72489
 Alpha virt. eigenvalues --    0.74486   0.77344   0.79052   0.83277   0.84655

 Mulliken charges:
               1
     1  O   -0.583351
     2  H    0.286292
     3  H    0.210357
     4  O   -0.374871
     5  H    0.229178
     6  H    0.232395
 Sum of Mulliken charges =  -0.00000

 Dipole moment (field-independent basis, Debye):
    X=             -2.7211    Y=              3.7391    Z=              0.0000  Tot=              4.6244
 Quadrupole moment (field-independent basis, Debye-Ang):
   XX=            -10.4167   YY=             -9.4859   ZZ=            -14.6200
   XY=              2.3782   XZ=              0.0000   YZ=              0.0000

 Normal termination of Gaussian 16 at Fri Aug 26 17:59:22 2022.
