 Gaussian 16, Revision A.03,
 Gaussian 16:  ES64L-G16RevA.03 25-Dec-2016

 ------------------
 #p CCSD(T)/cc-pVTZ
 ------------------

 ------------
 H2O_H2O_3872
 ------------
 Symbolic Z-matrix:
 Charge =  0 Multiplicity = 1

                         Standard orientation:
 ---------------------------------------------------------------------
 Center     Atomic      Atomic             Coordinates (Angstroms)
 Number     Number       Type             X           Y           Z
 ---------------------------------------------------------------------
      1          8           0       -0.019834    2.641203    0.000000
      2          1           0       -0.017409    1.658605    0.000000
      3          1           0        0.908869    2.962163    0.000000
      4          8           0       -0.019834   -2.474087    0.000000
      5          1           0       -0.993710   -2.604746    0.000000
      6          1           0        0.419600   -3.352952    0.000000
 ---------------------------------------------------------------------

 SCF Done:  E(RHF) =  -152.108854463     A.U. after   10 cycles
 E2 =    -0.5258156257D+00 EUMP2 =    -0.15263467008821D+03
 CCSD(T)
 CCSD(T)= -0.15266185276D+03

 The electronic state is 1-A'.
 Alpha  occ. eigenvalues --  -20.56316 -20.54887  -1.33615  -1.32198  -0.71020
 Alpha  occ. eigenvalues --   -0.69603  -0.57123  -0.55678  -0.50736  -0.49326
 Alpha virt. eigenvalues --    0.12841   0.15264   0.19374   0.21699   0.53284
 Alpha virt. eigenvalues --    0.55144   0.56598   0.57863   0.66701   0.69090
 Alpha virt. eigenvalues --    0.78158   0.78958   0.79522   0.80516   0.82825

 Mulliken charges:
               1
     1  O   -0.516004
     2  H    0.260897
     3  H    0.254566
     4  O   -0.515999
     5  H    0.257955
     6  H    0.258585
 Sum of Mulliken charges =  -0.00000

 Dipole moment (field-independent basis, Debye):
    X=              0.6807    Y=             -2.9531    Z=              0.0000  Tot=              3.0305
 Quadrupole moment (field-independent basis, Debye-Ang):
   XX=             -9.4468   YY=             -7.2762   ZZ=            -14.7163
   XY=              6.7216   XZ=              0.0000   YZ=              0.0000

 Normal termination of Gaussian 16 at Sat Aug 27 00:12:11 2022.
