 Gaussian 16, Revision A.03,
 Gaussian 16:  ES64L-G16RevA.03 25-Dec-2016

 ------------------
 #p CCSD(T)/cc-pVTZ
 ------------------

 ------------
 H2O_H2O_2180
 ------------
 Symbolic Z-matrix:
 Charge =  0 Multiplicity = 1

                         Standard orientation:
 ---------------------------------------------------------------------
 Center     Atomic      Atomic             Coordinates (Angstroms)
 Number     Number       Type             X           Y           Z
 ---------------------------------------------------------------------
      1          8           0        0.079860    1.968694   -0.000000
      2          1           0        0.079271    0.986092   -0.000000
      3          1           0       -0.849442    2.287917   -0.000000
      4          8           0        0.079860   -1.809648    0.000000
      5          1           0        0.395150   -2.740292    0.000000
      6          1           0       -0.902736   -1.806080    0.000000
 ---------------------------------------------------------------------

 SCF Done:  E(RHF) =  -152.110230783     A.U. after   10 cycles
 E2 =    -0.5264203857D+00 EUMP2 =    -0.15263665116910D+03
 CCSD(T)
 CCSD(T)= -0.15266375933D+03

 The electronic state is 1-A'.
 Alpha  occ. eigenvalues --  -20.57176 -20.54354  -1.34450  -1.31681  -0.71891
 Alpha  occ. eigenvalues --   -0.69052  -0.58011  -0.55131  -0.51568  -0.48809
 Alpha virt. eigenvalues --    0.11843   0.16329   0.19601   0.25017   0.52457
 Alpha virt. eigenvalues --    0.55782   0.56276   0.58044   0.68757   0.72313
 Alpha virt. eigenvalues --    0.76717   0.78990   0.80150   0.82398   0.83416

 Mulliken charges:
               1
     1  O   -0.519278
     2  H    0.266186
     3  H    0.246166
     4  O   -0.504519
     5  H    0.259481
     6  H    0.251964
 Sum of Mulliken charges =  -0.00000

 Dipole moment (field-independent basis, Debye):
    X=             -2.7019    Y=             -2.9517    Z=              0.0000  Tot=              4.0016
 Quadrupole moment (field-independent basis, Debye-Ang):
   XX=            -10.1174   YY=             -8.2916   ZZ=            -14.7203
   XY=             -3.0252   XZ=              0.0000   YZ=             -0.0000

 Normal termination of Gaussian 16 at Sun Aug 28 05:09:22 2022.
