 Gaussian 16, Revision A.03,
 Gaussian 16:  ES64L-G16RevA.03 25-Dec-2016

 ------------------
 #p CCSD(T)/cc-pVTZ
 ------------------

 -----------
 H2O_H2O_570
 -----------
 Symbolic Z-matrix:
 Charge =  0 Multiplicity = 1

                         Standard orientation:
 ---------------------------------------------------------------------
 Center     Atomic      Atomic             Coordinates (Angstroms)
 Number     Number       Type             X           Y           Z
 ---------------------------------------------------------------------
      1          8           0        0.026837    1.328177   -0.000000
      2          1           0        0.022306    0.345586   -0.000000
      3          1           0       -0.901177    1.651127   -0.000000
      4          8           0        0.026837   -1.155063    0.000000
      5          1           0        0.974774   -1.413753    0.000000
      6          1           0       -0.525296   -1.967870    0.000000
 ---------------------------------------------------------------------

 SCF Done:  E(RHF) =  -152.102757471     A.U. after   11 cycles
 E2 =    -0.5312104621D+00 EUMP2 =    -0.15263396793324D+03
 CCSD(T)
 CCSD(T)= -0.15266042521D+03

 The electronic state is 1-A'.
 Alpha  occ. eigenvalues --  -20.59938 -20.49369  -1.38278  -1.27694  -0.75561
 Alpha  occ. eigenvalues --   -0.69825  -0.59168  -0.54962  -0.49899  -0.44687
 Alpha virt. eigenvalues --    0.11489   0.18014   0.19481   0.33768   0.47554
 Alpha virt. eigenvalues --    0.53773   0.58787   0.67477   0.68544   0.72261
 Alpha virt. eigenvalues --    0.73754   0.77618   0.80206   0.83783   0.83918

 Mulliken charges:
               1
     1  O   -0.612062
     2  H    0.304689
     3  H    0.237057
     4  O   -0.433681
     5  H    0.261569
     6  H    0.242429
 Sum of Mulliken charges =  -0.00000

 Dipole moment (field-independent basis, Debye):
    X=             -0.8700    Y=             -4.0773    Z=              0.0000  Tot=              4.1691
 Quadrupole moment (field-independent basis, Debye-Ang):
   XX=             -9.2515   YY=             -9.3145   ZZ=            -14.6790
   XY=             -3.2484   XZ=              0.0000   YZ=              0.0000

 Normal termination of Gaussian 16 at Fri Aug 26 19:08:19 2022.
