 Gaussian 16, Revision A.03,
 Gaussian 16:  ES64L-G16RevA.03 25-Dec-2016

 ------------------
 #p CCSD(T)/cc-pVTZ
 ------------------

 ------------
 H2O_H2O_4177
 ------------
 Symbolic Z-matrix:
 Charge =  0 Multiplicity = 1

                         Standard orientation:
 ---------------------------------------------------------------------
 Center     Atomic      Atomic             Coordinates (Angstroms)
 Number     Number       Type             X           Y           Z
 ---------------------------------------------------------------------
      1          8           0        0.088230   -2.758451    0.000000
      2          1           0        0.088080   -1.775849    0.000000
      3          1           0       -0.841215   -3.077258    0.000000
      4          8           0        0.088230    2.614126    0.000000
      5          1           0        0.216337    3.588341    0.000000
      6          1           0       -0.874876    2.419363    0.000000
 ---------------------------------------------------------------------

 SCF Done:  E(RHF) =  -152.107848123     A.U. after   10 cycles
 E2 =    -0.5258786574D+00 EUMP2 =    -0.15263372678024D+03
 CCSD(T)
 CCSD(T)= -0.15266093430D+03

 The electronic state is 1-A'.
 Alpha  occ. eigenvalues --  -20.56271 -20.55215  -1.33572  -1.32517  -0.70987
 Alpha  occ. eigenvalues --   -0.69912  -0.57039  -0.55973  -0.50683  -0.49632
 Alpha virt. eigenvalues --    0.12610   0.14925   0.19031   0.21757   0.53170
 Alpha virt. eigenvalues --    0.54936   0.56523   0.57800   0.66781   0.68694
 Alpha virt. eigenvalues --    0.78211   0.79237   0.79325   0.81277   0.82245

 Mulliken charges:
               1
     1  O   -0.510383
     2  H    0.258424
     3  H    0.251786
     4  O   -0.511453
     5  H    0.258821
     6  H    0.252805
 Sum of Mulliken charges =  -0.00000

 Dipole moment (field-independent basis, Debye):
    X=             -3.0226    Y=              2.5401    Z=              0.0000  Tot=              3.9482
 Quadrupole moment (field-independent basis, Debye-Ang):
   XX=            -10.5511   YY=             -8.5216   ZZ=            -14.7125
   XY=              2.6584   XZ=              0.0000   YZ=              0.0000

 Normal termination of Gaussian 16 at Sun Aug 28 00:27:02 2022.
