 Gaussian 16, Revision A.03,
 Gaussian 16:  ES64L-G16RevA.03 25-Dec-2016

 ------------------
 #p CCSD(T)/cc-pVTZ
 ------------------

 ------------
 H2O_H2O_1333
 ------------
 Symbolic Z-matrix:
 Charge =  0 Multiplicity = 1

                         Standard orientation:
 ---------------------------------------------------------------------
 Center     Atomic      Atomic             Coordinates (Angstroms)
 Number     Number       Type             X           Y           Z
 ---------------------------------------------------------------------
      1          8           0        0.070232    1.635704   -0.000000
      2          1           0        0.068987    0.653103   -0.000000
      3          1           0       -0.858856    1.955548   -0.000000
      4          8           0        0.070232   -1.465515    0.000000
      5          1           0        0.560455   -2.317095    0.000000
      6          1           0       -0.894304   -1.653066    0.000000
 ---------------------------------------------------------------------

 SCF Done:  E(RHF) =  -152.112705002     A.U. after   10 cycles
 E2 =    -0.5276818525D+00 EUMP2 =    -0.15264038685448D+03
 CCSD(T)
 CCSD(T)= -0.15266736883D+03

 The electronic state is 1-A'.
 Alpha  occ. eigenvalues --  -20.58188 -20.52966  -1.35536  -1.30435  -0.72962
 Alpha  occ. eigenvalues --   -0.68139  -0.59230  -0.53713  -0.52630  -0.47560
 Alpha virt. eigenvalues --    0.11809   0.17119   0.19440   0.29627   0.49032
 Alpha virt. eigenvalues --    0.54978   0.57359   0.58916   0.69782   0.73612
 Alpha virt. eigenvalues --    0.73626   0.76529   0.81620   0.82589   0.84366

 Mulliken charges:
               1
     1  O   -0.540654
     2  H    0.281996
     3  H    0.240016
     4  O   -0.491742
     5  H    0.256822
     6  H    0.253562
 Sum of Mulliken charges =  -0.00000

 Dipole moment (field-independent basis, Debye):
    X=             -2.3404    Y=             -3.3972    Z=              0.0000  Tot=              4.1254
 Quadrupole moment (field-independent basis, Debye-Ang):
   XX=             -9.7080   YY=             -8.5101   ZZ=            -14.7274
   XY=             -3.1782   XZ=              0.0000   YZ=             -0.0000

 Normal termination of Gaussian 16 at Fri Aug 26 23:55:10 2022.
