 Gaussian 16, Revision A.03,
 Gaussian 16:  ES64L-G16RevA.03 25-Dec-2016

 ------------------
 #p CCSD(T)/cc-pVTZ
 ------------------

 ------------
 H2O_H2O_1293
 ------------
 Symbolic Z-matrix:
 Charge =  0 Multiplicity = 1

                         Standard orientation:
 ---------------------------------------------------------------------
 Center     Atomic      Atomic             Coordinates (Angstroms)
 Number     Number       Type             X           Y           Z
 ---------------------------------------------------------------------
      1          8           0        0.033886    1.619712   -0.000000
      2          1           0        0.030606    0.637116   -0.000000
      3          1           0       -0.894538    1.941479   -0.000000
      4          8           0        0.033886   -1.442262    0.000000
      5          1           0        0.940432   -1.821315    0.000000
      6          1           0       -0.618681   -2.176880    0.000000
 ---------------------------------------------------------------------

 SCF Done:  E(RHF) =  -152.114215401     A.U. after   10 cycles
 E2 =    -0.5275929730D+00 EUMP2 =    -0.15264180837426D+03
 CCSD(T)
 CCSD(T)= -0.15266875852D+03

 The electronic state is 1-A'.
 Alpha  occ. eigenvalues --  -20.58259 -20.52481  -1.35606  -1.30002  -0.72936
 Alpha  occ. eigenvalues --   -0.67913  -0.59422  -0.53238  -0.52718  -0.47148
 Alpha virt. eigenvalues --    0.12047   0.18024   0.18798   0.30311   0.49602
 Alpha virt. eigenvalues --    0.54516   0.55871   0.60885   0.68650   0.72264
 Alpha virt. eigenvalues --    0.73513   0.77095   0.81947   0.82761   0.84781

 Mulliken charges:
               1
     1  O   -0.553029
     2  H    0.284147
     3  H    0.247065
     4  O   -0.501432
     5  H    0.265819
     6  H    0.257430
 Sum of Mulliken charges =  -0.00000

 Dipole moment (field-independent basis, Debye):
    X=             -1.1328    Y=             -3.5711    Z=              0.0000  Tot=              3.7465
 Quadrupole moment (field-independent basis, Debye-Ang):
   XX=             -9.1843   YY=             -8.4839   ZZ=            -14.7340
   XY=             -3.8144   XZ=              0.0000   YZ=             -0.0000

 CCSD(T)=-152.6687585\RMSD=6.598e-09\PG=CS [SG(H4O2)]\\@
 Normal termination of Gaussian 16 at Fri Aug 26 23:39:17 2022.
