 Gaussian 16, Revision A.03,
 Gaussian 16:  ES64L-G16RevA.03 25-Dec-2016

 ------------------
 #p CCSD(T)/cc-pVTZ
 ------------------

 ------------
 H2O_H2O_2960
 ------------
 Symbolic Z-matrix:
 Charge =  0 Multiplicity = 1

                         Standard orientation:
 ---------------------------------------------------------------------
 Center     Atomic      Atomic             Coordinates (Angstroms)
 Number     Number       Type             X           Y           Z
 ---------------------------------------------------------------------
      1          8           0        0.063239    2.286764   -0.000000
      2          1           0        0.062092    1.304164   -0.000000
      3          1           0       -0.865881    2.606515   -0.000000
      4          8           0        0.063239   -2.111261    0.000000
      5          1           0        0.660499   -2.891509    0.000000
      6          1           0       -0.868534   -2.423198    0.000000
 ---------------------------------------------------------------------

 SCF Done:  E(RHF) =  -152.109645710     A.U. after   10 cycles
 E2 =    -0.5259783005D+00 EUMP2 =    -0.15263562401038D+03
 CCSD(T)
 CCSD(T)= -0.15266276875D+03

 The electronic state is 1-A'.
 Alpha  occ. eigenvalues --  -20.56676 -20.54496  -1.33955  -1.31814  -0.71360
 Alpha  occ. eigenvalues --   -0.69202  -0.57488  -0.55294  -0.51081  -0.48946
 Alpha virt. eigenvalues --    0.12372   0.15914   0.19443   0.22736   0.53338
 Alpha virt. eigenvalues --    0.55387   0.56276   0.58615   0.68326   0.69336
 Alpha virt. eigenvalues --    0.77808   0.79007   0.79703   0.79889   0.83180

 Mulliken charges:
               1
     1  O   -0.517623
     2  H    0.264201
     3  H    0.250388
     4  O   -0.512735
     5  H    0.260165
     6  H    0.255606
 Sum of Mulliken charges =  -0.00000

 Dipole moment (field-independent basis, Debye):
    X=             -2.1549    Y=             -3.1643    Z=             -0.0000  Tot=              3.8284
 Quadrupole moment (field-independent basis, Debye-Ang):
   XX=             -9.4583   YY=             -7.3854   ZZ=            -14.7189
   XY=             -4.0319   XZ=              0.0000   YZ=             -0.0000

 Normal termination of Gaussian 16 at Fri Aug 26 18:45:57 2022.
