 Gaussian 16, Revision A.03,
 Gaussian 16:  ES64L-G16RevA.03 25-Dec-2016

 ------------------
 #p CCSD(T)/cc-pVTZ
 ------------------

 ----------
 H2O_H2O_67
 ----------
 Symbolic Z-matrix:
 Charge =  0 Multiplicity = 1

                         Standard orientation:
 ---------------------------------------------------------------------
 Center     Atomic      Atomic             Coordinates (Angstroms)
 Number     Number       Type             X           Y           Z
 ---------------------------------------------------------------------
      1          8           0        0.037668    1.131816    0.000000
      2          1           0        0.033149    0.149225    0.000000
      3          1           0       -0.890349    1.454754    0.000000
      4          8           0        0.037668   -0.953039    0.000000
      5          1           0        0.916928   -1.391681    0.000000
      6          1           0       -0.662419   -1.642520    0.000000
 ---------------------------------------------------------------------

 SCF Done:  E(RHF) =  -152.041060693     A.U. after   11 cycles
 E2 =    -0.5356509644D+00 EUMP2 =    -0.15257671165786D+03
 CCSD(T)
 CCSD(T)= -0.15260225955D+03

 The electronic state is 1-A'.
 Alpha  occ. eigenvalues --  -20.62041 -20.43946  -1.43802  -1.24333  -0.79948
 Alpha  occ. eigenvalues --   -0.77133  -0.58647  -0.54706  -0.44090  -0.40802
 Alpha virt. eigenvalues --    0.10371   0.16570   0.21114   0.33175   0.46643
 Alpha virt. eigenvalues --    0.51934   0.62281   0.66754   0.70353   0.70599
 Alpha virt. eigenvalues --    0.77894   0.79095   0.81417   0.82898   0.88261

 Mulliken charges:
               1
     1  O   -0.679941
     2  H    0.285357
     3  H    0.207091
     4  O   -0.310063
     5  H    0.259659
     6  H    0.237898
 Sum of Mulliken charges =  -0.00000

 Dipole moment (field-independent basis, Debye):
    X=             -1.1354    Y=             -5.0730    Z=              0.0000  Tot=              5.1985
 Quadrupole moment (field-independent basis, Debye-Ang):
   XX=             -9.0842   YY=            -10.2359   ZZ=            -14.5565
   XY=             -2.6727   XZ=             -0.0000   YZ=              0.0000

 Normal termination of Gaussian 16 at Fri Aug 26 15:38:24 2022.
