 Gaussian 16, Revision A.03,
 Gaussian 16:  ES64L-G16RevA.03 25-Dec-2016

 ------------------
 #p CCSD(T)/cc-pVTZ
 ------------------

 -----------
 H2O_H2O_810
 -----------
 Symbolic Z-matrix:
 Charge =  0 Multiplicity = 1

                         Standard orientation:
 ---------------------------------------------------------------------
 Center     Atomic      Atomic             Coordinates (Angstroms)
 Number     Number       Type             X           Y           Z
 ---------------------------------------------------------------------
      1          8           0        0.063304    1.429132   -0.000000
      2          1           0        0.061424    0.446532   -0.000000
      3          1           0       -0.865577    1.749576   -0.000000
      4          8           0        0.063304   -1.253723    0.000000
      5          1           0        0.659982   -2.034416    0.000000
      6          1           0       -0.868701   -1.564964    0.000000
 ---------------------------------------------------------------------

 SCF Done:  E(RHF) =  -152.110000923     A.U. after   10 cycles
 E2 =    -0.5297819644D+00 EUMP2 =    -0.15263978288761D+03
 CCSD(T)
 CCSD(T)= -0.15266650587D+03

 The electronic state is 1-A'.
 Alpha  occ. eigenvalues --  -20.59289 -20.50994  -1.37037  -1.28864  -0.74270
 Alpha  occ. eigenvalues --   -0.68703  -0.59585  -0.53977  -0.51662  -0.45921
 Alpha virt. eigenvalues --    0.11549   0.17409   0.19587   0.32619   0.48036
 Alpha virt. eigenvalues --    0.54259   0.59665   0.60186   0.70137   0.72419
 Alpha virt. eigenvalues --    0.72958   0.77429   0.81497   0.83062   0.84398

 Mulliken charges:
               1
     1  O   -0.576488
     2  H    0.304749
     3  H    0.231587
     4  O   -0.466207
     5  H    0.255360
     6  H    0.250998
 Sum of Mulliken charges =  -0.00000

 Dipole moment (field-independent basis, Debye):
    X=             -2.0643    Y=             -3.8453    Z=              0.0000  Tot=              4.3644
 Quadrupole moment (field-independent basis, Debye-Ang):
   XX=             -9.4687   YY=             -8.9836   ZZ=            -14.7070
   XY=             -3.0996   XZ=              0.0000   YZ=             -0.0000

 Normal termination of Gaussian 16 at Fri Aug 26 20:39:10 2022.
