 Gaussian 16, Revision A.03,
 Gaussian 16:  ES64L-G16RevA.03 25-Dec-2016

 ------------------
 #p CCSD(T)/cc-pVTZ
 ------------------

 ------------
 H2O_H2O_3801
 ------------
 Symbolic Z-matrix:
 Charge =  0 Multiplicity = 1

                         Standard orientation:
 ---------------------------------------------------------------------
 Center     Atomic      Atomic             Coordinates (Angstroms)
 Number     Number       Type             X           Y           Z
 ---------------------------------------------------------------------
      1          8           0        0.090684   -2.605823    0.000000
      2          1           0        0.090608   -1.623221    0.000000
      3          1           0       -0.838784   -2.924561    0.000000
      4          8           0        0.090684    2.467113    0.000000
      5          1           0        0.154873    3.447615    0.000000
      6          1           0       -0.857642    2.209846    0.000000
 ---------------------------------------------------------------------

 SCF Done:  E(RHF) =  -152.107855421     A.U. after   10 cycles
 E2 =    -0.5259167299D+00 EUMP2 =    -0.15263377215089D+03
 CCSD(T)
 CCSD(T)= -0.15266097587D+03

 The electronic state is 1-A'.
 Alpha  occ. eigenvalues --  -20.56365 -20.55217  -1.33665  -1.32519  -0.71084
 Alpha  occ. eigenvalues --   -0.69911  -0.57131  -0.55973  -0.50775  -0.49633
 Alpha virt. eigenvalues --    0.12138   0.15120   0.18966   0.22279   0.53182
 Alpha virt. eigenvalues --    0.54966   0.56480   0.57900   0.66788   0.68823
 Alpha virt. eigenvalues --    0.78126   0.78972   0.79237   0.81383   0.82410

 Mulliken charges:
               1
     1  O   -0.510065
     2  H    0.258510
     3  H    0.251193
     4  O   -0.510881
     5  H    0.259281
     6  H    0.251962
 Sum of Mulliken charges =  -0.00000

 Dipole moment (field-independent basis, Debye):
    X=             -3.1021    Y=              2.4520    Z=              0.0000  Tot=              3.9541
 Quadrupole moment (field-independent basis, Debye-Ang):
   XX=            -10.7038   YY=             -8.9003   ZZ=            -14.7124
   XY=              2.3937   XZ=              0.0000   YZ=              0.0000

 CCSD(T)=-152.6609759\RMSD=7.216e-09\PG=CS [SG(H4O2)]\\@
 Normal termination of Gaussian 16 at Fri Aug 26 23:45:03 2022.
