 Gaussian 16, Revision A.03,
 Gaussian 16:  ES64L-G16RevA.03 25-Dec-2016

 ------------------
 #p CCSD(T)/cc-pVTZ
 ------------------

 -----------
 H2O_H2O_730
 -----------
 Symbolic Z-matrix:
 Charge =  0 Multiplicity = 1

                         Standard orientation:
 ---------------------------------------------------------------------
 Center     Atomic      Atomic             Coordinates (Angstroms)
 Number     Number       Type             X           Y           Z
 ---------------------------------------------------------------------
      1          8           0        0.079881   -1.390301    0.000000
      2          1           0        0.079033   -0.407700    0.000000
      3          1           0       -0.849337   -1.709769    0.000000
      4          8           0        0.079881    1.231298    0.000000
      5          1           0        0.394925    2.162024    0.000000
      6          1           0       -0.902714    1.227470    0.000000
 ---------------------------------------------------------------------

 SCF Done:  E(RHF) =  -152.105226164     A.U. after   10 cycles
 E2 =    -0.5307529921D+00 EUMP2 =    -0.15263597915587D+03
 CCSD(T)
 CCSD(T)= -0.15266268366D+03

 The electronic state is 1-A'.
 Alpha  occ. eigenvalues --  -20.59425 -20.51438  -1.37406  -1.29304  -0.75308
 Alpha  occ. eigenvalues --   -0.68482  -0.59608  -0.54193  -0.52118  -0.46331
 Alpha virt. eigenvalues --    0.11380   0.16774   0.20209   0.32389   0.48234
 Alpha virt. eigenvalues --    0.53507   0.58930   0.62084   0.69904   0.72033
 Alpha virt. eigenvalues --    0.74226   0.77783   0.79940   0.83222   0.83734

 Mulliken charges:
               1
     1  O   -0.566922
     2  H    0.296209
     3  H    0.225586
     4  O   -0.430593
     5  H    0.236848
     6  H    0.238871
 Sum of Mulliken charges =  -0.00000

 Dipole moment (field-independent basis, Debye):
    X=             -2.5929    Y=              3.5605    Z=              0.0000  Tot=              4.4046
 Quadrupole moment (field-independent basis, Debye-Ang):
   XX=            -10.1341   YY=             -9.0971   ZZ=            -14.6831
   XY=              2.6953   XZ=              0.0000   YZ=              0.0000

 Normal termination of Gaussian 16 at Fri Aug 26 20:09:21 2022.
