 Gaussian 16, Revision A.03,
 Gaussian 16:  ES64L-G16RevA.03 25-Dec-2016

 ------------------
 #p CCSD(T)/cc-pVTZ
 ------------------

 ------------
 H2O_H2O_4447
 ------------
 Symbolic Z-matrix:
 Charge =  0 Multiplicity = 1

                         Standard orientation:
 ---------------------------------------------------------------------
 Center     Atomic      Atomic             Coordinates (Angstroms)
 Number     Number       Type             X           Y           Z
 ---------------------------------------------------------------------
      1          8           0       -0.019817    2.870561    0.000000
      2          1           0       -0.017592    1.887962    0.000000
      3          1           0        0.908951    3.191332    0.000000
      4          8           0       -0.019817   -2.703437    0.000000
      5          1           0       -0.993720   -2.833898    0.000000
      6          1           0        0.419438   -3.582391    0.000000
 ---------------------------------------------------------------------

 SCF Done:  E(RHF) =  -152.108480997     A.U. after   10 cycles
 E2 =    -0.5257993870D+00 EUMP2 =    -0.15263428038448D+03
 CCSD(T)
 CCSD(T)= -0.15266147671D+03

 The electronic state is 1-A'.
 Alpha  occ. eigenvalues --  -20.56189 -20.55021  -1.33492  -1.32329  -0.70897
 Alpha  occ. eigenvalues --   -0.69735  -0.56986  -0.55803  -0.50611  -0.49454
 Alpha virt. eigenvalues --    0.13236   0.14937   0.19492   0.21239   0.53467
 Alpha virt. eigenvalues --    0.54924   0.56667   0.57789   0.66816   0.68712
 Alpha virt. eigenvalues --    0.78275   0.79403   0.79463   0.80609   0.82542

 Mulliken charges:
               1
     1  O   -0.514507
     2  H    0.259748
     3  H    0.254627
     4  O   -0.515035
     5  H    0.257290
     6  H    0.257877
 Sum of Mulliken charges =  -0.00000

 Dipole moment (field-independent basis, Debye):
    X=              0.6808    Y=             -2.9337    Z=              0.0000  Tot=              3.0117
 Quadrupole moment (field-independent basis, Debye-Ang):
   XX=             -9.4474   YY=             -7.0119   ZZ=            -14.7150
   XY=              7.2996   XZ=              0.0000   YZ=              0.0000

 Normal termination of Gaussian 16 at Sun Aug 28 02:54:12 2022.
