 Gaussian 16, Revision A.03,
 Gaussian 16:  ES64L-G16RevA.03 25-Dec-2016

 ------------------
 #p CCSD(T)/cc-pVTZ
 ------------------

 ------------
 H2O_H2O_2137
 ------------
 Symbolic Z-matrix:
 Charge =  0 Multiplicity = 1

                         Standard orientation:
 ---------------------------------------------------------------------
 Center     Atomic      Atomic             Coordinates (Angstroms)
 Number     Number       Type             X           Y           Z
 ---------------------------------------------------------------------
      1          8           0        0.056016    1.959524    0.000000
      2          1           0        0.054339    0.976924    0.000000
      3          1           0       -0.872931    2.279777   -0.000000
      4          8           0        0.056016   -1.780649    0.000000
      5          1           0        0.749634   -2.476639    0.000000
      6          1           0       -0.827302   -2.211062   -0.000000
 ---------------------------------------------------------------------

 SCF Done:  E(RHF) =  -152.111701441     A.U. after   10 cycles
 E2 =    -0.5263328924D+00 EUMP2 =    -0.15263803433330D+03
 CCSD(T)
 CCSD(T)= -0.15266511381D+03

 The electronic state is 1-A'.
 Alpha  occ. eigenvalues --  -20.57236 -20.53858  -1.34489  -1.31206  -0.71880
 Alpha  occ. eigenvalues --   -0.68613  -0.58138  -0.54671  -0.51626  -0.48352
 Alpha virt. eigenvalues --    0.12195   0.16769   0.19250   0.25542   0.51889
 Alpha virt. eigenvalues --    0.55383   0.56265   0.58933   0.68982   0.72062
 Alpha virt. eigenvalues --    0.76640   0.77980   0.80546   0.83496   0.83775

 Mulliken charges:
               1
     1  O   -0.526138
     2  H    0.268418
     3  H    0.248209
     4  O   -0.507899
     5  H    0.261305
     6  H    0.256105
 Sum of Mulliken charges =  -0.00000

 Dipole moment (field-independent basis, Debye):
    X=             -1.8963    Y=             -3.3384    Z=             -0.0000  Tot=              3.8394
 Quadrupole moment (field-independent basis, Debye-Ang):
   XX=             -9.2925   YY=             -7.8006   ZZ=            -14.7263
   XY=             -3.9121   XZ=             -0.0000   YZ=             -0.0000

 Normal termination of Gaussian 16 at Sun Aug 28 04:38:25 2022.
