 Gaussian 16, Revision A.03,
 Gaussian 16:  ES64L-G16RevA.03 25-Dec-2016

 ------------------
 #p CCSD(T)/cc-pVTZ
 ------------------

 -----------
 H2O_H2O_411
 -----------
 Symbolic Z-matrix:
 Charge =  0 Multiplicity = 1

                         Standard orientation:
 ---------------------------------------------------------------------
 Center     Atomic      Atomic             Coordinates (Angstroms)
 Number     Number       Type             X           Y           Z
 ---------------------------------------------------------------------
      1          8           0        0.059744    1.270614   -0.000000
      2          1           0        0.057352    0.288016   -0.000000
      3          1           0       -0.868970    1.591543   -0.000000
      4          8           0        0.059744   -1.093308    0.000000
      5          1           0        0.705818   -1.833642    0.000000
      6          1           0       -0.850104   -1.464366    0.000000
 ---------------------------------------------------------------------

 SCF Done:  E(RHF) =  -152.093139926     A.U. after   11 cycles
 E2 =    -0.5327304501D+00 EUMP2 =    -0.15262587037611D+03
 CCSD(T)
 CCSD(T)= -0.15265209722D+03

 The electronic state is 1-A'.
 Alpha  occ. eigenvalues --  -20.60571 -20.48198  -1.39455  -1.26910  -0.76163
 Alpha  occ. eigenvalues --   -0.72106  -0.57842  -0.55865  -0.48757  -0.43785
 Alpha virt. eigenvalues --    0.11048   0.17064   0.20272   0.33325   0.47823
 Alpha virt. eigenvalues --    0.53205   0.61499   0.63164   0.71572   0.72123
 Alpha virt. eigenvalues --    0.75236   0.79193   0.80190   0.83010   0.84016

 Mulliken charges:
               1
     1  O   -0.617564
     2  H    0.309214
     3  H    0.218253
     4  O   -0.407067
     5  H    0.250652
     6  H    0.246511
 Sum of Mulliken charges =  -0.00000

 Dipole moment (field-independent basis, Debye):
    X=             -1.8870    Y=             -4.3689    Z=              0.0000  Tot=              4.7590
 Quadrupole moment (field-independent basis, Debye-Ang):
   XX=             -9.3518   YY=             -9.5544   ZZ=            -14.6514
   XY=             -2.9048   XZ=              0.0000   YZ=             -0.0000

 Normal termination of Gaussian 16 at Fri Aug 26 18:04:46 2022.
