 Gaussian 16, Revision A.03,
 Gaussian 16:  ES64L-G16RevA.03 25-Dec-2016

 ------------------
 #p CCSD(T)/cc-pVTZ
 ------------------

 ------------
 H2O_H2O_3565
 ------------
 Symbolic Z-matrix:
 Charge =  0 Multiplicity = 1

                         Standard orientation:
 ---------------------------------------------------------------------
 Center     Atomic      Atomic             Coordinates (Angstroms)
 Number     Number       Type             X           Y           Z
 ---------------------------------------------------------------------
      1          8           0        0.044846    2.528759   -0.000000
      2          1           0        0.043172    1.546159   -0.000000
      3          1           0       -0.884103    2.849008    0.000000
      4          8           0        0.044846   -2.348347   -0.000000
      5          1           0        0.860919   -2.895642   -0.000000
      6          1           0       -0.737528   -2.942818    0.000000
 ---------------------------------------------------------------------

 SCF Done:  E(RHF) =  -152.109155737     A.U. after   10 cycles
 E2 =    -0.5258498171D+00 EUMP2 =    -0.15263500555385D+03
 CCSD(T)
 CCSD(T)= -0.15266217501D+03

 The electronic state is 1-A'.
 Alpha  occ. eigenvalues --  -20.56419 -20.54670  -1.33710  -1.31985  -0.71112
 Alpha  occ. eigenvalues --   -0.69382  -0.57229  -0.55466  -0.50834  -0.49114
 Alpha virt. eigenvalues --    0.12813   0.15493   0.19571   0.21731   0.53433
 Alpha virt. eigenvalues --    0.55065   0.56504   0.57985   0.66945   0.69314
 Alpha virt. eigenvalues --    0.78068   0.79137   0.79482   0.79724   0.83030

 Mulliken charges:
               1
     1  O   -0.516594
     2  H    0.262760
     3  H    0.252668
     4  O   -0.515709
     5  H    0.259553
     6  H    0.257321
 Sum of Mulliken charges =  -0.00000

 Dipole moment (field-independent basis, Debye):
    X=             -1.5333    Y=             -3.2071    Z=              0.0000  Tot=              3.5547
 Quadrupole moment (field-independent basis, Debye-Ang):
   XX=             -9.1568   YY=             -6.8194   ZZ=            -14.7175
   XY=             -5.1668   XZ=              0.0000   YZ=              0.0000

 Normal termination of Gaussian 16 at Fri Aug 26 22:25:16 2022.
