 Gaussian 16, Revision A.03,
 Gaussian 16:  ES64L-G16RevA.03 25-Dec-2016

 ------------------
 #p CCSD(T)/cc-pVTZ
 ------------------

 ------------
 H2O_H2O_3956
 ------------
 Symbolic Z-matrix:
 Charge =  0 Multiplicity = 1

                         Standard orientation:
 ---------------------------------------------------------------------
 Center     Atomic      Atomic             Coordinates (Angstroms)
 Number     Number       Type             X           Y           Z
 ---------------------------------------------------------------------
      1          8           0        0.076752    2.678968    0.000000
      2          1           0        0.076223    1.696366    0.000000
      3          1           0       -0.852569    2.998134   -0.000000
      4          8           0        0.076752   -2.515747    0.000000
      5          1           0        0.452288   -3.423755    0.000000
      6          1           0       -0.903969   -2.576511   -0.000000
 ---------------------------------------------------------------------

 SCF Done:  E(RHF) =  -152.108289799     A.U. after   10 cycles
 E2 =    -0.5258642365D+00 EUMP2 =    -0.15263415403587D+03
 CCSD(T)
 CCSD(T)= -0.15266134866D+03

 The electronic state is 1-A'.
 Alpha  occ. eigenvalues --  -20.56315 -20.54989  -1.33613  -1.32296  -0.71024
 Alpha  occ. eigenvalues --   -0.69690  -0.57098  -0.55760  -0.50729  -0.49415
 Alpha virt. eigenvalues --    0.12764   0.15117   0.19363   0.21520   0.53268
 Alpha virt. eigenvalues --    0.55008   0.56519   0.57882   0.66706   0.68985
 Alpha virt. eigenvalues --    0.78167   0.78996   0.79443   0.80640   0.82689

 Mulliken charges:
               1
     1  O   -0.512430
     2  H    0.260309
     3  H    0.251713
     4  O   -0.513253
     5  H    0.259348
     6  H    0.254313
 Sum of Mulliken charges =  -0.00000

 Dipole moment (field-independent basis, Debye):
    X=             -2.6274    Y=             -2.8817    Z=             -0.0000  Tot=              3.8996
 Quadrupole moment (field-independent basis, Debye-Ang):
   XX=             -9.9499   YY=             -7.4640   ZZ=            -14.7143
   XY=             -3.5829   XZ=              0.0000   YZ=             -0.0000

 Normal termination of Gaussian 16 at Sat Aug 27 00:40:34 2022.
