 Gaussian 16, Revision A.03,
 Gaussian 16:  ES64L-G16RevA.03 25-Dec-2016

 ------------------
 #p CCSD(T)/cc-pVTZ
 ------------------

 ------------
 H2O_H2O_1825
 ------------
 Symbolic Z-matrix:
 Charge =  0 Multiplicity = 1

                         Standard orientation:
 ---------------------------------------------------------------------
 Center     Atomic      Atomic             Coordinates (Angstroms)
 Number     Number       Type             X           Y           Z
 ---------------------------------------------------------------------
      1          8           0        0.092949   -1.814823    0.000000
      2          1           0        0.092949   -0.832221    0.000000
      3          1           0       -0.836544   -2.133489    0.000000
      4          8           0        0.092949    1.682036    0.000000
      5          1           0        0.092949    2.664637    0.000000
      6          1           0       -0.836544    1.363368    0.000000
 ---------------------------------------------------------------------

 SCF Done:  E(RHF) =  -152.108911114     A.U. after   10 cycles
 E2 =    -0.5270010200D+00 EUMP2 =    -0.15263591213428D+03
 CCSD(T)
 CCSD(T)= -0.15266303807D+03

 The electronic state is 1-A'.
 Alpha  occ. eigenvalues --  -20.57474 -20.54748  -1.34787  -1.32066  -0.72394
 Alpha  occ. eigenvalues --   -0.69338  -0.58278  -0.55475  -0.51868  -0.49172
 Alpha virt. eigenvalues --    0.11447   0.16163   0.20348   0.26233   0.51314
 Alpha virt. eigenvalues --    0.55030   0.57318   0.57482   0.67864   0.74054
 Alpha virt. eigenvalues --    0.75292   0.78217   0.80055   0.82479   0.83257

 Mulliken charges:
               1
     1  O   -0.516156
     2  H    0.267501
     3  H    0.242911
     4  O   -0.494104
     5  H    0.256419
     6  H    0.243430
 Sum of Mulliken charges =  -0.00000

 Dipole moment (field-independent basis, Debye):
    X=             -3.1237    Y=              2.5097    Z=              0.0000  Tot=              4.0070
 Quadrupole moment (field-independent basis, Debye-Ang):
   XX=            -10.8874   YY=             -9.1460   ZZ=            -14.7129
   XY=              2.1298   XZ=              0.0000   YZ=              0.0000

 Normal termination of Gaussian 16 at Sun Aug 28 01:56:26 2022.
