 Gaussian 16, Revision A.03,
 Gaussian 16:  ES64L-G16RevA.03 25-Dec-2016

 ------------------
 #p CCSD(T)/cc-pVTZ
 ------------------

 ------------
 H2O_H2O_3342
 ------------
 Symbolic Z-matrix:
 Charge =  0 Multiplicity = 1

                         Standard orientation:
 ---------------------------------------------------------------------
 Center     Atomic      Atomic             Coordinates (Angstroms)
 Number     Number       Type             X           Y           Z
 ---------------------------------------------------------------------
      1          8           0        0.037439    2.438229    0.000000
      2          1           0        0.035433    1.455630    0.000000
      3          1           0       -0.891401    2.758792    0.000000
      4          8           0        0.037439   -2.259259   -0.000000
      5          1           0        0.917819   -2.695652   -0.000000
      6          1           0       -0.660881   -2.950530   -0.000000
 ---------------------------------------------------------------------

 SCF Done:  E(RHF) =  -152.109462871     A.U. after   10 cycles
 E2 =    -0.5258693950D+00 EUMP2 =    -0.15263533226619D+03
 CCSD(T)
 CCSD(T)= -0.15266249098D+03

 The electronic state is 1-A'.
 Alpha  occ. eigenvalues --  -20.56497 -20.54593  -1.33784  -1.31910  -0.71185
 Alpha  occ. eigenvalues --   -0.69308  -0.57314  -0.55396  -0.50911  -0.49043
 Alpha virt. eigenvalues --    0.12672   0.15670   0.19506   0.22080   0.53347
 Alpha virt. eigenvalues --    0.55248   0.56473   0.58141   0.67323   0.69353
 Alpha virt. eigenvalues --    0.77994   0.78935   0.79609   0.79791   0.83106

 Mulliken charges:
               1
     1  O   -0.517916
     2  H    0.263259
     3  H    0.252929
     4  O   -0.515693
     5  H    0.259574
     6  H    0.257847
 Sum of Mulliken charges =  -0.00000

 Dipole moment (field-independent basis, Debye):
    X=             -1.2792    Y=             -3.1957    Z=             -0.0000  Tot=              3.4422
 Quadrupole moment (field-independent basis, Debye-Ang):
   XX=             -9.1590   YY=             -7.0188   ZZ=            -14.7185
   XY=             -5.3405   XZ=             -0.0000   YZ=              0.0000

 CCSD(T)=-152.662491\RMSD=6.941e-09\PG=CS [SG(H4O2)]\\@
 Normal termination of Gaussian 16 at Fri Aug 26 21:10:15 2022.
