 Gaussian 16, Revision A.03,
 Gaussian 16:  ES64L-G16RevA.03 25-Dec-2016

 ------------------
 #p CCSD(T)/cc-pVTZ
 ------------------

 ------------
 H2O_H2O_3276
 ------------
 Symbolic Z-matrix:
 Charge =  0 Multiplicity = 1

                         Standard orientation:
 ---------------------------------------------------------------------
 Center     Atomic      Atomic             Coordinates (Angstroms)
 Number     Number       Type             X           Y           Z
 ---------------------------------------------------------------------
      1          8           0        0.090685   -2.396411    0.000000
      2          1           0        0.090602   -1.413810    0.000000
      3          1           0       -0.838782   -2.715156    0.000000
      4          8           0        0.090685    2.257702    0.000000
      5          1           0        0.154867    3.238206    0.000000
      6          1           0       -0.857639    2.000430    0.000000
 ---------------------------------------------------------------------

 SCF Done:  E(RHF) =  -152.108077746     A.U. after   10 cycles
 E2 =    -0.5259983459D+00 EUMP2 =    -0.15263407609208D+03
 CCSD(T)
 CCSD(T)= -0.15266126587D+03

 The electronic state is 1-A'.
 Alpha  occ. eigenvalues --  -20.56536 -20.55128  -1.33832  -1.32431  -0.71258
 Alpha  occ. eigenvalues --   -0.69816  -0.57302  -0.55885  -0.50942  -0.49545
 Alpha virt. eigenvalues --    0.11745   0.15429   0.19202   0.22819   0.53820
 Alpha virt. eigenvalues --    0.54796   0.56450   0.58070   0.67337   0.68941
 Alpha virt. eigenvalues --    0.77963   0.78532   0.79325   0.81209   0.82548

 Mulliken charges:
               1
     1  O   -0.510638
     2  H    0.259607
     3  H    0.250062
     4  O   -0.509770
     5  H    0.259721
     6  H    0.251018
 Sum of Mulliken charges =  -0.00000

 Dipole moment (field-independent basis, Debye):
    X=             -3.0936    Y=              2.4738    Z=              0.0000  Tot=              3.9611
 Quadrupole moment (field-independent basis, Debye-Ang):
   XX=            -10.7091   YY=             -8.9189   ZZ=            -14.7130
   XY=              2.3747   XZ=              0.0000   YZ=              0.0000

 CCSD(T)=-152.6612659\RMSD=7.244e-09\PG=CS [SG(H4O2)]\\@
 Normal termination of Gaussian 16 at Fri Aug 26 20:46:53 2022.
