 Gaussian 16, Revision A.03,
 Gaussian 16:  ES64L-G16RevA.03 25-Dec-2016

 ------------------
 #p CCSD(T)/cc-pVTZ
 ------------------

 ------------
 H2O_H2O_2381
 ------------
 Symbolic Z-matrix:
 Charge =  0 Multiplicity = 1

                         Standard orientation:
 ---------------------------------------------------------------------
 Center     Atomic      Atomic             Coordinates (Angstroms)
 Number     Number       Type             X           Y           Z
 ---------------------------------------------------------------------
      1          8           0        0.076766    2.050723    0.000000
      2          1           0        0.076068    1.068122    0.000000
      3          1           0       -0.852501    2.370049   -0.000000
      4          8           0        0.076766   -1.887529    0.000000
      5          1           0        0.452147   -2.795601    0.000000
      6          1           0       -0.903965   -1.948124   -0.000000
 ---------------------------------------------------------------------

 SCF Done:  E(RHF) =  -152.110073214     A.U. after   10 cycles
 E2 =    -0.5262608299D+00 EUMP2 =    -0.15263633404409D+03
 CCSD(T)
 CCSD(T)= -0.15266345233D+03

 The electronic state is 1-A'.
 Alpha  occ. eigenvalues --  -20.57023 -20.54399  -1.34296  -1.31722  -0.71721
 Alpha  occ. eigenvalues --   -0.69098  -0.57846  -0.55184  -0.51418  -0.48852
 Alpha virt. eigenvalues --    0.11950   0.16243   0.19502   0.24331   0.53090
 Alpha virt. eigenvalues --    0.55678   0.56171   0.58343   0.68765   0.71229
 Alpha virt. eigenvalues --    0.77168   0.79077   0.80048   0.81447   0.83302

 Mulliken charges:
               1
     1  O   -0.518752
     2  H    0.265581
     3  H    0.247406
     4  O   -0.506819
     5  H    0.259583
     6  H    0.252999
 Sum of Mulliken charges =  -0.00000

 Dipole moment (field-independent basis, Debye):
    X=             -2.6033    Y=             -3.0009    Z=             -0.0000  Tot=              3.9727
 Quadrupole moment (field-independent basis, Debye-Ang):
   XX=             -9.9653   YY=             -8.0886   ZZ=            -14.7198
   XY=             -3.2249   XZ=             -0.0000   YZ=             -0.0000

 Normal termination of Gaussian 16 at Sun Aug 28 06:47:59 2022.
