 Gaussian 16, Revision A.03,
 Gaussian 16:  ES64L-G16RevA.03 25-Dec-2016

 ------------------
 #p CCSD(T)/cc-pVTZ
 ------------------

 ------------
 H2O_H2O_1968
 ------------
 Symbolic Z-matrix:
 Charge =  0 Multiplicity = 1

                         Standard orientation:
 ---------------------------------------------------------------------
 Center     Atomic      Atomic             Coordinates (Angstroms)
 Number     Number       Type             X           Y           Z
 ---------------------------------------------------------------------
      1          8           0        0.033842    1.888970   -0.000000
      2          1           0        0.031053    0.906373   -0.000000
      3          1           0       -0.894743    2.210274   -0.000000
      4          8           0        0.033842   -1.711486    0.000000
      5          1           0        0.940576   -2.090088    0.000000
      6          1           0       -0.618359   -2.446429    0.000000
 ---------------------------------------------------------------------

 SCF Done:  E(RHF) =  -152.112537277     A.U. after   10 cycles
 E2 =    -0.5264267064D+00 EUMP2 =    -0.15263896398321D+03
 CCSD(T)
 CCSD(T)= -0.15266602293D+03

 The electronic state is 1-A'.
 Alpha  occ. eigenvalues --  -20.57379 -20.53656  -1.34634  -1.31022  -0.72018
 Alpha  occ. eigenvalues --   -0.68465  -0.58344  -0.54478  -0.51774  -0.48177
 Alpha virt. eigenvalues --    0.12241   0.17079   0.19133   0.26449   0.51874
 Alpha virt. eigenvalues --    0.54775   0.56348   0.58985   0.69081   0.72483
 Alpha virt. eigenvalues --    0.76120   0.77675   0.80761   0.83422   0.84378

 Mulliken charges:
               1
     1  O   -0.531627
     2  H    0.269402
     3  H    0.250667
     4  O   -0.508901
     5  H    0.262170
     6  H    0.258289
 Sum of Mulliken charges =  -0.00000

 Dipole moment (field-independent basis, Debye):
    X=             -1.1456    Y=             -3.3473    Z=              0.0000  Tot=              3.5379
 Quadrupole moment (field-independent basis, Debye-Ang):
   XX=             -9.1876   YY=             -7.9474   ZZ=            -14.7298
   XY=             -4.3784   XZ=              0.0000   YZ=             -0.0000

 Normal termination of Gaussian 16 at Sun Aug 28 03:13:55 2022.
