 Gaussian 16, Revision A.03,
 Gaussian 16:  ES64L-G16RevA.03 25-Dec-2016

 ------------------
 #p CCSD(T)/cc-pVTZ
 ------------------

 ------------
 H2O_H2O_3221
 ------------
 Symbolic Z-matrix:
 Charge =  0 Multiplicity = 1

                         Standard orientation:
 ---------------------------------------------------------------------
 Center     Atomic      Atomic             Coordinates (Angstroms)
 Number     Number       Type             X           Y           Z
 ---------------------------------------------------------------------
      1          8           0       -0.023206    2.383711    0.000000
      2          1           0       -0.020631    1.401113    0.000000
      3          1           0        0.905449    2.704812    0.000000
      4          8           0       -0.023206   -2.213323    0.000000
      5          1           0       -0.986421   -2.407544    0.000000
      6          1           0        0.472897   -3.061490    0.000000
 ---------------------------------------------------------------------

 SCF Done:  E(RHF) =  -152.109578638     A.U. after   10 cycles
 E2 =    -0.5258805826D+00 EUMP2 =    -0.15263545922071D+03
 CCSD(T)
 CCSD(T)= -0.15266261408D+03

 The electronic state is 1-A'.
 Alpha  occ. eigenvalues --  -20.56535 -20.54635  -1.33823  -1.31952  -0.71227
 Alpha  occ. eigenvalues --   -0.69356  -0.57356  -0.55441  -0.50950  -0.49087
 Alpha virt. eigenvalues --    0.12491   0.15750   0.19359   0.22472   0.53426
 Alpha virt. eigenvalues --    0.55431   0.56483   0.58168   0.67549   0.69342
 Alpha virt. eigenvalues --    0.77951   0.78759   0.79748   0.80210   0.83085

 Mulliken charges:
               1
     1  O   -0.518791
     2  H    0.262816
     3  H    0.254031
     4  O   -0.515683
     5  H    0.258972
     6  H    0.258656
 Sum of Mulliken charges =  -0.00000

 Dipole moment (field-independent basis, Debye):
    X=              0.7942    Y=             -3.0487    Z=              0.0000  Tot=              3.1505
 Quadrupole moment (field-independent basis, Debye-Ang):
   XX=             -9.3612   YY=             -7.4347   ZZ=            -14.7188
   XY=              5.8946   XZ=              0.0000   YZ=              0.0000

 CCSD(T)=-152.6626141\RMSD=6.906e-09\PG=CS [SG(H4O2)]\\@
 Normal termination of Gaussian 16 at Fri Aug 26 20:28:37 2022.
