 Gaussian 16, Revision A.03,
 Gaussian 16:  ES64L-G16RevA.03 25-Dec-2016

 ------------------
 #p CCSD(T)/cc-pVTZ
 ------------------

 ------------
 H2O_H2O_3558
 ------------
 Symbolic Z-matrix:
 Charge =  0 Multiplicity = 1

                         Standard orientation:
 ---------------------------------------------------------------------
 Center     Atomic      Atomic             Coordinates (Angstroms)
 Number     Number       Type             X           Y           Z
 ---------------------------------------------------------------------
      1          8           0        0.070193    2.523238   -0.000000
      2          1           0        0.069401    1.540636   -0.000000
      3          1           0       -0.859043    2.842653   -0.000000
      4          8           0        0.070193   -2.352984    0.000000
      5          1           0        0.560808   -3.204338    0.000000
      6          1           0       -0.894257   -2.540980    0.000000
 ---------------------------------------------------------------------

 SCF Done:  E(RHF) =  -152.108741543     A.U. after   10 cycles
 E2 =    -0.5258874687D+00 EUMP2 =    -0.15263462901147D+03
 CCSD(T)
 CCSD(T)= -0.15266180698D+03

 The electronic state is 1-A'.
 Alpha  occ. eigenvalues --  -20.56429 -20.54804  -1.33722  -1.32115  -0.71131
 Alpha  occ. eigenvalues --   -0.69507  -0.57222  -0.55586  -0.50842  -0.49238
 Alpha virt. eigenvalues --    0.12598   0.15409   0.19454   0.21781   0.53363
 Alpha virt. eigenvalues --    0.55072   0.56451   0.58043   0.66918   0.69242
 Alpha virt. eigenvalues --    0.78062   0.78772   0.79609   0.80224   0.82883

 Mulliken charges:
               1
     1  O   -0.514143
     2  H    0.261790
     3  H    0.251316
     4  O   -0.513845
     5  H    0.259849
     6  H    0.255033
 Sum of Mulliken charges =  -0.00000

 Dipole moment (field-independent basis, Debye):
    X=             -2.3991    Y=             -3.0256    Z=              0.0000  Tot=              3.8613
 Quadrupole moment (field-independent basis, Debye-Ang):
   XX=             -9.6821   YY=             -7.2851   ZZ=            -14.7159
   XY=             -3.8971   XZ=              0.0000   YZ=             -0.0000

 Normal termination of Gaussian 16 at Fri Aug 26 22:22:54 2022.
