 Gaussian 16, Revision A.03,
 Gaussian 16:  ES64L-G16RevA.03 25-Dec-2016

 ------------------
 #p CCSD(T)/cc-pVTZ
 ------------------

 ------------
 H2O_H2O_2513
 ------------
 Symbolic Z-matrix:
 Charge =  0 Multiplicity = 1

                         Standard orientation:
 ---------------------------------------------------------------------
 Center     Atomic      Atomic             Coordinates (Angstroms)
 Number     Number       Type             X           Y           Z
 ---------------------------------------------------------------------
      1          8           0        0.052315    2.109645    0.000000
      2          1           0        0.050607    1.127045    0.000000
      3          1           0       -0.876622    2.429927    0.000000
      4          8           0        0.052315   -1.929773   -0.000000
      5          1           0        0.789947   -2.578931   -0.000000
      6          1           0       -0.800977   -2.417008   -0.000000
 ---------------------------------------------------------------------

 SCF Done:  E(RHF) =  -152.110800295     A.U. after   10 cycles
 E2 =    -0.5261013826D+00 EUMP2 =    -0.15263690167778D+03
 CCSD(T)
 CCSD(T)= -0.15266401087D+03

 The electronic state is 1-A'.
 Alpha  occ. eigenvalues --  -20.56940 -20.54146  -1.34202  -1.31477  -0.71599
 Alpha  occ. eigenvalues --   -0.68870  -0.57792  -0.54961  -0.51337  -0.48619
 Alpha virt. eigenvalues --    0.12322   0.16405   0.19339   0.24068   0.52678
 Alpha virt. eigenvalues --    0.55618   0.56232   0.59005   0.69023   0.70611
 Alpha virt. eigenvalues --    0.77388   0.78689   0.80223   0.80800   0.83660

 Mulliken charges:
               1
     1  O   -0.522542
     2  H    0.266554
     3  H    0.249989
     4  O   -0.510876
     5  H    0.260495
     6  H    0.256379
 Sum of Mulliken charges =  -0.00000

 Dipole moment (field-independent basis, Debye):
    X=             -1.7775    Y=             -3.2965    Z=             -0.0000  Tot=              3.7452
 Quadrupole moment (field-independent basis, Debye-Ang):
   XX=             -9.2282   YY=             -7.5200   ZZ=            -14.7227
   XY=             -4.2283   XZ=             -0.0000   YZ=              0.0000

 CCSD(T)=-152.6640109\RMSD=6.687e-09\PG=CS [SG(H4O2)]\\@
 Normal termination of Gaussian 16 at Fri Aug 26 15:17:10 2022.
