 Gaussian 16, Revision A.03,
 Gaussian 16:  ES64L-G16RevA.03 25-Dec-2016

 ------------------
 #p CCSD(T)/cc-pVTZ
 ------------------

 ------------
 H2O_H2O_1281
 ------------
 Symbolic Z-matrix:
 Charge =  0 Multiplicity = 1

                         Standard orientation:
 ---------------------------------------------------------------------
 Center     Atomic      Atomic             Coordinates (Angstroms)
 Number     Number       Type             X           Y           Z
 ---------------------------------------------------------------------
      1          8           0        0.076782    1.611942    0.000000
      2          1           0        0.075884    0.629341    0.000000
      3          1           0       -0.852419    1.931458   -0.000000
      4          8           0        0.076782   -1.448779    0.000000
      5          1           0        0.451978   -2.356928    0.000000
      6          1           0       -0.903962   -1.509175   -0.000000
 ---------------------------------------------------------------------

 SCF Done:  E(RHF) =  -152.111854640     A.U. after   10 cycles
 E2 =    -0.5279224117D+00 EUMP2 =    -0.15263977705177D+03
 CCSD(T)
 CCSD(T)= -0.15266676050D+03

 The electronic state is 1-A'.
 Alpha  occ. eigenvalues --  -20.58253 -20.53108  -1.35636  -1.30577  -0.73158
 Alpha  occ. eigenvalues --   -0.68230  -0.59259  -0.53840  -0.52707  -0.47691
 Alpha virt. eigenvalues --    0.11712   0.16905   0.19684   0.29717   0.48941
 Alpha virt. eigenvalues --    0.54859   0.57992   0.58638   0.69579   0.73345
 Alpha virt. eigenvalues --    0.74445   0.76667   0.81568   0.82271   0.84072

 Mulliken charges:
               1
     1  O   -0.539217
     2  H    0.282264
     3  H    0.238295
     4  O   -0.481727
     5  H    0.250076
     6  H    0.250309
 Sum of Mulliken charges =  -0.00000

 Dipole moment (field-independent basis, Debye):
    X=             -2.5534    Y=             -3.2771    Z=             -0.0000  Tot=              4.1544
 Quadrupole moment (field-independent basis, Debye-Ang):
   XX=             -9.9870   YY=             -8.6293   ZZ=            -14.7218
   XY=             -2.9578   XZ=             -0.0000   YZ=             -0.0000

 CCSD(T)=-152.6667605\RMSD=7.218e-09\PG=CS [SG(H4O2)]\\@
 Normal termination of Gaussian 16 at Fri Aug 26 23:34:55 2022.
