 Gaussian 16, Revision A.03,
 Gaussian 16:  ES64L-G16RevA.03 25-Dec-2016

 ------------------
 #p CCSD(T)/cc-pVTZ
 ------------------

 ------------
 H2O_H2O_1400
 ------------
 Symbolic Z-matrix:
 Charge =  0 Multiplicity = 1

                         Standard orientation:
 ---------------------------------------------------------------------
 Center     Atomic      Atomic             Coordinates (Angstroms)
 Number     Number       Type             X           Y           Z
 ---------------------------------------------------------------------
      1          8           0        0.092949   -1.645300    0.000000
      2          1           0        0.092949   -0.662698    0.000000
      3          1           0       -0.836544   -1.963966    0.000000
      4          8           0        0.092949    1.512513    0.000000
      5          1           0        0.092950    2.495115    0.000000
      6          1           0       -0.836544    1.193846    0.000000
 ---------------------------------------------------------------------

 SCF Done:  E(RHF) =  -152.108555595     A.U. after   10 cycles
 E2 =    -0.5279732099D+00 EUMP2 =    -0.15263652880521D+03
 CCSD(T)
 CCSD(T)= -0.15266361468D+03

 The electronic state is 1-A'.
 Alpha  occ. eigenvalues --  -20.57995 -20.54352  -1.35397  -1.31723  -0.73265
 Alpha  occ. eigenvalues --   -0.68884  -0.58851  -0.55065  -0.52426  -0.48811
 Alpha virt. eigenvalues --    0.11469   0.16304   0.20582   0.28289   0.49420
 Alpha virt. eigenvalues --    0.53988   0.57705   0.58631   0.67807   0.73193
 Alpha virt. eigenvalues --    0.74097   0.78116   0.80615   0.81493   0.83251

 Mulliken charges:
               1
     1  O   -0.521657
     2  H    0.273884
     3  H    0.238080
     4  O   -0.475771
     5  H    0.247142
     6  H    0.238322
 Sum of Mulliken charges =  -0.00000

 Dipole moment (field-independent basis, Debye):
    X=             -3.0965    Y=              2.6188    Z=              0.0000  Tot=              4.0554
 Quadrupole moment (field-independent basis, Debye-Ang):
   XX=            -10.8995   YY=             -9.1540   ZZ=            -14.7070
   XY=              2.1117   XZ=              0.0000   YZ=              0.0000

 Normal termination of Gaussian 16 at Sat Aug 27 00:21:13 2022.
