 Gaussian 16, Revision A.03,
 Gaussian 16:  ES64L-G16RevA.03 25-Dec-2016

 ------------------
 #p CCSD(T)/cc-pVTZ
 ------------------

 ------------
 H2O_H2O_4852
 ------------
 Symbolic Z-matrix:
 Charge =  0 Multiplicity = 1

                         Standard orientation:
 ---------------------------------------------------------------------
 Center     Atomic      Atomic             Coordinates (Angstroms)
 Number     Number       Type             X           Y           Z
 ---------------------------------------------------------------------
      1          8           0        0.088229   -3.027694    0.000000
      2          1           0        0.088093   -2.045093    0.000000
      3          1           0       -0.841220   -3.346489    0.000000
      4          8           0        0.088229    2.883367    0.000000
      5          1           0        0.216350    3.857581    0.000000
      6          1           0       -0.874880    2.688617    0.000000
 ---------------------------------------------------------------------

 SCF Done:  E(RHF) =  -152.107717491     A.U. after   10 cycles
 E2 =    -0.5258571611D+00 EUMP2 =    -0.15263357465244D+03
 CCSD(T)
 CCSD(T)= -0.15266078827D+03

 The electronic state is 1-A'.
 Alpha  occ. eigenvalues --  -20.56149 -20.55296  -1.33451  -1.32598  -0.70863
 Alpha  occ. eigenvalues --   -0.69996  -0.56913  -0.56052  -0.50563  -0.49712
 Alpha virt. eigenvalues --    0.13181   0.14607   0.19205   0.21177   0.53465
 Alpha virt. eigenvalues --    0.54723   0.56618   0.57605   0.67068   0.68335
 Alpha virt. eigenvalues --    0.78325   0.79160   0.79715   0.80907   0.81705

 Mulliken charges:
               1
     1  O   -0.510111
     2  H    0.257573
     3  H    0.252512
     4  O   -0.510967
     5  H    0.257795
     6  H    0.253198
 Sum of Mulliken charges =  -0.00000

 Dipole moment (field-independent basis, Debye):
    X=             -3.0283    Y=              2.5261    Z=              0.0000  Tot=              3.9436
 Quadrupole moment (field-independent basis, Debye-Ang):
   XX=            -10.5486   YY=             -8.4292   ZZ=            -14.7123
   XY=              2.7058   XZ=              0.0000   YZ=              0.0000

 Normal termination of Gaussian 16 at Sun Aug 28 06:22:56 2022.
