 Gaussian 16, Revision A.03,
 Gaussian 16:  ES64L-G16RevA.03 25-Dec-2016

 ------------------
 #p CCSD(T)/cc-pVTZ
 ------------------

 -----------
 H2O_H2O_354
 -----------
 Symbolic Z-matrix:
 Charge =  0 Multiplicity = 1

                         Standard orientation:
 ---------------------------------------------------------------------
 Center     Atomic      Atomic             Coordinates (Angstroms)
 Number     Number       Type             X           Y           Z
 ---------------------------------------------------------------------
      1          8           0        0.082832   -1.238252    0.000000
      2          1           0        0.082091   -0.255651    0.000000
      3          1           0       -0.846420   -1.557620    0.000000
      4          8           0        0.082832    1.083796    0.000000
      5          1           0        0.336432    2.033107    0.000000
      6          1           0       -0.897415    1.015818    0.000000
 ---------------------------------------------------------------------

 SCF Done:  E(RHF) =  -152.081934214     A.U. after   11 cycles
 E2 =    -0.5344560081D+00 EUMP2 =    -0.15261639022197D+03
 CCSD(T)
 CCSD(T)= -0.15264258572D+03

 The electronic state is 1-A'.
 Alpha  occ. eigenvalues --  -20.60628 -20.49178  -1.40114  -1.27760  -0.78737
 Alpha  occ. eigenvalues --   -0.70030  -0.58216  -0.56068  -0.49848  -0.44649
 Alpha virt. eigenvalues --    0.10972   0.16379   0.20927   0.32619   0.48948
 Alpha virt. eigenvalues --    0.52187   0.59445   0.64986   0.71770   0.72765
 Alpha virt. eigenvalues --    0.75201   0.77325   0.79358   0.83619   0.85000

 Mulliken charges:
               1
     1  O   -0.593023
     2  H    0.287015
     3  H    0.208636
     4  O   -0.366669
     5  H    0.229786
     6  H    0.234255
 Sum of Mulliken charges =  -0.00000

 Dipole moment (field-independent basis, Debye):
    X=             -2.6169    Y=              3.9209    Z=              0.0000  Tot=              4.7140
 Quadrupole moment (field-independent basis, Debye-Ang):
   XX=            -10.2564   YY=             -9.5400   ZZ=            -14.6130
   XY=              2.4663   XZ=              0.0000   YZ=              0.0000

 Normal termination of Gaussian 16 at Fri Aug 26 17:39:05 2022.
