 Gaussian 16, Revision A.03,
 Gaussian 16:  ES64L-G16RevA.03 25-Dec-2016

 ------------------
 #p CCSD(T)/cc-pVTZ
 ------------------

 ------------
 H2O_H2O_2567
 ------------
 Symbolic Z-matrix:
 Charge =  0 Multiplicity = 1

                         Standard orientation:
 ---------------------------------------------------------------------
 Center     Atomic      Atomic             Coordinates (Angstroms)
 Number     Number       Type             X           Y           Z
 ---------------------------------------------------------------------
      1          8           0        0.037467    2.129089    0.000000
      2          1           0        0.035157    1.146490    0.000000
      3          1           0       -0.891274    2.449939   -0.000000
      4          8           0        0.037467   -1.950142    0.000000
      5          1           0        0.917712   -2.386806    0.000000
      6          1           0       -0.661067   -2.641196   -0.000000
 ---------------------------------------------------------------------

 SCF Done:  E(RHF) =  -152.110848695     A.U. after   10 cycles
 E2 =    -0.5260542789D+00 EUMP2 =    -0.15263690297358D+03
 CCSD(T)
 CCSD(T)= -0.15266401368D+03

 The electronic state is 1-A'.
 Alpha  occ. eigenvalues --  -20.56895 -20.54175  -1.34159  -1.31507  -0.71555
 Alpha  occ. eigenvalues --   -0.68906  -0.57751  -0.54997  -0.51295  -0.48651
 Alpha virt. eigenvalues --    0.12372   0.16392   0.19326   0.23957   0.52875
 Alpha virt. eigenvalues --    0.55563   0.56393   0.58863   0.69057   0.70385
 Alpha virt. eigenvalues --    0.77461   0.78827   0.80186   0.80605   0.83631

 Mulliken charges:
               1
     1  O   -0.523482
     2  H    0.266213
     3  H    0.251688
     4  O   -0.512246
     5  H    0.260449
     6  H    0.257378
 Sum of Mulliken charges =  -0.00000

 Dipole moment (field-independent basis, Debye):
    X=             -1.2745    Y=             -3.2720    Z=              0.0000  Tot=              3.5114
 Quadrupole moment (field-independent basis, Debye-Ang):
   XX=             -9.1592   YY=             -7.5091   ZZ=            -14.7229
   XY=             -4.7462   XZ=              0.0000   YZ=              0.0000

 Normal termination of Gaussian 16 at Fri Aug 26 15:40:02 2022.
