 Gaussian 16, Revision A.03,
 Gaussian 16:  ES64L-G16RevA.03 25-Dec-2016

 ------------------
 #p CCSD(T)/cc-pVTZ
 ------------------

 -----------
 H2O_H2O_737
 -----------
 Symbolic Z-matrix:
 Charge =  0 Multiplicity = 1

                         Standard orientation:
 ---------------------------------------------------------------------
 Center     Atomic      Atomic             Coordinates (Angstroms)
 Number     Number       Type             X           Y           Z
 ---------------------------------------------------------------------
      1          8           0        0.056081    1.401057   -0.000000
      2          1           0        0.053690    0.418458   -0.000000
      3          1           0       -0.872633    1.721985   -0.000000
      4          8           0        0.056081   -1.222263    0.000000
      5          1           0        0.749193   -1.918757    0.000000
      6          1           0       -0.827549   -1.652033    0.000000
 ---------------------------------------------------------------------

 SCF Done:  E(RHF) =  -152.109049761     A.U. after   10 cycles
 E2 =    -0.5301139580D+00 EUMP2 =    -0.15263916371942D+03
 CCSD(T)
 CCSD(T)= -0.15266581269D+03

 The electronic state is 1-A'.
 Alpha  occ. eigenvalues --  -20.59503 -20.50409  -1.37361  -1.28411  -0.74394
 Alpha  occ. eigenvalues --   -0.69193  -0.59419  -0.54265  -0.51057  -0.45449
 Alpha virt. eigenvalues --    0.11516   0.17618   0.19521   0.32989   0.47882
 Alpha virt. eigenvalues --    0.54151   0.59847   0.60959   0.70317   0.72364
 Alpha virt. eigenvalues --    0.72396   0.77859   0.81650   0.83004   0.84448

 Mulliken charges:
               1
     1  O   -0.587338
     2  H    0.309679
     3  H    0.231382
     4  O   -0.466478
     5  H    0.259946
     6  H    0.252809
 Sum of Mulliken charges =  -0.00000

 Dipole moment (field-independent basis, Debye):
    X=             -1.8212    Y=             -3.9932    Z=              0.0000  Tot=              4.3889
 Quadrupole moment (field-independent basis, Debye-Ang):
   XX=             -9.2864   YY=             -9.0854   ZZ=            -14.7037
   XY=             -3.1443   XZ=              0.0000   YZ=             -0.0000

 Normal termination of Gaussian 16 at Fri Aug 26 20:11:51 2022.
