 Gaussian 16, Revision A.03,
 Gaussian 16:  ES64L-G16RevA.03 25-Dec-2016

 ------------------
 #p CCSD(T)/cc-pVTZ
 ------------------

 ------------
 H2O_H2O_1950
 ------------
 Symbolic Z-matrix:
 Charge =  0 Multiplicity = 1

                         Standard orientation:
 ---------------------------------------------------------------------
 Center     Atomic      Atomic             Coordinates (Angstroms)
 Number     Number       Type             X           Y           Z
 ---------------------------------------------------------------------
      1          8           0        0.092949   -1.864682    0.000000
      2          1           0        0.092949   -0.882081    0.000000
      3          1           0       -0.836544   -2.183349    0.000000
      4          8           0        0.092949    1.731895    0.000000
      5          1           0        0.092949    2.714497    0.000000
      6          1           0       -0.836544    1.413229    0.000000
 ---------------------------------------------------------------------

 SCF Done:  E(RHF) =  -152.108847492     A.U. after   10 cycles
 E2 =    -0.5268168109D+00 EUMP2 =    -0.15263566430306D+03
 CCSD(T)
 CCSD(T)= -0.15266279788D+03

 The electronic state is 1-A'.
 Alpha  occ. eigenvalues --  -20.57351 -20.54823  -1.34654  -1.32134  -0.72218
 Alpha  occ. eigenvalues --   -0.69429  -0.58143  -0.55553  -0.51742  -0.49242
 Alpha virt. eigenvalues --    0.11438   0.16109   0.20267   0.25741   0.51849
 Alpha virt. eigenvalues --    0.55316   0.57170   0.57360   0.67945   0.73788
 Alpha virt. eigenvalues --    0.75824   0.78474   0.79921   0.82698   0.82721

 Mulliken charges:
               1
     1  O   -0.515105
     2  H    0.266187
     3  H    0.243938
     4  O   -0.496997
     5  H    0.257657
     6  H    0.244321
 Sum of Mulliken charges =   0.00000

 Dipole moment (field-independent basis, Debye):
    X=             -3.1299    Y=              2.4875    Z=              0.0000  Tot=              3.9980
 Quadrupole moment (field-independent basis, Debye-Ang):
   XX=            -10.8836   YY=             -9.1507   ZZ=            -14.7133
   XY=              2.1335   XZ=              0.0000   YZ=              0.0000

 Normal termination of Gaussian 16 at Sun Aug 28 03:05:34 2022.
