 Gaussian 16, Revision A.03,
 Gaussian 16:  ES64L-G16RevA.03 25-Dec-2016

 ------------------
 #p CCSD(T)/cc-pVTZ
 ------------------

 ------------
 H2O_H2O_3921
 ------------
 Symbolic Z-matrix:
 Charge =  0 Multiplicity = 1

                         Standard orientation:
 ---------------------------------------------------------------------
 Center     Atomic      Atomic             Coordinates (Angstroms)
 Number     Number       Type             X           Y           Z
 ---------------------------------------------------------------------
      1          8           0       -0.023182    2.662931    0.000000
      2          1           0       -0.020886    1.680332    0.000000
      3          1           0        0.905564    2.983769    0.000000
      4          8           0       -0.023182   -2.492529    0.000000
      5          1           0       -0.986453   -2.686477    0.000000
      6          1           0        0.472681   -3.340837    0.000000
 ---------------------------------------------------------------------

 SCF Done:  E(RHF) =  -152.108839488     A.U. after   10 cycles
 E2 =    -0.5258130928D+00 EUMP2 =    -0.15263465258055D+03
 CCSD(T)
 CCSD(T)= -0.15266183593D+03

 The electronic state is 1-A'.
 Alpha  occ. eigenvalues --  -20.56304 -20.54870  -1.33603  -1.32181  -0.71007
 Alpha  occ. eigenvalues --   -0.69586  -0.57111  -0.55661  -0.50725  -0.49309
 Alpha virt. eigenvalues --    0.12923   0.15240   0.19449   0.21576   0.53338
 Alpha virt. eigenvalues --    0.55092   0.56600   0.57855   0.66690   0.69082
 Alpha virt. eigenvalues --    0.78169   0.79021   0.79539   0.80373   0.82837

 Mulliken charges:
               1
     1  O   -0.515905
     2  H    0.261065
     3  H    0.254334
     4  O   -0.516007
     5  H    0.258136
     6  H    0.258376
 Sum of Mulliken charges =  -0.00000

 Dipole moment (field-independent basis, Debye):
    X=              0.7950    Y=             -3.0096    Z=              0.0000  Tot=              3.1128
 Quadrupole moment (field-independent basis, Debye-Ang):
   XX=             -9.3615   YY=             -7.0845   ZZ=            -14.7162
   XY=              6.5669   XZ=              0.0000   YZ=              0.0000

 Normal termination of Gaussian 16 at Sat Aug 27 00:28:49 2022.
