 Gaussian 16, Revision A.03,
 Gaussian 16:  ES64L-G16RevA.03 25-Dec-2016

 ------------------
 #p CCSD(T)/cc-pVTZ
 ------------------

 ------------
 H2O_H2O_1036
 ------------
 Symbolic Z-matrix:
 Charge =  0 Multiplicity = 1

                         Standard orientation:
 ---------------------------------------------------------------------
 Center     Atomic      Atomic             Coordinates (Angstroms)
 Number     Number       Type             X           Y           Z
 ---------------------------------------------------------------------
      1          8           0        0.059706    1.519937   -0.000000
      2          1           0        0.057731    0.537338   -0.000000
      3          1           0       -0.869144    1.840472   -0.000000
      4          8           0        0.059706   -1.342581    0.000000
      5          1           0        0.706095   -2.082640    0.000000
      6          1           0       -0.849983   -1.714023    0.000000
 ---------------------------------------------------------------------

 SCF Done:  E(RHF) =  -152.112948168     A.U. after   10 cycles
 E2 =    -0.5286041654D+00 EUMP2 =    -0.15264155233303D+03
 CCSD(T)
 CCSD(T)= -0.15266841488D+03

 The electronic state is 1-A'.
 Alpha  occ. eigenvalues --  -20.58766 -20.51836  -1.36250  -1.29491  -0.73520
 Alpha  occ. eigenvalues --   -0.68105  -0.59664  -0.53303  -0.52546  -0.46596
 Alpha virt. eigenvalues --    0.11751   0.17586   0.19272   0.31646   0.48352
 Alpha virt. eigenvalues --    0.54672   0.57770   0.59899   0.69828   0.72227
 Alpha virt. eigenvalues --    0.72791   0.77067   0.82235   0.82537   0.84686

 Mulliken charges:
               1
     1  O   -0.561465
     2  H    0.296072
     3  H    0.237386
     4  O   -0.488051
     5  H    0.260837
     6  H    0.255220
 Sum of Mulliken charges =  -0.00000

 Dipole moment (field-independent basis, Debye):
    X=             -1.9700    Y=             -3.7102    Z=              0.0000  Tot=              4.2008
 Quadrupole moment (field-independent basis, Debye-Ang):
   XX=             -9.3755   YY=             -8.7291   ZZ=            -14.7243
   XY=             -3.2701   XZ=              0.0000   YZ=             -0.0000

 Normal termination of Gaussian 16 at Fri Aug 26 22:04:02 2022.
