 Gaussian 16, Revision A.03,
 Gaussian 16:  ES64L-G16RevA.03 25-Dec-2016

 ------------------
 #p CCSD(T)/cc-pVTZ
 ------------------

 ------------
 H2O_H2O_2050
 ------------
 Symbolic Z-matrix:
 Charge =  0 Multiplicity = 1

                         Standard orientation:
 ---------------------------------------------------------------------
 Center     Atomic      Atomic             Coordinates (Angstroms)
 Number     Number       Type             X           Y           Z
 ---------------------------------------------------------------------
      1          8           0        0.092949   -1.904570    0.000000
      2          1           0        0.092949   -0.921969    0.000000
      3          1           0       -0.836544   -2.223237    0.000000
      4          8           0        0.092949    1.771783    0.000000
      5          1           0        0.092949    2.754385    0.000000
      6          1           0       -0.836544    1.453116    0.000000
 ---------------------------------------------------------------------

 SCF Done:  E(RHF) =  -152.108776493     A.U. after   10 cycles
 E2 =    -0.5266925534D+00 EUMP2 =    -0.15263546904664D+03
 CCSD(T)
 CCSD(T)= -0.15266260835D+03

 The electronic state is 1-A'.
 Alpha  occ. eigenvalues --  -20.57260 -20.54874  -1.34558  -1.32181  -0.72095
 Alpha  occ. eigenvalues --   -0.69492  -0.58044  -0.55607  -0.51650  -0.49291
 Alpha virt. eigenvalues --    0.11432   0.16063   0.20197   0.25386   0.52244
 Alpha virt. eigenvalues --    0.55525   0.56999   0.57364   0.68013   0.73453
 Alpha virt. eigenvalues --    0.76200   0.78747   0.79824   0.81730   0.82895

 Mulliken charges:
               1
     1  O   -0.514386
     2  H    0.265292
     3  H    0.244670
     4  O   -0.498812
     5  H    0.258293
     6  H    0.244944
 Sum of Mulliken charges =   0.00000

 Dipole moment (field-independent basis, Debye):
    X=             -3.1345    Y=              2.4719    Z=              0.0000  Tot=              3.9919
 Quadrupole moment (field-independent basis, Debye-Ang):
   XX=            -10.8806   YY=             -9.1556   ZZ=            -14.7134
   XY=              2.1360   XZ=              0.0000   YZ=              0.0000

 Normal termination of Gaussian 16 at Sun Aug 28 03:53:16 2022.
