 Gaussian 16, Revision A.03,
 Gaussian 16:  ES64L-G16RevA.03 25-Dec-2016

 ------------------
 #p CCSD(T)/cc-pVTZ
 ------------------

 ------------
 H2O_H2O_2887
 ------------
 Symbolic Z-matrix:
 Charge =  0 Multiplicity = 1

                         Standard orientation:
 ---------------------------------------------------------------------
 Center     Atomic      Atomic             Coordinates (Angstroms)
 Number     Number       Type             X           Y           Z
 ---------------------------------------------------------------------
      1          8           0        0.055995    2.258695    0.000000
      2          1           0        0.054549    1.276095    0.000000
      3          1           0       -0.873028    2.578729    0.000000
      4          8           0        0.055995   -2.079794   -0.000000
      5          1           0        0.749776   -2.775620   -0.000000
      6          1           0       -0.827222   -2.510414   -0.000000
 ---------------------------------------------------------------------

 SCF Done:  E(RHF) =  -152.109948921     A.U. after   10 cycles
 E2 =    -0.5259810128D+00 EUMP2 =    -0.15263592993392D+03
 CCSD(T)
 CCSD(T)= -0.15266306669D+03

 The electronic state is 1-A'.
 Alpha  occ. eigenvalues --  -20.56713 -20.54400  -1.33988  -1.31722  -0.71390
 Alpha  occ. eigenvalues --   -0.69112  -0.57535  -0.55206  -0.51117  -0.48857
 Alpha virt. eigenvalues --    0.12419   0.16022   0.19434   0.22928   0.53151
 Alpha virt. eigenvalues --    0.55494   0.56269   0.58724   0.68648   0.69344
 Alpha virt. eigenvalues --    0.77761   0.79104   0.79505   0.79974   0.83292

 Mulliken charges:
               1
     1  O   -0.519059
     2  H    0.264825
     3  H    0.250717
     4  O   -0.513017
     5  H    0.260245
     6  H    0.256290
 Sum of Mulliken charges =  -0.00000

 Dipole moment (field-independent basis, Debye):
    X=             -1.9075    Y=             -3.2338    Z=             -0.0000  Tot=              3.7544
 Quadrupole moment (field-independent basis, Debye-Ang):
   XX=             -9.2879   YY=             -7.3088   ZZ=            -14.7200
   XY=             -4.2973   XZ=             -0.0000   YZ=              0.0000

 Normal termination of Gaussian 16 at Fri Aug 26 18:05:22 2022.
