 Gaussian 16, Revision A.03,
 Gaussian 16:  ES64L-G16RevA.03 25-Dec-2016

 ------------------
 #p CCSD(T)/cc-pVTZ
 ------------------

 -----------
 H2O_H2O_534
 -----------
 Symbolic Z-matrix:
 Charge =  0 Multiplicity = 1

                         Standard orientation:
 ---------------------------------------------------------------------
 Center     Atomic      Atomic             Coordinates (Angstroms)
 Number     Number       Type             X           Y           Z
 ---------------------------------------------------------------------
      1          8           0        0.066833    1.318128   -0.000000
      2          1           0        0.065028    0.335528   -0.000000
      3          1           0       -0.862073    1.638501   -0.000000
      4          8           0        0.066833   -1.145136    0.000000
      5          1           0        0.611235   -1.963140    0.000000
      6          1           0       -0.883515   -1.394827    0.000000
 ---------------------------------------------------------------------

 SCF Done:  E(RHF) =  -152.100319052     A.U. after   11 cycles
 E2 =    -0.5318536124D+00 EUMP2 =    -0.15263217266484D+03
 CCSD(T)
 CCSD(T)= -0.15265860286D+03

 The electronic state is 1-A'.
 Alpha  occ. eigenvalues --  -20.60098 -20.49485  -1.38515  -1.27810  -0.75746
 Alpha  occ. eigenvalues --   -0.70327  -0.58722  -0.55138  -0.50102  -0.44764
 Alpha virt. eigenvalues --    0.11219   0.17048   0.20122   0.33165   0.48115
 Alpha virt. eigenvalues --    0.53484   0.60264   0.62691   0.71581   0.72199
 Alpha virt. eigenvalues --    0.73779   0.78408   0.80091   0.83643   0.84098

 Mulliken charges:
               1
     1  O   -0.598390
     2  H    0.306948
     3  H    0.221714
     4  O   -0.421956
     5  H    0.246610
     6  H    0.245075
 Sum of Mulliken charges =  -0.00000

 Dipole moment (field-independent basis, Debye):
    X=             -2.1362    Y=             -4.0915    Z=              0.0000  Tot=              4.6156
 Quadrupole moment (field-independent basis, Debye-Ang):
   XX=             -9.5693   YY=             -9.3337   ZZ=            -14.6691
   XY=             -2.9060   XZ=              0.0000   YZ=             -0.0000

 Normal termination of Gaussian 16 at Fri Aug 26 18:53:38 2022.
