 Gaussian 16, Revision A.03,
 Gaussian 16:  ES64L-G16RevA.03 25-Dec-2016

 ------------------
 #p CCSD(T)/cc-pVTZ
 ------------------

 ------------
 H2O_H2O_1013
 ------------
 Symbolic Z-matrix:
 Charge =  0 Multiplicity = 1

                         Standard orientation:
 ---------------------------------------------------------------------
 Center     Atomic      Atomic             Coordinates (Angstroms)
 Number     Number       Type             X           Y           Z
 ---------------------------------------------------------------------
      1          8           0        0.052381    1.511292    0.000000
      2          1           0        0.049954    0.528693    0.000000
      3          1           0       -0.876322    1.832253   -0.000000
      4          8           0        0.052381   -1.331497    0.000000
      5          1           0        0.789537   -1.981195    0.000000
      6          1           0       -0.801267   -1.818108   -0.000000
 ---------------------------------------------------------------------

 SCF Done:  E(RHF) =  -152.113246697     A.U. after   10 cycles
 E2 =    -0.5286359847D+00 EUMP2 =    -0.15264188268171D+03
 CCSD(T)
 CCSD(T)= -0.15266872763D+03

 The electronic state is 1-A'.
 Alpha  occ. eigenvalues --  -20.58824 -20.51617  -1.36320  -1.29306  -0.73521
 Alpha  occ. eigenvalues --   -0.68129  -0.59699  -0.53374  -0.52324  -0.46413
 Alpha virt. eigenvalues --    0.11785   0.17849   0.19105   0.31877   0.48373
 Alpha virt. eigenvalues --    0.54660   0.57292   0.60506   0.69644   0.71592
 Alpha virt. eigenvalues --    0.72764   0.77344   0.82377   0.82593   0.84815

 Mulliken charges:
               1
     1  O   -0.566136
     2  H    0.297994
     3  H    0.238657
     4  O   -0.491900
     5  H    0.264399
     6  H    0.256985
 Sum of Mulliken charges =  -0.00000

 Dipole moment (field-independent basis, Debye):
    X=             -1.7275    Y=             -3.7802    Z=             -0.0000  Tot=              4.1562
 Quadrupole moment (field-independent basis, Debye-Ang):
   XX=             -9.2293   YY=             -8.7515   ZZ=            -14.7256
   XY=             -3.3560   XZ=             -0.0000   YZ=             -0.0000

 Normal termination of Gaussian 16 at Fri Aug 26 21:54:27 2022.
