 Gaussian 16, Revision A.03,
 Gaussian 16:  ES64L-G16RevA.03 25-Dec-2016

 ------------------
 #p CCSD(T)/cc-pVTZ
 ------------------

 -----------
 H2O_H2O_405
 -----------
 Symbolic Z-matrix:
 Charge =  0 Multiplicity = 1

                         Standard orientation:
 ---------------------------------------------------------------------
 Center     Atomic      Atomic             Coordinates (Angstroms)
 Number     Number       Type             X           Y           Z
 ---------------------------------------------------------------------
      1          8           0        0.079888   -1.260658    0.000000
      2          1           0        0.078947   -0.278057    0.000000
      3          1           0       -0.849299   -1.580214    0.000000
      4          8           0        0.079888    1.101670    0.000000
      5          1           0        0.394844    2.032428    0.000000
      6          1           0       -0.902706    1.097749    0.000000
 ---------------------------------------------------------------------

 SCF Done:  E(RHF) =  -152.088148418     A.U. after   11 cycles
 E2 =    -0.5336826539D+00 EUMP2 =    -0.15262183107143D+03
 CCSD(T)
 CCSD(T)= -0.15264810584D+03

 The electronic state is 1-A'.
 Alpha  occ. eigenvalues --  -20.60467 -20.49342  -1.39587  -1.27831  -0.77854
 Alpha  occ. eigenvalues --   -0.70076  -0.58393  -0.55773  -0.49994  -0.44737
 Alpha virt. eigenvalues --    0.11029   0.16514   0.20723   0.32781   0.48763
 Alpha virt. eigenvalues --    0.52555   0.59445   0.64498   0.71892   0.72582
 Alpha virt. eigenvalues --    0.74637   0.77993   0.79153   0.83755   0.84691

 Mulliken charges:
               1
     1  O   -0.593495
     2  H    0.292420
     3  H    0.212325
     4  O   -0.379261
     5  H    0.232121
     6  H    0.235890
 Sum of Mulliken charges =  -0.00000

 Dipole moment (field-independent basis, Debye):
    X=             -2.5318    Y=              3.9473    Z=              0.0000  Tot=              4.6894
 Quadrupole moment (field-independent basis, Debye-Ang):
   XX=            -10.1103   YY=             -9.4709   ZZ=            -14.6294
   XY=              2.5795   XZ=              0.0000   YZ=              0.0000

 Normal termination of Gaussian 16 at Fri Aug 26 18:00:56 2022.
