 Gaussian 16, Revision A.03,
 Gaussian 16:  ES64L-G16RevA.03 25-Dec-2016

 ------------------
 #p CCSD(T)/cc-pVTZ
 ------------------

 ------------
 H2O_H2O_4458
 ------------
 Symbolic Z-matrix:
 Charge =  0 Multiplicity = 1

                         Standard orientation:
 ---------------------------------------------------------------------
 Center     Atomic      Atomic             Coordinates (Angstroms)
 Number     Number       Type             X           Y           Z
 ---------------------------------------------------------------------
      1          8           0        0.070184    2.882234   -0.000000
      2          1           0        0.069494    1.899633   -0.000000
      3          1           0       -0.859085    3.201554   -0.000000
      4          8           0        0.070184   -2.711966    0.000000
      5          1           0        0.560888   -3.563270    0.000000
      6          1           0       -0.894246   -2.900062    0.000000
 ---------------------------------------------------------------------

 SCF Done:  E(RHF) =  -152.108189955     A.U. after   10 cycles
 E2 =    -0.5258321212D+00 EUMP2 =    -0.15263402207651D+03
 CCSD(T)
 CCSD(T)= -0.15266122358D+03

 The electronic state is 1-A'.
 Alpha  occ. eigenvalues --  -20.56201 -20.55028  -1.33503  -1.32334  -0.70911
 Alpha  occ. eigenvalues --   -0.69731  -0.56985  -0.55798  -0.50619  -0.49453
 Alpha virt. eigenvalues --    0.13228   0.14882   0.19548   0.21104   0.53507
 Alpha virt. eigenvalues --    0.54874   0.56622   0.57773   0.66839   0.68717
 Alpha virt. eigenvalues --    0.78270   0.79407   0.79460   0.80501   0.82561

 Mulliken charges:
               1
     1  O   -0.512467
     2  H    0.259861
     3  H    0.252477
     4  O   -0.513413
     5  H    0.258595
     6  H    0.254947
 Sum of Mulliken charges =  -0.00000

 Dipole moment (field-independent basis, Debye):
    X=             -2.4064    Y=             -2.9899    Z=              0.0000  Tot=              3.8380
 Quadrupole moment (field-independent basis, Debye-Ang):
   XX=             -9.6792   YY=             -6.8350   ZZ=            -14.7140
   XY=             -4.1824   XZ=              0.0000   YZ=             -0.0000

 Normal termination of Gaussian 16 at Sun Aug 28 03:05:58 2022.
