 Gaussian 16, Revision A.03,
 Gaussian 16:  ES64L-G16RevA.03 25-Dec-2016

 ------------------
 #p CCSD(T)/cc-pVTZ
 ------------------

 -----------
 H2O_H2O_554
 -----------
 Symbolic Z-matrix:
 Charge =  0 Multiplicity = 1

                         Standard orientation:
 ---------------------------------------------------------------------
 Center     Atomic      Atomic             Coordinates (Angstroms)
 Number     Number       Type             X           Y           Z
 ---------------------------------------------------------------------
      1          8           0        0.082828   -1.318032    0.000000
      2          1           0        0.082134   -0.335430    0.000000
      3          1           0       -0.846439   -1.637354    0.000000
      4          8           0        0.082828    1.163567    0.000000
      5          1           0        0.336474    2.112866    0.000000
      6          1           0       -0.897422    1.095636    0.000000
 ---------------------------------------------------------------------

 SCF Done:  E(RHF) =  -152.097188828     A.U. after   11 cycles
 E2 =    -0.5323504831D+00 EUMP2 =    -0.15262953931156D+03
 CCSD(T)
 CCSD(T)= -0.15265606070D+03

 The electronic state is 1-A'.
 Alpha  occ. eigenvalues --  -20.59925 -20.50676  -1.38439  -1.28790  -0.76757
 Alpha  occ. eigenvalues --   -0.68870  -0.59257  -0.54934  -0.51362  -0.45763
 Alpha virt. eigenvalues --    0.11213   0.16585   0.20566   0.32646   0.48493
 Alpha virt. eigenvalues --    0.52789   0.59072   0.63851   0.71046   0.71827
 Alpha virt. eigenvalues --    0.74060   0.78477   0.78631   0.83508   0.83927

 Mulliken charges:
               1
     1  O   -0.576143
     2  H    0.293926
     3  H    0.218395
     4  O   -0.403345
     5  H    0.232744
     6  H    0.234423
 Sum of Mulliken charges =  -0.00000

 Dipole moment (field-independent basis, Debye):
    X=             -2.6595    Y=              3.6500    Z=              0.0000  Tot=              4.5161
 Quadrupole moment (field-independent basis, Debye-Ang):
   XX=            -10.2779   YY=             -9.2948   ZZ=            -14.6543
   XY=              2.5368   XZ=              0.0000   YZ=              0.0000

 Normal termination of Gaussian 16 at Fri Aug 26 19:01:30 2022.
