 Gaussian 16, Revision A.03,
 Gaussian 16:  ES64L-G16RevA.03 25-Dec-2016

 ------------------
 #p CCSD(T)/cc-pVTZ
 ------------------

 ------------
 H2O_H2O_1492
 ------------
 Symbolic Z-matrix:
 Charge =  0 Multiplicity = 1

                         Standard orientation:
 ---------------------------------------------------------------------
 Center     Atomic      Atomic             Coordinates (Angstroms)
 Number     Number       Type             X           Y           Z
 ---------------------------------------------------------------------
      1          8           0        0.037523    1.700273   -0.000000
      2          1           0        0.034598    0.717676   -0.000000
      3          1           0       -0.891017    2.021705   -0.000000
      4          8           0        0.037523   -1.521374    0.000000
      5          1           0        0.917494   -1.958589    0.000000
      6          1           0       -0.661444   -2.211990    0.000000
 ---------------------------------------------------------------------

 SCF Done:  E(RHF) =  -152.113991257     A.U. after   10 cycles
 E2 =    -0.5271244680D+00 EUMP2 =    -0.15264111572528D+03
 CCSD(T)
 CCSD(T)= -0.15266811014D+03

 The electronic state is 1-A'.
 Alpha  occ. eigenvalues --  -20.57958 -20.52904  -1.35247  -1.30354  -0.72592
 Alpha  occ. eigenvalues --   -0.68016  -0.59078  -0.53692  -0.52377  -0.47508
 Alpha virt. eigenvalues --    0.12106   0.17710   0.18919   0.29095   0.50202
 Alpha virt. eigenvalues --    0.54410   0.56019   0.59978   0.68863   0.72186
 Alpha virt. eigenvalues --    0.74276   0.76961   0.81547   0.83023   0.84785

 Mulliken charges:
               1
     1  O   -0.543870
     2  H    0.277982
     3  H    0.247756
     4  O   -0.506158
     5  H    0.265223
     6  H    0.259067
 Sum of Mulliken charges =  -0.00000

 Dipole moment (field-independent basis, Debye):
    X=             -1.2593    Y=             -3.5134    Z=              0.0000  Tot=              3.7323
 Quadrupole moment (field-independent basis, Debye-Ang):
   XX=             -9.1605   YY=             -8.2927   ZZ=            -14.7353
   XY=             -3.9119   XZ=              0.0000   YZ=             -0.0000

 Normal termination of Gaussian 16 at Sat Aug 27 00:54:54 2022.
