 Gaussian 16, Revision A.03,
 Gaussian 16:  ES64L-G16RevA.03 25-Dec-2016

 ------------------
 #p CCSD(T)/cc-pVTZ
 ------------------

 ------------
 H2O_H2O_1761
 ------------
 Symbolic Z-matrix:
 Charge =  0 Multiplicity = 1

                         Standard orientation:
 ---------------------------------------------------------------------
 Center     Atomic      Atomic             Coordinates (Angstroms)
 Number     Number       Type             X           Y           Z
 ---------------------------------------------------------------------
      1          8           0        0.059676    1.809143    0.000000
      2          1           0        0.058033    0.826543    0.000000
      3          1           0       -0.869282    2.129363    0.000000
      4          8           0        0.059676   -1.631746   -0.000000
      5          1           0        0.706314   -2.371587   -0.000000
      6          1           0       -0.849888   -2.003496   -0.000000
 ---------------------------------------------------------------------

 SCF Done:  E(RHF) =  -152.112686340     A.U. after   10 cycles
 E2 =    -0.5267447030D+00 EUMP2 =    -0.15263943104282D+03
 CCSD(T)
 CCSD(T)= -0.15266647338D+03

 The electronic state is 1-A'.
 Alpha  occ. eigenvalues --  -20.57618 -20.53467  -1.34879  -1.30849  -0.72261
 Alpha  occ. eigenvalues --   -0.68322  -0.58607  -0.54264  -0.52012  -0.47996
 Alpha virt. eigenvalues --    0.12058   0.17099   0.19198   0.27366   0.50588
 Alpha virt. eigenvalues --    0.55104   0.56311   0.58928   0.69168   0.72558
 Alpha virt. eigenvalues --    0.75376   0.77176   0.81003   0.83224   0.84347

 Mulliken charges:
               1
     1  O   -0.531530
     2  H    0.272093
     3  H    0.245705
     4  O   -0.505559
     5  H    0.262936
     6  H    0.256355
 Sum of Mulliken charges =  -0.00000

 Dipole moment (field-independent basis, Debye):
    X=             -2.0092    Y=             -3.3943    Z=             -0.0000  Tot=              3.9444
 Quadrupole moment (field-independent basis, Debye-Ang):
   XX=             -9.3751   YY=             -8.0969   ZZ=            -14.7307
   XY=             -3.6280   XZ=             -0.0000   YZ=              0.0000

 Normal termination of Gaussian 16 at Sun Aug 28 01:22:45 2022.
