 Gaussian 16, Revision A.03,
 Gaussian 16:  ES64L-G16RevA.03 25-Dec-2016

 ------------------
 #p CCSD(T)/cc-pVTZ
 ------------------

 ------------
 H2O_H2O_1122
 ------------
 Symbolic Z-matrix:
 Charge =  0 Multiplicity = 1

                         Standard orientation:
 ---------------------------------------------------------------------
 Center     Atomic      Atomic             Coordinates (Angstroms)
 Number     Number       Type             X           Y           Z
 ---------------------------------------------------------------------
      1          8           0       -0.019989    1.544260    0.000000
      2          1           0       -0.015743    0.561667    0.000000
      3          1           0        0.908118    1.866939    0.000000
      4          8           0       -0.019989   -1.377217    0.000000
      5          1           0       -0.993621   -1.509681    0.000000
      6          1           0        0.421073   -2.255267    0.000000
 ---------------------------------------------------------------------

 SCF Done:  E(RHF) =  -152.113191961     A.U. after   10 cycles
 E2 =    -0.5281523058D+00 EUMP2 =    -0.15264134426668D+03
 CCSD(T)
 CCSD(T)= -0.15266825010D+03

 The electronic state is 1-A'.
 Alpha  occ. eigenvalues --  -20.58508 -20.52282  -1.35978  -1.29879  -0.73474
 Alpha  occ. eigenvalues --   -0.67916  -0.59709  -0.53037  -0.52987  -0.47013
 Alpha virt. eigenvalues --    0.12029   0.18123   0.18887   0.31309   0.49307
 Alpha virt. eigenvalues --    0.54643   0.55838   0.62566   0.68509   0.72887
 Alpha virt. eigenvalues --    0.73715   0.76802   0.81888   0.82386   0.84351

 Mulliken charges:
               1
     1  O   -0.563182
     2  H    0.286774
     3  H    0.249838
     4  O   -0.482200
     5  H    0.263169
     6  H    0.245601
 Sum of Mulliken charges =  -0.00000

 Dipole moment (field-independent basis, Debye):
    X=              0.6733    Y=             -3.4535    Z=              0.0000  Tot=              3.5185
 Quadrupole moment (field-independent basis, Debye-Ang):
   XX=             -9.4396   YY=             -8.7219   ZZ=            -14.7243
   XY=              3.9393   XZ=              0.0000   YZ=              0.0000

 Normal termination of Gaussian 16 at Fri Aug 26 22:35:47 2022.
