 Gaussian 16, Revision A.03,
 Gaussian 16:  ES64L-G16RevA.03 25-Dec-2016

 ------------------
 #p CCSD(T)/cc-pVTZ
 ------------------

 ------------
 H2O_H2O_2236
 ------------
 Symbolic Z-matrix:
 Charge =  0 Multiplicity = 1

                         Standard orientation:
 ---------------------------------------------------------------------
 Center     Atomic      Atomic             Coordinates (Angstroms)
 Number     Number       Type             X           Y           Z
 ---------------------------------------------------------------------
      1          8           0        0.059662    1.998619   -0.000000
      2          1           0        0.058181    1.016019   -0.000000
      3          1           0       -0.869350    2.318686   -0.000000
      4          8           0        0.059662   -1.821202    0.000000
      5          1           0        0.706422   -2.560937    0.000000
      6          1           0       -0.849841   -2.193104    0.000000
 ---------------------------------------------------------------------

 SCF Done:  E(RHF) =  -152.111294908     A.U. after   10 cycles
 E2 =    -0.5262746604D+00 EUMP2 =    -0.15263756956793D+03
 CCSD(T)
 CCSD(T)= -0.15266465986D+03

 The electronic state is 1-A'.
 Alpha  occ. eigenvalues --  -20.57150 -20.53986  -1.34407  -1.31326  -0.71804
 Alpha  occ. eigenvalues --   -0.68723  -0.58028  -0.54796  -0.51541  -0.48469
 Alpha virt. eigenvalues --    0.12187   0.16626   0.19299   0.25074   0.52204
 Alpha virt. eigenvalues --    0.55563   0.56154   0.58893   0.68939   0.71747
 Alpha virt. eigenvalues --    0.76884   0.78278   0.80416   0.82987   0.83544

 Mulliken charges:
               1
     1  O   -0.524225
     2  H    0.267681
     3  H    0.248236
     4  O   -0.508134
     5  H    0.260805
     6  H    0.255637
 Sum of Mulliken charges =  -0.00000

 Dipole moment (field-independent basis, Debye):
    X=             -2.0217    Y=             -3.2927    Z=              0.0000  Tot=              3.8638
 Quadrupole moment (field-independent basis, Debye-Ang):
   XX=             -9.3701   YY=             -7.7683   ZZ=            -14.7246
   XY=             -3.8504   XZ=              0.0000   YZ=             -0.0000

 Normal termination of Gaussian 16 at Sun Aug 28 05:36:39 2022.
