 Gaussian 16, Revision A.03,
 Gaussian 16:  ES64L-G16RevA.03 25-Dec-2016

 ------------------
 #p CCSD(T)/cc-pVTZ
 ------------------

 ------------
 H2O_H2O_2411
 ------------
 Symbolic Z-matrix:
 Charge =  0 Multiplicity = 1

                         Standard orientation:
 ---------------------------------------------------------------------
 Center     Atomic      Atomic             Coordinates (Angstroms)
 Number     Number       Type             X           Y           Z
 ---------------------------------------------------------------------
      1          8           0        0.059657    2.068426   -0.000000
      2          1           0        0.058229    1.085826   -0.000000
      3          1           0       -0.869372    2.388443   -0.000000
      4          8           0        0.059657   -1.891003    0.000000
      5          1           0        0.706457   -2.630703    0.000000
      6          1           0       -0.849826   -2.262953    0.000000
 ---------------------------------------------------------------------

 SCF Done:  E(RHF) =  -152.110845459     A.U. after   10 cycles
 E2 =    -0.5261708127D+00 EUMP2 =    -0.15263701627220D+03
 CCSD(T)
 CCSD(T)= -0.15266412096D+03

 The electronic state is 1-A'.
 Alpha  occ. eigenvalues --  -20.57013 -20.54127  -1.34274  -1.31459  -0.71674
 Alpha  occ. eigenvalues --   -0.68850  -0.57867  -0.54937  -0.51407  -0.48600
 Alpha virt. eigenvalues --    0.12232   0.16452   0.19337   0.24384   0.52617
 Alpha virt. eigenvalues --    0.55675   0.56108   0.58942   0.68950   0.71037
 Alpha virt. eigenvalues --    0.77231   0.78600   0.80259   0.81504   0.83636

 Mulliken charges:
               1
     1  O   -0.522413
     2  H    0.266813
     3  H    0.248935
     4  O   -0.509408
     5  H    0.260420
     6  H    0.255653
 Sum of Mulliken charges =  -0.00000

 Dipole moment (field-independent basis, Debye):
    X=             -2.0249    Y=             -3.2650    Z=              0.0000  Tot=              3.8419
 Quadrupole moment (field-independent basis, Debye-Ang):
   XX=             -9.3685   YY=             -7.6552   ZZ=            -14.7228
   XY=             -3.9316   XZ=              0.0000   YZ=             -0.0000

 Normal termination of Gaussian 16 at Sun Aug 28 07:07:48 2022.
