 Gaussian 16, Revision A.03,
 Gaussian 16:  ES64L-G16RevA.03 25-Dec-2016

 ------------------
 #p CCSD(T)/cc-pVTZ
 ------------------

 ------------
 H2O_H2O_1100
 ------------
 Symbolic Z-matrix:
 Charge =  0 Multiplicity = 1

                         Standard orientation:
 ---------------------------------------------------------------------
 Center     Atomic      Atomic             Coordinates (Angstroms)
 Number     Number       Type             X           Y           Z
 ---------------------------------------------------------------------
      1          8           0        0.092949   -1.525637    0.000000
      2          1           0        0.092949   -0.543035    0.000000
      3          1           0       -0.836544   -1.844303    0.000000
      4          8           0        0.092949    1.392850    0.000000
      5          1           0        0.092950    2.375452    0.000000
      6          1           0       -0.836544    1.074183    0.000000
 ---------------------------------------------------------------------

 SCF Done:  E(RHF) =  -152.106809353     A.U. after   10 cycles
 E2 =    -0.5291506840D+00 EUMP2 =    -0.15263596003723D+03
 CCSD(T)
 CCSD(T)= -0.15266297531D+03

 The electronic state is 1-A'.
 Alpha  occ. eigenvalues --  -20.58491 -20.53837  -1.36076  -1.31303  -0.74296
 Alpha  occ. eigenvalues --   -0.68404  -0.59351  -0.54548  -0.53005  -0.48366
 Alpha virt. eigenvalues --    0.11461   0.16366   0.20733   0.29959   0.48448
 Alpha virt. eigenvalues --    0.53215   0.58123   0.60133   0.68048   0.71885
 Alpha virt. eigenvalues --    0.73880   0.78299   0.80340   0.81439   0.83025

 Mulliken charges:
               1
     1  O   -0.529394
     2  H    0.280278
     3  H    0.232776
     4  O   -0.454526
     5  H    0.238697
     6  H    0.232170
 Sum of Mulliken charges =  -0.00000

 Dipole moment (field-independent basis, Debye):
    X=             -3.0703    Y=              2.7462    Z=              0.0000  Tot=              4.1192
 Quadrupole moment (field-independent basis, Debye-Ang):
   XX=            -10.9041   YY=             -9.2021   ZZ=            -14.6950
   XY=              2.0908   XZ=              0.0000   YZ=              0.0000

 Normal termination of Gaussian 16 at Fri Aug 26 22:27:43 2022.
