 Gaussian 16, Revision A.03,
 Gaussian 16:  ES64L-G16RevA.03 25-Dec-2016

 ------------------
 #p CCSD(T)/cc-pVTZ
 ------------------

 ------------
 H2O_H2O_4547
 ------------
 Symbolic Z-matrix:
 Charge =  0 Multiplicity = 1

                         Standard orientation:
 ---------------------------------------------------------------------
 Center     Atomic      Atomic             Coordinates (Angstroms)
 Number     Number       Type             X           Y           Z
 ---------------------------------------------------------------------
      1          8           0       -0.019815    2.910450    0.000000
      2          1           0       -0.017621    1.927851    0.000000
      3          1           0        0.908964    3.231191    0.000000
      4          8           0       -0.019815   -2.743324    0.000000
      5          1           0       -0.993721   -2.873754    0.000000
      6          1           0        0.419414   -3.622292    0.000000
 ---------------------------------------------------------------------

 SCF Done:  E(RHF) =  -152.108431506     A.U. after   10 cycles
 E2 =    -0.5257988479D+00 EUMP2 =    -0.15263423035421D+03
 CCSD(T)
 CCSD(T)= -0.15266142829D+03

 The electronic state is 1-A'.
 Alpha  occ. eigenvalues --  -20.56172 -20.55041  -1.33474  -1.32348  -0.70880
 Alpha  occ. eigenvalues --   -0.69754  -0.56967  -0.55821  -0.50593  -0.49472
 Alpha virt. eigenvalues --    0.13295   0.14890   0.19517   0.21176   0.53507
 Alpha virt. eigenvalues --    0.54891   0.56678   0.57777   0.66866   0.68649
 Alpha virt. eigenvalues --    0.78292   0.79385   0.79536   0.80626   0.82435

 Mulliken charges:
               1
     1  O   -0.514291
     2  H    0.259558
     3  H    0.254632
     4  O   -0.514823
     5  H    0.257181
     6  H    0.257742
 Sum of Mulliken charges =  -0.00000

 Dipole moment (field-independent basis, Debye):
    X=              0.6809    Y=             -2.9312    Z=              0.0000  Tot=              3.0092
 Quadrupole moment (field-independent basis, Debye-Ang):
   XX=             -9.4476   YY=             -6.9654   ZZ=            -14.7148
   XY=              7.4001   XZ=              0.0000   YZ=              0.0000

 Normal termination of Gaussian 16 at Sun Aug 28 03:45:56 2022.
