 Gaussian 16, Revision A.03,
 Gaussian 16:  ES64L-G16RevA.03 25-Dec-2016

 ------------------
 #p CCSD(T)/cc-pVTZ
 ------------------

 ------------
 H2O_H2O_3202
 ------------
 Symbolic Z-matrix:
 Charge =  0 Multiplicity = 1

                         Standard orientation:
 ---------------------------------------------------------------------
 Center     Atomic      Atomic             Coordinates (Angstroms)
 Number     Number       Type             X           Y           Z
 ---------------------------------------------------------------------
      1          8           0        0.088231   -2.369543    0.000000
      2          1           0        0.088057   -1.386942    0.000000
      3          1           0       -0.841205   -2.688374    0.000000
      4          8           0        0.088231    2.225223    0.000000
      5          1           0        0.216314    3.199442    0.000000
      6          1           0       -0.874870    2.030435    0.000000
 ---------------------------------------------------------------------

 SCF Done:  E(RHF) =  -152.108284972     A.U. after   10 cycles
 E2 =    -0.5260027375D+00 EUMP2 =    -0.15263428770989D+03
 CCSD(T)
 CCSD(T)= -0.15266147037D+03

 The electronic state is 1-A'.
 Alpha  occ. eigenvalues --  -20.56564 -20.55037  -1.33859  -1.32342  -0.71284
 Alpha  occ. eigenvalues --   -0.69726  -0.57335  -0.55799  -0.50970  -0.49458
 Alpha virt. eigenvalues --    0.11828   0.15503   0.19285   0.22737   0.53908
 Alpha virt. eigenvalues --    0.54821   0.56438   0.58140   0.67486   0.69033
 Alpha virt. eigenvalues --    0.77932   0.78534   0.79408   0.81099   0.82629

 Mulliken charges:
               1
     1  O   -0.511497
     2  H    0.260340
     3  H    0.249901
     4  O   -0.510062
     5  H    0.259774
     6  H    0.251544
 Sum of Mulliken charges =  -0.00000

 Dipole moment (field-independent basis, Debye):
    X=             -3.0088    Y=              2.5791    Z=              0.0000  Tot=              3.9629
 Quadrupole moment (field-independent basis, Debye-Ang):
   XX=            -10.5594   YY=             -8.6393   ZZ=            -14.7139
   XY=              2.5904   XZ=              0.0000   YZ=              0.0000

 Normal termination of Gaussian 16 at Fri Aug 26 20:22:21 2022.
