 Gaussian 16, Revision A.03,
 Gaussian 16:  ES64L-G16RevA.03 25-Dec-2016

 ------------------
 #p CCSD(T)/cc-pVTZ
 ------------------

 -----------
 H2O_H2O_882
 -----------
 Symbolic Z-matrix:
 Charge =  0 Multiplicity = 1

                         Standard orientation:
 ---------------------------------------------------------------------
 Center     Atomic      Atomic             Coordinates (Angstroms)
 Number     Number       Type             X           Y           Z
 ---------------------------------------------------------------------
      1          8           0        0.073576    1.454407    0.000000
      2          1           0        0.072374    0.471806    0.000000
      3          1           0       -0.855526    1.774210    0.000000
      4          8           0        0.073576   -1.287536   -0.000000
      5          1           0        0.507091   -2.169336   -0.000000
      6          1           0       -0.901156   -1.411645   -0.000000
 ---------------------------------------------------------------------

 SCF Done:  E(RHF) =  -152.109786226     A.U. after   10 cycles
 E2 =    -0.5295792446D+00 EUMP2 =    -0.15263936547081D+03
 CCSD(T)
 CCSD(T)= -0.15266616552D+03

 The electronic state is 1-A'.
 Alpha  occ. eigenvalues --  -20.59069 -20.51745  -1.36752  -1.29481  -0.74289
 Alpha  occ. eigenvalues --   -0.68319  -0.59676  -0.53700  -0.52430  -0.46548
 Alpha virt. eigenvalues --    0.11538   0.17046   0.19811   0.32045   0.48174
 Alpha virt. eigenvalues --    0.54216   0.59085   0.60259   0.69751   0.72376
 Alpha virt. eigenvalues --    0.74178   0.77063   0.81138   0.82807   0.84090

 Mulliken charges:
               1
     1  O   -0.562987
     2  H    0.296960
     3  H    0.231203
     4  O   -0.456178
     5  H    0.244854
     6  H    0.246148
 Sum of Mulliken charges =  -0.00000

 Dipole moment (field-independent basis, Debye):
    X=             -2.4080    Y=             -3.5974    Z=             -0.0000  Tot=              4.3290
 Quadrupole moment (field-independent basis, Debye-Ang):
   XX=             -9.8432   YY=             -8.9180   ZZ=            -14.7048
   XY=             -2.9301   XZ=             -0.0000   YZ=             -0.0000

 Normal termination of Gaussian 16 at Fri Aug 26 21:06:45 2022.
