 Gaussian 16, Revision A.03,
 Gaussian 16:  ES64L-G16RevA.03 25-Dec-2016

 ------------------
 #p CCSD(T)/cc-pVTZ
 ------------------

 -----------
 H2O_H2O_133
 -----------
 Symbolic Z-matrix:
 Charge =  0 Multiplicity = 1

                         Standard orientation:
 ---------------------------------------------------------------------
 Center     Atomic      Atomic             Coordinates (Angstroms)
 Number     Number       Type             X           Y           Z
 ---------------------------------------------------------------------
      1          8           0        0.070281    1.157012   -0.000000
      2          1           0        0.068479    0.174412   -0.000000
      3          1           0       -0.858627    1.477381   -0.000000
      4          8           0        0.070281   -0.986903    0.000000
      5          1           0        0.560021   -1.838759    0.000000
      6          1           0       -0.894362   -1.173908    0.000000
 ---------------------------------------------------------------------

 SCF Done:  E(RHF) =  -152.054475428     A.U. after   11 cycles
 E2 =    -0.5361341931D+00 EUMP2 =    -0.15259060962070D+03
 CCSD(T)
 CCSD(T)= -0.15261630559D+03

 The electronic state is 1-A'.
 Alpha  occ. eigenvalues --  -20.61684 -20.45849  -1.42745  -1.25526  -0.80289
 Alpha  occ. eigenvalues --   -0.74305  -0.57896  -0.55626  -0.46272  -0.42173
 Alpha virt. eigenvalues --    0.10513   0.16187   0.21236   0.32436   0.48830
 Alpha virt. eigenvalues --    0.51939   0.60564   0.64336   0.71164   0.71882
 Alpha virt. eigenvalues --    0.77772   0.78957   0.81307   0.84193   0.86681

 Mulliken charges:
               1
     1  O   -0.639131
     2  H    0.286459
     3  H    0.198615
     4  O   -0.322877
     5  H    0.235512
     6  H    0.241421
 Sum of Mulliken charges =  -0.00000

 Dipole moment (field-independent basis, Debye):
    X=             -2.1510    Y=             -4.6772    Z=              0.0000  Tot=              5.1481
 Quadrupole moment (field-independent basis, Debye-Ang):
   XX=             -9.6530   YY=             -9.9758   ZZ=            -14.5656
   XY=             -2.6264   XZ=              0.0000   YZ=             -0.0000

 Normal termination of Gaussian 16 at Fri Aug 26 16:05:56 2022.
