 Gaussian 16, Revision A.03,
 Gaussian 16:  ES64L-G16RevA.03 25-Dec-2016

 ------------------
 #p CCSD(T)/cc-pVTZ
 ------------------

 ------------
 H2O_H2O_3418
 ------------
 Symbolic Z-matrix:
 Charge =  0 Multiplicity = 1

                         Standard orientation:
 ---------------------------------------------------------------------
 Center     Atomic      Atomic             Coordinates (Angstroms)
 Number     Number       Type             X           Y           Z
 ---------------------------------------------------------------------
      1          8           0        0.033781    2.467364   -0.000000
      2          1           0        0.031670    1.484765   -0.000000
      3          1           0       -0.895026    2.788026   -0.000000
      4          8           0        0.033781   -2.289833    0.000000
      5          1           0        0.940777   -2.667808    0.000000
      6          1           0       -0.617912   -3.025226    0.000000
 ---------------------------------------------------------------------

 SCF Done:  E(RHF) =  -152.109372888     A.U. after   10 cycles
 E2 =    -0.5258573680D+00 EUMP2 =    -0.15263523025558D+03
 CCSD(T)
 CCSD(T)= -0.15266239270D+03

 The electronic state is 1-A'.
 Alpha  occ. eigenvalues --  -20.56466 -20.54637  -1.33755  -1.31953  -0.71157
 Alpha  occ. eigenvalues --   -0.69353  -0.57282  -0.55439  -0.50881  -0.49085
 Alpha virt. eigenvalues --    0.12697   0.15609   0.19498   0.21995   0.53363
 Alpha virt. eigenvalues --    0.55227   0.56498   0.58066   0.67166   0.69338
 Alpha virt. eigenvalues --    0.78023   0.78885   0.79750   0.79771   0.83066

 Mulliken charges:
               1
     1  O   -0.517682
     2  H    0.262907
     3  H    0.253284
     4  O   -0.515922
     5  H    0.259340
     6  H    0.258074
 Sum of Mulliken charges =  -0.00000

 Dipole moment (field-independent basis, Debye):
    X=             -1.1549    Y=             -3.1644    Z=              0.0000  Tot=              3.3685
 Quadrupole moment (field-independent basis, Debye-Ang):
   XX=             -9.1860   YY=             -7.0310   ZZ=            -14.7182
   XY=             -5.5654   XZ=              0.0000   YZ=             -0.0000

 Normal termination of Gaussian 16 at Fri Aug 26 21:35:24 2022.
