 Gaussian 16, Revision A.03,
 Gaussian 16:  ES64L-G16RevA.03 25-Dec-2016

 ------------------
 #p CCSD(T)/cc-pVTZ
 ------------------

 ------------
 H2O_H2O_2187
 ------------
 Symbolic Z-matrix:
 Charge =  0 Multiplicity = 1

                         Standard orientation:
 ---------------------------------------------------------------------
 Center     Atomic      Atomic             Coordinates (Angstroms)
 Number     Number       Type             X           Y           Z
 ---------------------------------------------------------------------
      1          8           0        0.056015    1.979469   -0.000000
      2          1           0        0.054355    0.996869   -0.000000
      3          1           0       -0.872939    2.299705   -0.000000
      4          8           0        0.056015   -1.800592    0.000000
      5          1           0        0.749645   -2.496570    0.000000
      6          1           0       -0.827296   -2.231021    0.000000
 ---------------------------------------------------------------------

 SCF Done:  E(RHF) =  -152.111557234     A.U. after   10 cycles
 E2 =    -0.5262957061D+00 EUMP2 =    -0.15263785293977D+03
 CCSD(T)
 CCSD(T)= -0.15266493691D+03

 The electronic state is 1-A'.
 Alpha  occ. eigenvalues --  -20.57192 -20.53905  -1.34446  -1.31250  -0.71839
 Alpha  occ. eigenvalues --   -0.68653  -0.58085  -0.54719  -0.51583  -0.48395
 Alpha virt. eigenvalues --    0.12208   0.16716   0.19264   0.25321   0.52028
 Alpha virt. eigenvalues --    0.55437   0.56249   0.58943   0.68975   0.71922
 Alpha virt. eigenvalues --    0.76769   0.78092   0.80493   0.83417   0.83525

 Mulliken charges:
               1
     1  O   -0.525502
     2  H    0.268110
     3  H    0.248423
     4  O   -0.508203
     5  H    0.261112
     6  H    0.256059
 Sum of Mulliken charges =  -0.00000

 Dipole moment (field-independent basis, Debye):
    X=             -1.8973    Y=             -3.3293    Z=              0.0000  Tot=              3.8319
 Quadrupole moment (field-independent basis, Debye-Ang):
   XX=             -9.2920   YY=             -7.7661   ZZ=            -14.7256
   XY=             -3.9379   XZ=              0.0000   YZ=             -0.0000

 Normal termination of Gaussian 16 at Sun Aug 28 05:12:46 2022.
