 Gaussian 16, Revision A.03,
 Gaussian 16:  ES64L-G16RevA.03 25-Dec-2016

 ------------------
 #p CCSD(T)/cc-pVTZ
 ------------------

 ----------
 H2O_H2O_16
 ----------
 Symbolic Z-matrix:
 Charge =  0 Multiplicity = 1

                         Standard orientation:
 ---------------------------------------------------------------------
 Center     Atomic      Atomic             Coordinates (Angstroms)
 Number     Number       Type             X           Y           Z
 ---------------------------------------------------------------------
      1          8           0        0.041357    1.112387    0.000000
      2          1           0        0.037056    0.129795    0.000000
      3          1           0       -0.886733    1.435119   -0.000000
      4          8           0        0.041357   -0.932661    0.000000
      5          1           0        0.890156   -1.427681    0.000000
      6          1           0       -0.702183   -1.575044   -0.000000
 ---------------------------------------------------------------------

 SCF Done:  E(RHF) =  -152.027338428     A.U. after   11 cycles
 E2 =    -0.5360988017D+00 EUMP2 =    -0.15256343722932D+03
 CCSD(T)
 CCSD(T)= -0.15258888988D+03

 The electronic state is 1-A'.
 Alpha  occ. eigenvalues --  -20.62297 -20.43226  -1.44738  -1.23955  -0.80620
 Alpha  occ. eigenvalues --   -0.78191  -0.59181  -0.54042  -0.43290  -0.40316
 Alpha virt. eigenvalues --    0.10209   0.16324   0.21330   0.32916   0.46646
 Alpha virt. eigenvalues --    0.51695   0.62656   0.65925   0.70133   0.70475
 Alpha virt. eigenvalues --    0.77943   0.79139   0.81810   0.82734   0.89526

 Mulliken charges:
               1
     1  O   -0.688032
     2  H    0.276666
     3  H    0.201243
     4  O   -0.285379
     5  H    0.257120
     6  H    0.238383
 Sum of Mulliken charges =  -0.00000

 Dipole moment (field-independent basis, Debye):
    X=             -1.2347    Y=             -5.2044    Z=             -0.0000  Tot=              5.3489
 Quadrupole moment (field-independent basis, Debye-Ang):
   XX=             -9.0769   YY=            -10.3532   ZZ=            -14.5372
   XY=             -2.6183   XZ=              0.0000   YZ=             -0.0000

 Normal termination of Gaussian 16 at Fri Aug 26 15:17:39 2022.
