 Gaussian 16, Revision A.03,
 Gaussian 16:  ES64L-G16RevA.03 25-Dec-2016

 ------------------
 #p CCSD(T)/cc-pVTZ
 ------------------

 ------------
 H2O_H2O_1436
 ------------
 Symbolic Z-matrix:
 Charge =  0 Multiplicity = 1

                         Standard orientation:
 ---------------------------------------------------------------------
 Center     Atomic      Atomic             Coordinates (Angstroms)
 Number     Number       Type             X           Y           Z
 ---------------------------------------------------------------------
      1          8           0        0.059689    1.679500    0.000000
      2          1           0        0.057911    0.696900    0.000000
      3          1           0       -0.869227    1.999847    0.000000
      4          8           0        0.059689   -1.502119   -0.000000
      5          1           0        0.706225   -2.242049   -0.000000
      6          1           0       -0.849927   -1.873746   -0.000000
 ---------------------------------------------------------------------

 SCF Done:  E(RHF) =  -152.113485928     A.U. after   10 cycles
 E2 =    -0.5273380000D+00 EUMP2 =    -0.15264082392837D+03
 CCSD(T)
 CCSD(T)= -0.15266781561D+03

 The electronic state is 1-A'.
 Alpha  occ. eigenvalues --  -20.58049 -20.52920  -1.35351  -1.30373  -0.72708
 Alpha  occ. eigenvalues --   -0.68055  -0.59125  -0.53691  -0.52470  -0.47513
 Alpha virt. eigenvalues --    0.11950   0.17386   0.19160   0.29261   0.49423
 Alpha virt. eigenvalues --    0.54954   0.56511   0.59243   0.69527   0.72354
 Alpha virt. eigenvalues --    0.74057   0.76672   0.81574   0.82905   0.84688

 Mulliken charges:
               1
     1  O   -0.540843
     2  H    0.279770
     3  H    0.242972
     4  O   -0.502164
     5  H    0.263383
     6  H    0.256884
 Sum of Mulliken charges =  -0.00000

 Dipole moment (field-independent basis, Debye):
    X=             -1.9959    Y=             -3.5009    Z=             -0.0000  Tot=              4.0298
 Quadrupole moment (field-independent basis, Debye-Ang):
   XX=             -9.3773   YY=             -8.3521   ZZ=            -14.7329
   XY=             -3.4719   XZ=             -0.0000   YZ=              0.0000

 Normal termination of Gaussian 16 at Sat Aug 27 00:34:25 2022.
