 Gaussian 16, Revision A.03,
 Gaussian 16:  ES64L-G16RevA.03 25-Dec-2016

 ------------------
 #p CCSD(T)/cc-pVTZ
 ------------------

 ------------
 H2O_H2O_4482
 ------------
 Symbolic Z-matrix:
 Charge =  0 Multiplicity = 1

                         Standard orientation:
 ---------------------------------------------------------------------
 Center     Atomic      Atomic             Coordinates (Angstroms)
 Number     Number       Type             X           Y           Z
 ---------------------------------------------------------------------
      1          8           0        0.073524    2.890411    0.000000
      2          1           0        0.072937    1.907809    0.000000
      3          1           0       -0.855779    3.209632   -0.000000
      4          8           0        0.073524   -2.723448    0.000000
      5          1           0        0.507590   -3.604977    0.000000
      6          1           0       -0.901131   -2.848166   -0.000000
 ---------------------------------------------------------------------

 SCF Done:  E(RHF) =  -152.108122869     A.U. after   10 cycles
 E2 =    -0.5258365218D+00 EUMP2 =    -0.15263395939038D+03
 CCSD(T)
 CCSD(T)= -0.15266116251D+03

 The electronic state is 1-A'.
 Alpha  occ. eigenvalues --  -20.56199 -20.55061  -1.33500  -1.32367  -0.70909
 Alpha  occ. eigenvalues --   -0.69764  -0.56980  -0.55829  -0.50616  -0.49485
 Alpha virt. eigenvalues --    0.13204   0.14854   0.19498   0.21123   0.53477
 Alpha virt. eigenvalues --    0.54871   0.56617   0.57762   0.66857   0.68679
 Alpha virt. eigenvalues --    0.78273   0.79377   0.79467   0.80603   0.82482

 Mulliken charges:
               1
     1  O   -0.512112
     2  H    0.259586
     3  H    0.252411
     4  O   -0.513081
     5  H    0.258550
     6  H    0.254645
 Sum of Mulliken charges =  -0.00000

 Dipole moment (field-independent basis, Debye):
    X=             -2.5211    Y=             -2.9311    Z=              0.0000  Tot=              3.8662
 Quadrupole moment (field-independent basis, Debye-Ang):
   XX=             -9.8091   YY=             -7.0225   ZZ=            -14.7137
   XY=             -3.9484   XZ=              0.0000   YZ=              0.0000

 Normal termination of Gaussian 16 at Sun Aug 28 03:16:15 2022.
