 Gaussian 16, Revision A.03,
 Gaussian 16:  ES64L-G16RevA.03 25-Dec-2016

 ------------------
 #p CCSD(T)/cc-pVTZ
 ------------------

 -----------
 H2O_H2O_468
 -----------
 Symbolic Z-matrix:
 Charge =  0 Multiplicity = 1

                         Standard orientation:
 ---------------------------------------------------------------------
 Center     Atomic      Atomic             Coordinates (Angstroms)
 Number     Number       Type             X           Y           Z
 ---------------------------------------------------------------------
      1          8           0        0.033967    1.290610    0.000000
      2          1           0        0.029790    0.308017    0.000000
      3          1           0       -0.894162    1.613225    0.000000
      4          8           0        0.033967   -1.113222    0.000000
      5          1           0        0.940166   -1.493104    0.000000
      6          1           0       -0.619271   -1.847242    0.000000
 ---------------------------------------------------------------------

 SCF Done:  E(RHF) =  -152.097553776     A.U. after   11 cycles
 E2 =    -0.5319697968D+00 EUMP2 =    -0.15262952357288D+03
 CCSD(T)
 CCSD(T)= -0.15265582911D+03

 The electronic state is 1-A'.
 Alpha  occ. eigenvalues --  -20.60330 -20.48415  -1.38996  -1.27025  -0.75827
 Alpha  occ. eigenvalues --   -0.71309  -0.58404  -0.55534  -0.48922  -0.43950
 Alpha virt. eigenvalues --    0.11272   0.17731   0.19812   0.33789   0.47225
 Alpha virt. eigenvalues --    0.53513   0.60121   0.66797   0.69304   0.72216
 Alpha virt. eigenvalues --    0.74655   0.78392   0.80356   0.83253   0.83835

 Mulliken charges:
               1
     1  O   -0.623222
     2  H    0.308479
     3  H    0.230146
     4  O   -0.422455
     5  H    0.261679
     6  H    0.245373
 Sum of Mulliken charges =  -0.00000

 Dipole moment (field-independent basis, Debye):
    X=             -1.0854    Y=             -4.3091    Z=             -0.0000  Tot=              4.4437
 Quadrupole moment (field-independent basis, Debye-Ang):
   XX=             -9.1470   YY=             -9.4859   ZZ=            -14.6653
   XY=             -3.0799   XZ=             -0.0000   YZ=             -0.0000

 Normal termination of Gaussian 16 at Fri Aug 26 18:28:16 2022.
