 Gaussian 16, Revision A.03,
 Gaussian 16:  ES64L-G16RevA.03 25-Dec-2016

 ------------------
 #p CCSD(T)/cc-pVTZ
 ------------------

 -----------
 H2O_H2O_164
 -----------
 Symbolic Z-matrix:
 Charge =  0 Multiplicity = 1

                         Standard orientation:
 ---------------------------------------------------------------------
 Center     Atomic      Atomic             Coordinates (Angstroms)
 Number     Number       Type             X           Y           Z
 ---------------------------------------------------------------------
      1          8           0        0.048749    1.172477   -0.000000
      2          1           0        0.045270    0.189882   -0.000000
      3          1           0       -0.879609    1.494433   -0.000000
      4          8           0        0.048749   -0.992268    0.000000
      5          1           0        0.826176   -1.593195    0.000000
      6          1           0       -0.771825   -1.532790    0.000000
 ---------------------------------------------------------------------

 SCF Done:  E(RHF) =  -152.062938383     A.U. after   11 cycles
 E2 =    -0.5348003922D+00 EUMP2 =    -0.15259773877561D+03
 CCSD(T)
 CCSD(T)= -0.15262348963D+03

 The electronic state is 1-A'.
 Alpha  occ. eigenvalues --  -20.61633 -20.45278  -1.42221  -1.25083  -0.77396
 Alpha  occ. eigenvalues --   -0.76867  -0.57740  -0.55582  -0.45620  -0.41696
 Alpha virt. eigenvalues --    0.10561   0.16694   0.20886   0.33181   0.47054
 Alpha virt. eigenvalues --    0.52353   0.63103   0.64557   0.70771   0.71300
 Alpha virt. eigenvalues --    0.78998   0.80009   0.80887   0.82090   0.85822

 Mulliken charges:
               1
     1  O   -0.657462
     2  H    0.299283
     3  H    0.208041
     4  O   -0.347242
     5  H    0.253433
     6  H    0.243948
 Sum of Mulliken charges =  -0.00000

 Dipole moment (field-independent basis, Debye):
    X=             -1.4928    Y=             -4.8893    Z=              0.0000  Tot=              5.1121
 Quadrupole moment (field-independent basis, Debye-Ang):
   XX=             -9.1375   YY=            -10.0446   ZZ=            -14.5915
   XY=             -2.7533   XZ=              0.0000   YZ=             -0.0000

 Normal termination of Gaussian 16 at Fri Aug 26 16:18:33 2022.
