 Gaussian 16, Revision A.03,
 Gaussian 16:  ES64L-G16RevA.03 25-Dec-2016

 ------------------
 #p CCSD(T)/cc-pVTZ
 ------------------

 ------------
 H2O_H2O_3502
 ------------
 Symbolic Z-matrix:
 Charge =  0 Multiplicity = 1

                         Standard orientation:
 ---------------------------------------------------------------------
 Center     Atomic      Atomic             Coordinates (Angstroms)
 Number     Number       Type             X           Y           Z
 ---------------------------------------------------------------------
      1          8           0        0.088231   -2.489207    0.000000
      2          1           0        0.088065   -1.506606    0.000000
      3          1           0       -0.841208   -2.808030    0.000000
      4          8           0        0.088231    2.344886    0.000000
      5          1           0        0.216322    3.319103    0.000000
      6          1           0       -0.874872    2.150106    0.000000
 ---------------------------------------------------------------------

 SCF Done:  E(RHF) =  -152.108105554     A.U. after   10 cycles
 E2 =    -0.5259457522D+00 EUMP2 =    -0.15263405130583D+03
 CCSD(T)
 CCSD(T)= -0.15266124415D+03

 The electronic state is 1-A'.
 Alpha  occ. eigenvalues --  -20.56454 -20.55102  -1.33751  -1.32406  -0.71172
 Alpha  occ. eigenvalues --   -0.69795  -0.57224  -0.55863  -0.50863  -0.49522
 Alpha virt. eigenvalues --    0.12015   0.15318   0.19143   0.22397   0.53422
 Alpha virt. eigenvalues --    0.54966   0.56451   0.58028   0.66979   0.68989
 Alpha virt. eigenvalues --    0.78043   0.78664   0.79344   0.81201   0.82556

 Mulliken charges:
               1
     1  O   -0.510930
     2  H    0.259547
     3  H    0.250636
     4  O   -0.510970
     5  H    0.259652
     6  H    0.252065
 Sum of Mulliken charges =  -0.00000

 Dipole moment (field-independent basis, Debye):
    X=             -3.0139    Y=              2.5638    Z=              0.0000  Tot=              3.9569
 Quadrupole moment (field-independent basis, Debye-Ang):
   XX=            -10.5560   YY=             -8.6048   ZZ=            -14.7133
   XY=              2.6114   XZ=              0.0000   YZ=              0.0000

 Normal termination of Gaussian 16 at Fri Aug 26 22:04:20 2022.
