 Gaussian 16, Revision A.03,
 Gaussian 16:  ES64L-G16RevA.03 25-Dec-2016

 ------------------
 #p CCSD(T)/cc-pVTZ
 ------------------

 -----------
 H2O_H2O_948
 -----------
 Symbolic Z-matrix:
 Charge =  0 Multiplicity = 1

                         Standard orientation:
 ---------------------------------------------------------------------
 Center     Atomic      Atomic             Coordinates (Angstroms)
 Number     Number       Type             X           Y           Z
 ---------------------------------------------------------------------
      1          8           0       -0.016776    1.472441    0.000000
      2          1           0       -0.012119    0.489851    0.000000
      3          1           0        0.911197    1.795509    0.000000
      4          8           0       -0.016776   -1.309112    0.000000
      5          1           0       -0.996959   -1.378023    0.000000
      6          1           0        0.366292   -2.213968    0.000000
 ---------------------------------------------------------------------

 SCF Done:  E(RHF) =  -152.111510910     A.U. after   10 cycles
 E2 =    -0.5289299224D+00 EUMP2 =    -0.15264044083207D+03
 CCSD(T)
 CCSD(T)= -0.15266726822D+03

 The electronic state is 1-A'.
 Alpha  occ. eigenvalues --  -20.58848 -20.51790  -1.36491  -1.29512  -0.74138
 Alpha  occ. eigenvalues --   -0.67906  -0.59963  -0.53473  -0.52439  -0.46623
 Alpha virt. eigenvalues --    0.11951   0.18217   0.18967   0.32340   0.48776
 Alpha virt. eigenvalues --    0.54442   0.56235   0.64037   0.68333   0.72448
 Alpha virt. eigenvalues --    0.74154   0.76504   0.81171   0.82791   0.84210

 Mulliken charges:
               1
     1  O   -0.574996
     2  H    0.290865
     3  H    0.249365
     4  O   -0.465247
     5  H    0.260697
     6  H    0.239317
 Sum of Mulliken charges =  -0.00000

 Dipole moment (field-independent basis, Debye):
    X=              0.5662    Y=             -3.4937    Z=              0.0000  Tot=              3.5392
 Quadrupole moment (field-independent basis, Debye-Ang):
   XX=             -9.5283   YY=             -8.9012   ZZ=            -14.7128
   XY=              3.8396   XZ=              0.0000   YZ=              0.0000

 Normal termination of Gaussian 16 at Fri Aug 26 21:30:39 2022.
