 Gaussian 16, Revision A.03,
 Gaussian 16:  ES64L-G16RevA.03 25-Dec-2016

 ------------------
 #p CCSD(T)/cc-pVTZ
 ------------------

 ------------
 H2O_H2O_3208
 ------------
 Symbolic Z-matrix:
 Charge =  0 Multiplicity = 1

                         Standard orientation:
 ---------------------------------------------------------------------
 Center     Atomic      Atomic             Coordinates (Angstroms)
 Number     Number       Type             X           Y           Z
 ---------------------------------------------------------------------
      1          8           0        0.070197    2.383627   -0.000000
      2          1           0        0.069357    1.401026   -0.000000
      3          1           0       -0.859023    2.703088    0.000000
      4          8           0        0.070197   -2.213381   -0.000000
      5          1           0        0.560771   -3.064758   -0.000000
      6          1           0       -0.894262   -2.401329    0.000000
 ---------------------------------------------------------------------

 SCF Done:  E(RHF) =  -152.109096642     A.U. after   10 cycles
 E2 =    -0.5259408073D+00 EUMP2 =    -0.15263503744884D+03
 CCSD(T)
 CCSD(T)= -0.15266220011D+03

 The electronic state is 1-A'.
 Alpha  occ. eigenvalues --  -20.56561 -20.54683  -1.33848  -1.31996  -0.71258
 Alpha  occ. eigenvalues --   -0.69384  -0.57359  -0.55470  -0.50970  -0.49122
 Alpha virt. eigenvalues --    0.12381   0.15665   0.19442   0.22265   0.53485
 Alpha virt. eigenvalues --    0.55171   0.56362   0.58323   0.67538   0.69313
 Alpha virt. eigenvalues --    0.77935   0.78763   0.79720   0.80100   0.82990

 Mulliken charges:
               1
     1  O   -0.515303
     2  H    0.262776
     3  H    0.250598
     4  O   -0.513028
     5  H    0.260057
     6  H    0.254900
 Sum of Mulliken charges =   0.00000

 Dipole moment (field-independent basis, Debye):
    X=             -2.3951    Y=             -3.0479    Z=              0.0000  Tot=              3.8764
 Quadrupole moment (field-independent basis, Debye-Ang):
   XX=             -9.6841   YY=             -7.4581   ZZ=            -14.7171
   XY=             -3.7862   XZ=             -0.0000   YZ=              0.0000

 Normal termination of Gaussian 16 at Fri Aug 26 20:24:21 2022.
