 Gaussian 16, Revision A.03,
 Gaussian 16:  ES64L-G16RevA.03 25-Dec-2016

 ------------------
 #p CCSD(T)/cc-pVTZ
 ------------------

 ------------
 H2O_H2O_2729
 ------------
 Symbolic Z-matrix:
 Charge =  0 Multiplicity = 1

                         Standard orientation:
 ---------------------------------------------------------------------
 Center     Atomic      Atomic             Coordinates (Angstroms)
 Number     Number       Type             X           Y           Z
 ---------------------------------------------------------------------
      1          8           0        0.082806   -2.185614    0.000000
      2          1           0        0.082397   -1.203012    0.000000
      3          1           0       -0.846555   -2.504666    0.000000
      4          8           0        0.082806    2.031101    0.000000
      5          1           0        0.336727    2.980326    0.000000
      6          1           0       -0.897464    1.963455    0.000000
 ---------------------------------------------------------------------

 SCF Done:  E(RHF) =  -152.109102287     A.U. after   10 cycles
 E2 =    -0.5261212525D+00 EUMP2 =    -0.15263522353992D+03
 CCSD(T)
 CCSD(T)= -0.15266237416D+03

 The electronic state is 1-A'.
 Alpha  occ. eigenvalues --  -20.56793 -20.54735  -1.34077  -1.32046  -0.71505
 Alpha  occ. eigenvalues --   -0.69423  -0.57583  -0.55508  -0.51194  -0.49169
 Alpha virt. eigenvalues --    0.11861   0.15886   0.19510   0.23358   0.54022
 Alpha virt. eigenvalues --    0.55123   0.56387   0.58328   0.68641   0.69620
 Alpha virt. eigenvalues --    0.77631   0.78920   0.79704   0.80650   0.82944

 Mulliken charges:
               1
     1  O   -0.514862
     2  H    0.263191
     3  H    0.248534
     4  O   -0.508501
     5  H    0.259565
     6  H    0.252073
 Sum of Mulliken charges =  -0.00000

 Dipole moment (field-independent basis, Debye):
    X=             -2.8153    Y=              2.7999    Z=              0.0000  Tot=              3.9706
 Quadrupole moment (field-independent basis, Debye-Ang):
   XX=            -10.2591   YY=             -8.2769   ZZ=            -14.7165
   XY=              2.9447   XZ=              0.0000   YZ=              0.0000

 Normal termination of Gaussian 16 at Fri Aug 26 16:52:30 2022.
