 Gaussian 16, Revision A.03,
 Gaussian 16:  ES64L-G16RevA.03 25-Dec-2016

 ------------------
 #p CCSD(T)/cc-pVTZ
 ------------------

 ------------
 H2O_H2O_4654
 ------------
 Symbolic Z-matrix:
 Charge =  0 Multiplicity = 1

                         Standard orientation:
 ---------------------------------------------------------------------
 Center     Atomic      Atomic             Coordinates (Angstroms)
 Number     Number       Type             X           Y           Z
 ---------------------------------------------------------------------
      1          8           0        0.082797    2.953461    0.000000
      2          1           0        0.082498    1.970860    0.000000
      3          1           0       -0.846598    3.272411    0.000000
      4          8           0        0.082797   -2.798930   -0.000000
      5          1           0        0.336824   -3.748128   -0.000000
      6          1           0       -0.897481   -2.731394   -0.000000
 ---------------------------------------------------------------------

 SCF Done:  E(RHF) =  -152.107883215     A.U. after   10 cycles
 E2 =    -0.5258491600D+00 EUMP2 =    -0.15263373237513D+03
 CCSD(T)
 CCSD(T)= -0.15266094167D+03

 The electronic state is 1-A'.
 Alpha  occ. eigenvalues --  -20.56175 -20.55193  -1.33477  -1.32496  -0.70888
 Alpha  occ. eigenvalues --   -0.69894  -0.56946  -0.55954  -0.50590  -0.49612
 Alpha virt. eigenvalues --    0.13167   0.14724   0.19321   0.21174   0.53437
 Alpha virt. eigenvalues --    0.54811   0.56612   0.57692   0.66965   0.68495
 Alpha virt. eigenvalues --    0.78298   0.79256   0.79618   0.80874   0.81984

 Mulliken charges:
               1
     1  O   -0.510914
     2  H    0.258467
     3  H    0.252389
     4  O   -0.511868
     5  H    0.258193
     6  H    0.253732
 Sum of Mulliken charges =  -0.00000

 Dipole moment (field-independent basis, Debye):
    X=             -2.8404    Y=             -2.7087    Z=              0.0000  Tot=              3.9249
 Quadrupole moment (field-independent basis, Debye-Ang):
   XX=            -10.2438   YY=             -7.7548   ZZ=            -14.7128
   XY=             -3.2223   XZ=             -0.0000   YZ=              0.0000

 Normal termination of Gaussian 16 at Sun Aug 28 04:39:50 2022.
