 Gaussian 16, Revision A.03,
 Gaussian 16:  ES64L-G16RevA.03 25-Dec-2016

 ------------------
 #p CCSD(T)/cc-pVTZ
 ------------------

 ------------
 H2O_H2O_4688
 ------------
 Symbolic Z-matrix:
 Charge =  0 Multiplicity = 1

                         Standard orientation:
 ---------------------------------------------------------------------
 Center     Atomic      Atomic             Coordinates (Angstroms)
 Number     Number       Type             X           Y           Z
 ---------------------------------------------------------------------
      1          8           0        0.052268    2.977229   -0.000000
      2          1           0        0.051073    1.994628   -0.000000
      3          1           0       -0.876836    3.297026   -0.000000
      4          8           0        0.052268   -2.797303    0.000000
      5          1           0        0.790239   -3.446076    0.000000
      6          1           0       -0.800770   -3.284984    0.000000
 ---------------------------------------------------------------------

 SCF Done:  E(RHF) =  -152.108304134     A.U. after   10 cycles
 E2 =    -0.5258107549D+00 EUMP2 =    -0.15263411488925D+03
 CCSD(T)
 CCSD(T)= -0.15266131530D+03

 The electronic state is 1-A'.
 Alpha  occ. eigenvalues --  -20.56155 -20.54987  -1.33456  -1.32294  -0.70861
 Alpha  occ. eigenvalues --   -0.69695  -0.56945  -0.55762  -0.50574  -0.49415
 Alpha virt. eigenvalues --    0.13441   0.14851   0.19714   0.20968   0.53685
 Alpha virt. eigenvalues --    0.54829   0.56684   0.57783   0.66937   0.68643
 Alpha virt. eigenvalues --    0.78311   0.79443   0.79706   0.80313   0.82513

 Mulliken charges:
               1
     1  O   -0.513340
     2  H    0.260038
     3  H    0.253225
     4  O   -0.514088
     5  H    0.258094
     6  H    0.256071
 Sum of Mulliken charges =  -0.00000

 Dipole moment (field-independent basis, Debye):
    X=             -1.7933    Y=             -3.1537    Z=              0.0000  Tot=              3.6279
 Quadrupole moment (field-independent basis, Debye-Ang):
   XX=             -9.2249   YY=             -6.1240   ZZ=            -14.7144
   XY=             -5.4520   XZ=              0.0000   YZ=             -0.0000

 Normal termination of Gaussian 16 at Sun Aug 28 05:05:33 2022.
