 Gaussian 16, Revision A.03,
 Gaussian 16:  ES64L-G16RevA.03 25-Dec-2016

 ------------------
 #p CCSD(T)/cc-pVTZ
 ------------------

 ------------
 H2O_H2O_2511
 ------------
 Symbolic Z-matrix:
 Charge =  0 Multiplicity = 1

                         Standard orientation:
 ---------------------------------------------------------------------
 Center     Atomic      Atomic             Coordinates (Angstroms)
 Number     Number       Type             X           Y           Z
 ---------------------------------------------------------------------
      1          8           0        0.059654    2.108315    0.000000
      2          1           0        0.058254    1.125715    0.000000
      3          1           0       -0.869384    2.428306   -0.000000
      4          8           0        0.059654   -1.930889    0.000000
      5          1           0        0.706475   -2.670570    0.000000
      6          1           0       -0.849818   -2.302865   -0.000000
 ---------------------------------------------------------------------

 SCF Done:  E(RHF) =  -152.110610215     A.U. after   10 cycles
 E2 =    -0.5261221428D+00 EUMP2 =    -0.15263673235760D+03
 CCSD(T)
 CCSD(T)= -0.15266384477D+03

 The electronic state is 1-A'.
 Alpha  occ. eigenvalues --  -20.56942 -20.54199  -1.34206  -1.31528  -0.71607
 Alpha  occ. eigenvalues --   -0.68917  -0.57785  -0.55008  -0.51338  -0.48667
 Alpha virt. eigenvalues --    0.12260   0.16354   0.19359   0.24027   0.52801
 Alpha virt. eigenvalues --    0.55685   0.56112   0.58947   0.68969   0.70575
 Alpha virt. eigenvalues --    0.77385   0.78758   0.80181   0.80856   0.83561

 Mulliken charges:
               1
     1  O   -0.521490
     2  H    0.266350
     3  H    0.249297
     4  O   -0.510170
     5  H    0.260311
     6  H    0.255703
 Sum of Mulliken charges =  -0.00000

 Dipole moment (field-independent basis, Debye):
    X=             -2.0265    Y=             -3.2509    Z=             -0.0000  Tot=              3.8308
 Quadrupole moment (field-independent basis, Debye-Ang):
   XX=             -9.3677   YY=             -7.5918   ZZ=            -14.7220
   XY=             -3.9780   XZ=              0.0000   YZ=             -0.0000

 Normal termination of Gaussian 16 at Fri Aug 26 15:16:23 2022.
