 Gaussian 16, Revision A.03,
 Gaussian 16:  ES64L-G16RevA.03 25-Dec-2016

 ------------------
 #p CCSD(T)/cc-pVTZ
 ------------------

 ------------
 H2O_H2O_2001
 ------------
 Symbolic Z-matrix:
 Charge =  0 Multiplicity = 1

                         Standard orientation:
 ---------------------------------------------------------------------
 Center     Atomic      Atomic             Coordinates (Angstroms)
 Number     Number       Type             X           Y           Z
 ---------------------------------------------------------------------
      1          8           0        0.090686   -1.887841    0.000000
      2          1           0        0.090580   -0.905239    0.000000
      3          1           0       -0.838773   -2.206607    0.000000
      4          8           0        0.090686    1.749136    0.000000
      5          1           0        0.154846    2.729641    0.000000
      6          1           0       -0.857632    1.491841    0.000000
 ---------------------------------------------------------------------

 SCF Done:  E(RHF) =  -152.109215773     A.U. after   10 cycles
 E2 =    -0.5267106233D+00 EUMP2 =    -0.15263592639612D+03
 CCSD(T)
 CCSD(T)= -0.15266305214D+03

 The electronic state is 1-A'.
 Alpha  occ. eigenvalues --  -20.57310 -20.54707  -1.34605  -1.32022  -0.72130
 Alpha  occ. eigenvalues --   -0.69344  -0.58113  -0.55448  -0.51701  -0.49136
 Alpha virt. eigenvalues --    0.11517   0.16154   0.20097   0.25563   0.51986
 Alpha virt. eigenvalues --    0.55558   0.57013   0.57422   0.68214   0.73705
 Alpha virt. eigenvalues --    0.76071   0.78674   0.79975   0.82325   0.82954

 Mulliken charges:
               1
     1  O   -0.516107
     2  H    0.266122
     3  H    0.244396
     4  O   -0.498941
     5  H    0.258089
     6  H    0.246441
 Sum of Mulliken charges =   0.00000

 Dipole moment (field-independent basis, Debye):
    X=             -3.0570    Y=              2.5924    Z=              0.0000  Tot=              4.0082
 Quadrupole moment (field-independent basis, Debye-Ang):
   XX=            -10.7360   YY=             -8.9555   ZZ=            -14.7154
   XY=              2.3208   XZ=              0.0000   YZ=              0.0000

 Normal termination of Gaussian 16 at Sun Aug 28 03:27:17 2022.
