 Gaussian 16, Revision A.03,
 Gaussian 16:  ES64L-G16RevA.03 25-Dec-2016

 ------------------
 #p CCSD(T)/cc-pVTZ
 ------------------

 ------------
 H2O_H2O_4415
 ------------
 Symbolic Z-matrix:
 Charge =  0 Multiplicity = 1

                         Standard orientation:
 ---------------------------------------------------------------------
 Center     Atomic      Atomic             Coordinates (Angstroms)
 Number     Number       Type             X           Y           Z
 ---------------------------------------------------------------------
      1          8           0        0.044828    2.867813    0.000000
      2          1           0        0.043358    1.885213    0.000000
      3          1           0       -0.884188    3.187869    0.000000
      4          8           0        0.044828   -2.687382    0.000000
      5          1           0        0.861013   -3.234508    0.000000
      6          1           0       -0.737424   -3.282017    0.000000
 ---------------------------------------------------------------------

 SCF Done:  E(RHF) =  -152.108487151     A.U. after   10 cycles
 E2 =    -0.5258073968D+00 EUMP2 =    -0.15263429454825D+03
 CCSD(T)
 CCSD(T)= -0.15266148962D+03

 The electronic state is 1-A'.
 Alpha  occ. eigenvalues --  -20.56200 -20.54919  -1.33501  -1.32228  -0.70905
 Alpha  occ. eigenvalues --   -0.69629  -0.56997  -0.55700  -0.50621  -0.49351
 Alpha virt. eigenvalues --    0.13327   0.14980   0.19694   0.21084   0.53646
 Alpha virt. eigenvalues --    0.54860   0.56654   0.57805   0.66789   0.68821
 Alpha virt. eigenvalues --    0.78267   0.79503   0.79668   0.80013   0.82734

 Mulliken charges:
               1
     1  O   -0.514207
     2  H    0.260687
     3  H    0.253354
     4  O   -0.514913
     5  H    0.258351
     6  H    0.256728
 Sum of Mulliken charges =  -0.00000

 Dipole moment (field-independent basis, Debye):
    X=             -1.5371    Y=             -3.1699    Z=              0.0000  Tot=              3.5229
 Quadrupole moment (field-independent basis, Debye-Ang):
   XX=             -9.1569   YY=             -6.2706   ZZ=            -14.7151
   XY=             -5.7313   XZ=              0.0000   YZ=              0.0000

 Normal termination of Gaussian 16 at Sun Aug 28 02:41:44 2022.
