 Gaussian 16, Revision A.03,
 Gaussian 16:  ES64L-G16RevA.03 25-Dec-2016

 ------------------
 #p CCSD(T)/cc-pVTZ
 ------------------

 -----------
 H2O_H2O_193
 -----------
 Symbolic Z-matrix:
 Charge =  0 Multiplicity = 1

                         Standard orientation:
 ---------------------------------------------------------------------
 Center     Atomic      Atomic             Coordinates (Angstroms)
 Number     Number       Type             X           Y           Z
 ---------------------------------------------------------------------
      1          8           0        0.034005    1.180905    0.000000
      2          1           0        0.029408    0.198315    0.000000
      3          1           0       -0.893987    1.503917    0.000000
      4          8           0        0.034005   -1.003546   -0.000000
      5          1           0        0.940042   -1.383815   -0.000000
      6          1           0       -0.619546   -1.737288   -0.000000
 ---------------------------------------------------------------------

 SCF Done:  E(RHF) =  -152.066970222     A.U. after   11 cycles
 E2 =    -0.5345064234D+00 EUMP2 =    -0.15260147664573D+03
 CCSD(T)
 CCSD(T)= -0.15262727716D+03

 The electronic state is 1-A'.
 Alpha  occ. eigenvalues --  -20.61446 -20.45611  -1.41855  -1.25275  -0.78369
 Alpha  occ. eigenvalues --   -0.74908  -0.57470  -0.56150  -0.45913  -0.41946
 Alpha virt. eigenvalues --    0.10718   0.17038   0.20650   0.33581   0.46801
 Alpha virt. eigenvalues --    0.52487   0.61583   0.67568   0.70157   0.71463
 Alpha virt. eigenvalues --    0.78000   0.79224   0.80152   0.83142   0.85291

 Mulliken charges:
               1
     1  O   -0.659261
     2  H    0.296809
     3  H    0.217197
     4  O   -0.354877
     5  H    0.260895
     6  H    0.239238
 Sum of Mulliken charges =  -0.00000

 Dipole moment (field-independent basis, Debye):
    X=             -1.0486    Y=             -4.7802    Z=             -0.0000  Tot=              4.8939
 Quadrupole moment (field-independent basis, Debye-Ang):
   XX=             -9.1185   YY=             -9.9691   ZZ=            -14.5983
   XY=             -2.8099   XZ=             -0.0000   YZ=              0.0000

 Normal termination of Gaussian 16 at Fri Aug 26 16:30:23 2022.
