 Gaussian 16, Revision A.03,
 Gaussian 16:  ES64L-G16RevA.03 25-Dec-2016

 ------------------
 #p CCSD(T)/cc-pVTZ
 ------------------

 ------------
 H2O_H2O_3259
 ------------
 Symbolic Z-matrix:
 Charge =  0 Multiplicity = 1

                         Standard orientation:
 ---------------------------------------------------------------------
 Center     Atomic      Atomic             Coordinates (Angstroms)
 Number     Number       Type             X           Y           Z
 ---------------------------------------------------------------------
      1          8           0        0.066758    2.405125    0.000000
      2          1           0        0.065799    1.422524    0.000000
      3          1           0       -0.862423    2.724698    0.000000
      4          8           0        0.066758   -2.232018   -0.000000
      5          1           0        0.611865   -3.049554   -0.000000
      6          1           0       -0.883374   -2.482528   -0.000000
 ---------------------------------------------------------------------

 SCF Done:  E(RHF) =  -152.109138853     A.U. after   10 cycles
 E2 =    -0.5259234950D+00 EUMP2 =    -0.15263506234780D+03
 CCSD(T)
 CCSD(T)= -0.15266222526D+03

 The electronic state is 1-A'.
 Alpha  occ. eigenvalues --  -20.56540 -20.54662  -1.33827  -1.31976  -0.71234
 Alpha  occ. eigenvalues --   -0.69366  -0.57340  -0.55452  -0.50949  -0.49104
 Alpha virt. eigenvalues --    0.12468   0.15648   0.19464   0.22162   0.53425
 Alpha virt. eigenvalues --    0.55175   0.56377   0.58281   0.67438   0.69327
 Alpha virt. eigenvalues --    0.77957   0.78795   0.79737   0.79945   0.83016

 Mulliken charges:
               1
     1  O   -0.515622
     2  H    0.262892
     3  H    0.250893
     4  O   -0.513574
     5  H    0.260066
     6  H    0.255345
 Sum of Mulliken charges =  -0.00000

 Dipole moment (field-independent basis, Debye):
    X=             -2.2785    Y=             -3.0960    Z=             -0.0000  Tot=              3.8441
 Quadrupole moment (field-independent basis, Debye-Ang):
   XX=             -9.5640   YY=             -7.3129   ZZ=            -14.7173
   XY=             -3.9817   XZ=             -0.0000   YZ=              0.0000

 CCSD(T)=-152.6622253\RMSD=7.016e-09\PG=CS [SG(H4O2)]\\@
 Normal termination of Gaussian 16 at Fri Aug 26 20:41:16 2022.
