 Gaussian 16, Revision A.03,
 Gaussian 16:  ES64L-G16RevA.03 25-Dec-2016

 ------------------
 #p CCSD(T)/cc-pVTZ
 ------------------

 ------------
 H2O_H2O_2093
 ------------
 Symbolic Z-matrix:
 Charge =  0 Multiplicity = 1

                         Standard orientation:
 ---------------------------------------------------------------------
 Center     Atomic      Atomic             Coordinates (Angstroms)
 Number     Number       Type             X           Y           Z
 ---------------------------------------------------------------------
      1          8           0        0.033835    1.938832    0.000000
      2          1           0        0.031121    0.956234    0.000000
      3          1           0       -0.894774    2.260065    0.000000
      4          8           0        0.033835   -1.761343   -0.000000
      5          1           0        0.940599   -2.139874   -0.000000
      6          1           0       -0.618308   -2.496336   -0.000000
 ---------------------------------------------------------------------

 SCF Done:  E(RHF) =  -152.112143257     A.U. after   10 cycles
 E2 =    -0.5263173805D+00 EUMP2 =    -0.15263846063765D+03
 CCSD(T)
 CCSD(T)= -0.15266553189D+03

 The electronic state is 1-A'.
 Alpha  occ. eigenvalues --  -20.57259 -20.53793  -1.34514  -1.31148  -0.71903
 Alpha  occ. eigenvalues --   -0.68574  -0.58192  -0.54617  -0.51654  -0.48301
 Alpha virt. eigenvalues --    0.12266   0.16926   0.19177   0.25854   0.52195
 Alpha virt. eigenvalues --    0.54992   0.56406   0.58865   0.69065   0.72267
 Alpha virt. eigenvalues --    0.76509   0.77962   0.80607   0.83502   0.84080

 Mulliken charges:
               1
     1  O   -0.529531
     2  H    0.268434
     3  H    0.251029
     4  O   -0.509455
     5  H    0.261591
     6  H    0.257931
 Sum of Mulliken charges =   0.00000

 Dipole moment (field-independent basis, Debye):
    X=             -1.1469    Y=             -3.3212    Z=             -0.0000  Tot=              3.5137
 Quadrupole moment (field-independent basis, Debye-Ang):
   XX=             -9.1872   YY=             -7.8608   ZZ=            -14.7280
   XY=             -4.4815   XZ=             -0.0000   YZ=              0.0000

 Normal termination of Gaussian 16 at Sun Aug 28 04:16:01 2022.
