 Gaussian 16, Revision A.03,
 Gaussian 16:  ES64L-G16RevA.03 25-Dec-2016

 ------------------
 #p CCSD(T)/cc-pVTZ
 ------------------

 ------------
 H2O_H2O_3022
 ------------
 Symbolic Z-matrix:
 Charge =  0 Multiplicity = 1

                         Standard orientation:
 ---------------------------------------------------------------------
 Center     Atomic      Atomic             Coordinates (Angstroms)
 Number     Number       Type             X           Y           Z
 ---------------------------------------------------------------------
      1          8           0       -0.019866    2.302152    0.000000
      2          1           0       -0.017070    1.319554    0.000000
      3          1           0        0.908717    2.623461    0.000000
      4          8           0       -0.019866   -2.135050    0.000000
      5          1           0       -0.993692   -2.266077    0.000000
      6          1           0        0.419900   -3.013750    0.000000
 ---------------------------------------------------------------------

 SCF Done:  E(RHF) =  -152.109823839     A.U. after   10 cycles
 E2 =    -0.5259165432D+00 EUMP2 =    -0.15263574038216D+03
 CCSD(T)
 CCSD(T)= -0.15266288603D+03

 The electronic state is 1-A'.
 Alpha  occ. eigenvalues --  -20.56619 -20.54589  -1.33904  -1.31908  -0.71310
 Alpha  occ. eigenvalues --   -0.69314  -0.57446  -0.55399  -0.51032  -0.49046
 Alpha virt. eigenvalues --    0.12360   0.15906   0.19302   0.22940   0.53591
 Alpha virt. eigenvalues --    0.55543   0.56436   0.58292   0.68075   0.69357
 Alpha virt. eigenvalues --    0.77855   0.78826   0.79789   0.80373   0.83155

 Mulliken charges:
               1
     1  O   -0.520011
     2  H    0.263191
     3  H    0.254246
     4  O   -0.515083
     5  H    0.258948
     6  H    0.258709
 Sum of Mulliken charges =  -0.00000

 Dipole moment (field-independent basis, Debye):
    X=              0.6806    Y=             -3.0044    Z=              0.0000  Tot=              3.0805
 Quadrupole moment (field-independent basis, Debye-Ang):
   XX=             -9.4467   YY=             -7.6617   ZZ=            -14.7195
   XY=              5.8665   XZ=              0.0000   YZ=              0.0000

 Normal termination of Gaussian 16 at Fri Aug 26 19:18:49 2022.
