 Gaussian 16, Revision A.03,
 Gaussian 16:  ES64L-G16RevA.03 25-Dec-2016

 ------------------
 #p CCSD(T)/cc-pVTZ
 ------------------

 ------------
 H2O_H2O_1871
 ------------
 Symbolic Z-matrix:
 Charge =  0 Multiplicity = 1

                         Standard orientation:
 ---------------------------------------------------------------------
 Center     Atomic      Atomic             Coordinates (Angstroms)
 Number     Number       Type             X           Y           Z
 ---------------------------------------------------------------------
      1          8           0       -0.023274    1.845211    0.000000
      2          1           0       -0.019911    0.862615    0.000000
      3          1           0        0.905123    2.167056    0.000000
      4          8           0       -0.023274   -1.674860    0.000000
      5          1           0       -0.986334   -1.869852    0.000000
      6          1           0        0.473509   -2.522629    0.000000
 ---------------------------------------------------------------------

 SCF Done:  E(RHF) =  -152.112622938     A.U. after   10 cycles
 E2 =    -0.5265209112D+00 EUMP2 =    -0.15263914384905D+03
 CCSD(T)
 CCSD(T)= -0.15266619779D+03

 The electronic state is 1-A'.
 Alpha  occ. eigenvalues --  -20.57452 -20.53678  -1.34721  -1.31051  -0.72127
 Alpha  occ. eigenvalues --   -0.68505  -0.58444  -0.54493  -0.51855  -0.48207
 Alpha virt. eigenvalues --    0.12215   0.17146   0.19147   0.26912   0.52025
 Alpha virt. eigenvalues --    0.54464   0.56072   0.59270   0.68982   0.72989
 Alpha virt. eigenvalues --    0.75746   0.77933   0.80790   0.83331   0.84295

 Mulliken charges:
               1
     1  O   -0.533671
     2  H    0.269298
     3  H    0.252359
     4  O   -0.508569
     5  H    0.262233
     6  H    0.258350
 Sum of Mulliken charges =  -0.00000

 Dipole moment (field-independent basis, Debye):
    X=              0.7909    Y=             -3.2317    Z=              0.0000  Tot=              3.3271
 Quadrupole moment (field-independent basis, Debye-Ang):
   XX=             -9.3627   YY=             -8.1540   ZZ=            -14.7299
   XY=              4.5944   XZ=              0.0000   YZ=              0.0000

 Normal termination of Gaussian 16 at Sun Aug 28 02:20:22 2022.
