 Gaussian 16, Revision A.03,
 Gaussian 16:  ES64L-G16RevA.03 25-Dec-2016

 ------------------
 #p CCSD(T)/cc-pVTZ
 ------------------

 ------------
 H2O_H2O_2832
 ------------
 Symbolic Z-matrix:
 Charge =  0 Multiplicity = 1

                         Standard orientation:
 ---------------------------------------------------------------------
 Center     Atomic      Atomic             Coordinates (Angstroms)
 Number     Number       Type             X           Y           Z
 ---------------------------------------------------------------------
      1          8           0        0.073539    2.232250    0.000000
      2          1           0        0.072772    1.249649    0.000000
      3          1           0       -0.855705    2.551642   -0.000000
      4          8           0        0.073539   -2.065314    0.000000
      5          1           0        0.507445   -2.946922    0.000000
      6          1           0       -0.901138   -2.189854   -0.000000
 ---------------------------------------------------------------------

 SCF Done:  E(RHF) =  -152.109471124     A.U. after   10 cycles
 E2 =    -0.5260450425D+00 EUMP2 =    -0.15263551616609D+03
 CCSD(T)
 CCSD(T)= -0.15266266100D+03

 The electronic state is 1-A'.
 Alpha  occ. eigenvalues --  -20.56741 -20.54574  -1.34021  -1.31890  -0.71435
 Alpha  occ. eigenvalues --   -0.69273  -0.57544  -0.55362  -0.51144  -0.49018
 Alpha virt. eigenvalues --    0.12144   0.15931   0.19438   0.23043   0.53654
 Alpha virt. eigenvalues --    0.55301   0.56267   0.58587   0.68579   0.69404
 Alpha virt. eigenvalues --    0.77720   0.78981   0.79830   0.80242   0.83077

 Mulliken charges:
               1
     1  O   -0.516581
     2  H    0.263923
     3  H    0.249369
     4  O   -0.510758
     5  H    0.259905
     6  H    0.254142
 Sum of Mulliken charges =  -0.00000

 Dipole moment (field-independent basis, Debye):
    X=             -2.5033    Y=             -3.0191    Z=             -0.0000  Tot=              3.9219
 Quadrupole moment (field-independent basis, Debye-Ang):
   XX=             -9.8184   YY=             -7.7661   ZZ=            -14.7181
   XY=             -3.5010   XZ=              0.0000   YZ=             -0.0000

 Normal termination of Gaussian 16 at Fri Aug 26 17:38:06 2022.
