 Gaussian 16, Revision A.03,
 Gaussian 16:  ES64L-G16RevA.03 25-Dec-2016

 ------------------
 #p CCSD(T)/cc-pVTZ
 ------------------

 ------------
 H2O_H2O_4961
 ------------
 Symbolic Z-matrix:
 Charge =  0 Multiplicity = 1

                         Standard orientation:
 ---------------------------------------------------------------------
 Center     Atomic      Atomic             Coordinates (Angstroms)
 Number     Number       Type             X           Y           Z
 ---------------------------------------------------------------------
      1          8           0        0.059613    3.085592    0.000000
      2          1           0        0.058670    2.102991    0.000000
      3          1           0       -0.869573    3.405150   -0.000000
      4          8           0        0.059613   -2.908110    0.000000
      5          1           0        0.706778   -3.647490    0.000000
      6          1           0       -0.849686   -3.280508   -0.000000
 ---------------------------------------------------------------------

 SCF Done:  E(RHF) =  -152.108140448     A.U. after   10 cycles
 E2 =    -0.5258169722D+00 EUMP2 =    -0.15263395742039D+03
 CCSD(T)
 CCSD(T)= -0.15266116213D+03

 The electronic state is 1-A'.
 Alpha  occ. eigenvalues --  -20.56117 -20.55060  -1.33419  -1.32365  -0.70825
 Alpha  occ. eigenvalues --   -0.69766  -0.56900  -0.55830  -0.50535  -0.49485
 Alpha virt. eigenvalues --    0.13520   0.14734   0.19714   0.20876   0.53709
 Alpha virt. eigenvalues --    0.54789   0.56709   0.57739   0.67082   0.68483
 Alpha virt. eigenvalues --    0.78348   0.79377   0.79738   0.80565   0.82152

 Mulliken charges:
               1
     1  O   -0.512533
     2  H    0.259343
     3  H    0.253158
     4  O   -0.513244
     5  H    0.257800
     6  H    0.255477
 Sum of Mulliken charges =  -0.00000

 Dipole moment (field-independent basis, Debye):
    X=             -2.0465    Y=             -3.1050    Z=             -0.0000  Tot=              3.7188
 Quadrupole moment (field-independent basis, Debye-Ang):
   XX=             -9.3613   YY=             -6.1041   ZZ=            -14.7139
   XY=             -5.1094   XZ=              0.0000   YZ=             -0.0000

 Normal termination of Gaussian 16 at Sun Aug 28 07:15:20 2022.
