 Gaussian 16, Revision A.03,
 Gaussian 16:  ES64L-G16RevA.03 25-Dec-2016

 ------------------
 #p CCSD(T)/cc-pVTZ
 ------------------

 ------------
 H2O_H2O_3280
 ------------
 Symbolic Z-matrix:
 Charge =  0 Multiplicity = 1

                         Standard orientation:
 ---------------------------------------------------------------------
 Center     Atomic      Atomic             Coordinates (Angstroms)
 Number     Number       Type             X           Y           Z
 ---------------------------------------------------------------------
      1          8           0        0.079851    2.407468   -0.000000
      2          1           0        0.079373    1.424867   -0.000000
      3          1           0       -0.849487    2.726586   -0.000000
      4          8           0        0.079851   -2.248404    0.000000
      5          1           0        0.395246   -3.179012    0.000000
      6          1           0       -0.902745   -2.244948    0.000000
 ---------------------------------------------------------------------

 SCF Done:  E(RHF) =  -152.108661862     A.U. after   10 cycles
 E2 =    -0.5259542510D+00 EUMP2 =    -0.15263461611292D+03
 CCSD(T)
 CCSD(T)= -0.15266179054D+03

 The electronic state is 1-A'.
 Alpha  occ. eigenvalues --  -20.56532 -20.54860  -1.33824  -1.32169  -0.71240
 Alpha  occ. eigenvalues --   -0.69556  -0.57317  -0.55635  -0.50941  -0.49290
 Alpha virt. eigenvalues --    0.12188   0.15537   0.19358   0.22298   0.53596
 Alpha virt. eigenvalues --    0.55048   0.56399   0.58212   0.67327   0.69210
 Alpha virt. eigenvalues --    0.77965   0.78631   0.79563   0.80676   0.82803

 Mulliken charges:
               1
     1  O   -0.513279
     2  H    0.261474
     3  H    0.250346
     4  O   -0.511932
     5  H    0.259908
     6  H    0.253482
 Sum of Mulliken charges =   0.00000

 Dipole moment (field-independent basis, Debye):
    X=             -2.7250    Y=             -2.8407    Z=              0.0000  Tot=              3.9364
 Quadrupole moment (field-independent basis, Debye-Ang):
   XX=            -10.1007   YY=             -7.9186   ZZ=            -14.7155
   XY=             -3.2300   XZ=              0.0000   YZ=             -0.0000

 Normal termination of Gaussian 16 at Fri Aug 26 20:48:11 2022.
