 Gaussian 16, Revision A.03,
 Gaussian 16:  ES64L-G16RevA.03 25-Dec-2016

 ------------------
 #p CCSD(T)/cc-pVTZ
 ------------------

 -----------
 H2O_H2O_533
 -----------
 Symbolic Z-matrix:
 Charge =  0 Multiplicity = 1

                         Standard orientation:
 ---------------------------------------------------------------------
 Center     Atomic      Atomic             Coordinates (Angstroms)
 Number     Number       Type             X           Y           Z
 ---------------------------------------------------------------------
      1          8           0        0.070260    1.316579    0.000000
      2          1           0        0.068692    0.333979    0.000000
      3          1           0       -0.858723    1.636728   -0.000000
      4          8           0        0.070260   -1.146436    0.000000
      5          1           0        0.560203   -1.998177    0.000000
      6          1           0       -0.894338   -1.333671   -0.000000
 ---------------------------------------------------------------------

 SCF Done:  E(RHF) =  -152.099672568     A.U. after   11 cycles
 E2 =    -0.5319789727D+00 EUMP2 =    -0.15263165154099D+03
 CCSD(T)
 CCSD(T)= -0.15265808972D+03

 The electronic state is 1-A'.
 Alpha  occ. eigenvalues --  -20.60084 -20.49654  -1.38527  -1.27950  -0.75959
 Alpha  occ. eigenvalues --   -0.70090  -0.58787  -0.55125  -0.50280  -0.44906
 Alpha virt. eigenvalues --    0.11208   0.16938   0.20203   0.33081   0.48240
 Alpha virt. eigenvalues --    0.53391   0.59912   0.62967   0.71632   0.72158
 Alpha virt. eigenvalues --    0.73877   0.78406   0.79767   0.83850   0.84049

 Mulliken charges:
               1
     1  O   -0.594815
     2  H    0.304242
     3  H    0.220802
     4  O   -0.416234
     5  H    0.242919
     6  H    0.243085
 Sum of Mulliken charges =  -0.00000

 Dipole moment (field-independent basis, Debye):
    X=             -2.2462    Y=             -4.0268    Z=             -0.0000  Tot=              4.6109
 Quadrupole moment (field-independent basis, Debye-Ang):
   XX=             -9.6938   YY=             -9.3223   ZZ=            -14.6657
   XY=             -2.8529   XZ=              0.0000   YZ=             -0.0000

 Normal termination of Gaussian 16 at Fri Aug 26 18:53:17 2022.
