 Gaussian 16, Revision A.03,
 Gaussian 16:  ES64L-G16RevA.03 25-Dec-2016

 ------------------
 #p CCSD(T)/cc-pVTZ
 ------------------

 -----------
 H2O_H2O_227
 -----------
 Symbolic Z-matrix:
 Charge =  0 Multiplicity = 1

                         Standard orientation:
 ---------------------------------------------------------------------
 Center     Atomic      Atomic             Coordinates (Angstroms)
 Number     Number       Type             X           Y           Z
 ---------------------------------------------------------------------
      1          8           0        0.088245   -1.182867    0.000000
      2          1           0        0.087885   -0.200265    0.000000
      3          1           0       -0.841131   -1.501874    0.000000
      4          8           0        0.088245    1.038580    0.000000
      5          1           0        0.216143    2.012822    0.000000
      6          1           0       -0.874819    0.843609    0.000000
 ---------------------------------------------------------------------

 SCF Done:  E(RHF) =  -152.061252393     A.U. after   11 cycles
 E2 =    -0.5366017562D+00 EUMP2 =    -0.15259785414903D+03
 CCSD(T)
 CCSD(T)= -0.15262380451D+03

 The electronic state is 1-A'.
 Alpha  occ. eigenvalues --  -20.61043 -20.48583  -1.41757  -1.27460  -0.81130
 Alpha  occ. eigenvalues --   -0.70008  -0.57659  -0.56911  -0.49291  -0.44309
 Alpha virt. eigenvalues --    0.10856   0.16095   0.21417   0.32140   0.49273
 Alpha virt. eigenvalues --    0.51253   0.59660   0.66174   0.71445   0.72802
 Alpha virt. eigenvalues --    0.75908   0.77059   0.79619   0.83656   0.85607

 Mulliken charges:
               1
     1  O   -0.592689
     2  H    0.271738
     3  H    0.198428
     4  O   -0.338565
     5  H    0.227038
     6  H    0.234050
 Sum of Mulliken charges =  -0.00000

 Dipole moment (field-independent basis, Debye):
    X=             -2.7672    Y=              3.8980    Z=              0.0000  Tot=              4.7804
 Quadrupole moment (field-independent basis, Debye-Ang):
   XX=            -10.5384   YY=             -9.7379   ZZ=            -14.5673
   XY=              2.2006   XZ=              0.0000   YZ=              0.0000

 Normal termination of Gaussian 16 at Fri Aug 26 16:45:12 2022.
