 Gaussian 16, Revision A.03,
 Gaussian 16:  ES64L-G16RevA.03 25-Dec-2016

 ------------------
 #p CCSD(T)/cc-pVTZ
 ------------------

 -----------
 H2O_H2O_823
 -----------
 Symbolic Z-matrix:
 Charge =  0 Multiplicity = 1

                         Standard orientation:
 ---------------------------------------------------------------------
 Center     Atomic      Atomic             Coordinates (Angstroms)
 Number     Number       Type             X           Y           Z
 ---------------------------------------------------------------------
      1          8           0        0.016790   -1.422579    0.000000
      2          1           0        0.011960   -0.439989    0.000000
      3          1           0       -0.911125   -1.745810    0.000000
      4          8           0        0.016790    1.259256    0.000000
      5          1           0        0.996960    1.328340    0.000000
      6          1           0       -0.366439    2.164044    0.000000
 ---------------------------------------------------------------------

 SCF Done:  E(RHF) =  -152.109572519     A.U. after   10 cycles
 E2 =    -0.5296080361D+00 EUMP2 =    -0.15263918055540D+03
 CCSD(T)
 CCSD(T)= -0.15266592132D+03

 The electronic state is 1-A'.
 Alpha  occ. eigenvalues --  -20.59143 -20.51245  -1.36962  -1.29098  -0.74680
 Alpha  occ. eigenvalues --   -0.68042  -0.60025  -0.53866  -0.51850  -0.46187
 Alpha virt. eigenvalues --    0.11859   0.18264   0.19039   0.32997   0.48398
 Alpha virt. eigenvalues --    0.54173   0.56778   0.65316   0.68266   0.72276
 Alpha virt. eigenvalues --    0.74197   0.76474   0.80631   0.83211   0.84119

 Mulliken charges:
               1
     1  O   -0.585417
     2  H    0.294367
     3  H    0.247665
     4  O   -0.454068
     5  H    0.259684
     6  H    0.237769
 Sum of Mulliken charges =  -0.00000

 Dipole moment (field-independent basis, Debye):
    X=             -0.5634    Y=              3.5958    Z=              0.0000  Tot=              3.6397
 Quadrupole moment (field-independent basis, Debye-Ang):
   XX=             -9.5206   YY=             -9.0194   ZZ=            -14.7028
   XY=              3.7029   XZ=              0.0000   YZ=              0.0000

 Normal termination of Gaussian 16 at Fri Aug 26 20:44:05 2022.
