 Gaussian 16, Revision A.03,
 Gaussian 16:  ES64L-G16RevA.03 25-Dec-2016

 ------------------
 #p CCSD(T)/cc-pVTZ
 ------------------

 -----------
 H2O_H2O_836
 -----------
 Symbolic Z-matrix:
 Charge =  0 Multiplicity = 1

                         Standard orientation:
 ---------------------------------------------------------------------
 Center     Atomic      Atomic             Coordinates (Angstroms)
 Number     Number       Type             X           Y           Z
 ---------------------------------------------------------------------
      1          8           0        0.059717    1.440155   -0.000000
      2          1           0        0.057625    0.457556   -0.000000
      3          1           0       -0.869096    1.760799    0.000000
      4          8           0        0.059717   -1.262813   -0.000000
      5          1           0        0.706018   -2.002949   -0.000000
      6          1           0       -0.850017   -1.634147    0.000000
 ---------------------------------------------------------------------

 SCF Done:  E(RHF) =  -152.110796517     A.U. after   10 cycles
 E2 =    -0.5295758083D+00 EUMP2 =    -0.15264037232500D+03
 CCSD(T)
 CCSD(T)= -0.15266711065D+03

 The electronic state is 1-A'.
 Alpha  occ. eigenvalues --  -20.59231 -20.51011  -1.36932  -1.28863  -0.74106
 Alpha  occ. eigenvalues --   -0.68641  -0.59614  -0.53898  -0.51683  -0.45929
 Alpha virt. eigenvalues --    0.11595   0.17553   0.19464   0.32588   0.48034
 Alpha virt. eigenvalues --    0.54341   0.59216   0.60334   0.70098   0.72469
 Alpha virt. eigenvalues --    0.72471   0.77489   0.81761   0.82973   0.84507

 Mulliken charges:
               1
     1  O   -0.576549
     2  H    0.305026
     3  H    0.233097
     4  O   -0.473309
     5  H    0.258799
     6  H    0.252937
 Sum of Mulliken charges =  -0.00000

 Dipole moment (field-independent basis, Debye):
    X=             -1.9507    Y=             -3.8654    Z=              0.0000  Tot=              4.3297
 Quadrupole moment (field-independent basis, Debye-Ang):
   XX=             -9.3716   YY=             -8.9553   ZZ=            -14.7113
   XY=             -3.1622   XZ=             -0.0000   YZ=              0.0000

 Normal termination of Gaussian 16 at Fri Aug 26 20:48:40 2022.
