 Gaussian 16, Revision A.03,
 Gaussian 16:  ES64L-G16RevA.03 25-Dec-2016

 ------------------
 #p CCSD(T)/cc-pVTZ
 ------------------

 ------------
 H2O_H2O_2440
 ------------
 Symbolic Z-matrix:
 Charge =  0 Multiplicity = 1

                         Standard orientation:
 ---------------------------------------------------------------------
 Center     Atomic      Atomic             Coordinates (Angstroms)
 Number     Number       Type             X           Y           Z
 ---------------------------------------------------------------------
      1          8           0        0.044881    2.080005    0.000000
      2          1           0        0.042829    1.097406    0.000000
      3          1           0       -0.883945    2.400611    0.000000
      4          8           0        0.044881   -1.899628   -0.000000
      5          1           0        0.860743   -2.447236   -0.000000
      6          1           0       -0.737722   -2.493799   -0.000000
 ---------------------------------------------------------------------

 SCF Done:  E(RHF) =  -152.111107555     A.U. after   10 cycles
 E2 =    -0.5261191010D+00 EUMP2 =    -0.15263722665565D+03
 CCSD(T)
 CCSD(T)= -0.15266432815D+03

 The electronic state is 1-A'.
 Alpha  occ. eigenvalues --  -20.56989 -20.54069  -1.34248  -1.31405  -0.71641
 Alpha  occ. eigenvalues --   -0.68803  -0.57855  -0.54890  -0.51385  -0.48550
 Alpha virt. eigenvalues --    0.12335   0.16516   0.19303   0.24372   0.52566
 Alpha virt. eigenvalues --    0.55523   0.56356   0.58986   0.69044   0.70991
 Alpha virt. eigenvalues --    0.77280   0.78552   0.80296   0.81286   0.83676

 Mulliken charges:
               1
     1  O   -0.524150
     2  H    0.266931
     3  H    0.250546
     4  O   -0.510909
     5  H    0.260682
     6  H    0.256900
 Sum of Mulliken charges =  -0.00000

 Dipole moment (field-independent basis, Debye):
    X=             -1.5243    Y=             -3.3166    Z=             -0.0000  Tot=              3.6501
 Quadrupole moment (field-independent basis, Debye-Ang):
   XX=             -9.1582   YY=             -7.5546   ZZ=            -14.7238
   XY=             -4.4183   XZ=             -0.0000   YZ=              0.0000

 Normal termination of Gaussian 16 at Sun Aug 28 07:18:21 2022.
