 Gaussian 16, Revision A.03,
 Gaussian 16:  ES64L-G16RevA.03 25-Dec-2016

 ------------------
 #p CCSD(T)/cc-pVTZ
 ------------------

 ------------
 H2O_H2O_4903
 ------------
 Symbolic Z-matrix:
 Charge =  0 Multiplicity = 1

                         Standard orientation:
 ---------------------------------------------------------------------
 Center     Atomic      Atomic             Coordinates (Angstroms)
 Number     Number       Type             X           Y           Z
 ---------------------------------------------------------------------
      1          8           0        0.085596   -3.050507    0.000000
      2          1           0        0.085386   -2.067905    0.000000
      3          1           0       -0.843829   -3.369371    0.000000
      4          8           0        0.085596    2.900898    0.000000
      5          1           0        0.277087    3.864660    0.000000
      6          1           0       -0.888178    2.769482    0.000000
 ---------------------------------------------------------------------

 SCF Done:  E(RHF) =  -152.107772408     A.U. after   10 cycles
 E2 =    -0.5258509695D+00 EUMP2 =    -0.15263362337727D+03
 CCSD(T)
 CCSD(T)= -0.15266083586D+03

 The electronic state is 1-A'.
 Alpha  occ. eigenvalues --  -20.56139 -20.55262  -1.33441  -1.32564  -0.70852
 Alpha  occ. eigenvalues --   -0.69963  -0.56906  -0.56020  -0.50554  -0.49679
 Alpha virt. eigenvalues --    0.13272   0.14606   0.19316   0.21070   0.53516
 Alpha virt. eigenvalues --    0.54723   0.56638   0.57614   0.67087   0.68344
 Alpha virt. eigenvalues --    0.78333   0.79191   0.79723   0.80842   0.81756

 Mulliken charges:
               1
     1  O   -0.510428
     2  H    0.257827
     3  H    0.252577
     4  O   -0.511265
     5  H    0.257784
     6  H    0.253506
 Sum of Mulliken charges =  -0.00000

 Dipole moment (field-independent basis, Debye):
    X=             -2.9382    Y=              2.6178    Z=              0.0000  Tot=              3.9352
 Quadrupole moment (field-independent basis, Debye-Ang):
   XX=            -10.3959   YY=             -8.0355   ZZ=            -14.7125
   XY=              2.9845   XZ=              0.0000   YZ=              0.0000

 Normal termination of Gaussian 16 at Sun Aug 28 06:47:11 2022.
