 Gaussian 16, Revision A.03,
 Gaussian 16:  ES64L-G16RevA.03 25-Dec-2016

 ------------------
 #p CCSD(T)/cc-pVTZ
 ------------------

 ------------
 H2O_H2O_1246
 ------------
 Symbolic Z-matrix:
 Charge =  0 Multiplicity = 1

                         Standard orientation:
 ---------------------------------------------------------------------
 Center     Atomic      Atomic             Coordinates (Angstroms)
 Number     Number       Type             X           Y           Z
 ---------------------------------------------------------------------
      1          8           0       -0.023322    1.595901    0.000000
      2          1           0       -0.019405    0.613307    0.000000
      3          1           0        0.904893    1.918271    0.000000
      4          8           0       -0.023322   -1.425576    0.000000
      5          1           0       -0.986272   -1.621113    0.000000
      6          1           0        0.473939   -2.273064    0.000000
 ---------------------------------------------------------------------

 SCF Done:  E(RHF) =  -152.113764757     A.U. after   10 cycles
 E2 =    -0.5277226866D+00 EUMP2 =    -0.15264148744376D+03
 CCSD(T)
 CCSD(T)= -0.15266843151D+03

 The electronic state is 1-A'.
 Alpha  occ. eigenvalues --  -20.58299 -20.52543  -1.35688  -1.30077  -0.73112
 Alpha  occ. eigenvalues --   -0.67950  -0.59497  -0.53281  -0.52781  -0.47221
 Alpha virt. eigenvalues --    0.12070   0.18017   0.18871   0.30550   0.49685
 Alpha virt. eigenvalues --    0.54541   0.55800   0.61673   0.68627   0.73293
 Alpha virt. eigenvalues --    0.73324   0.76978   0.81930   0.82506   0.84463

 Mulliken charges:
               1
     1  O   -0.556010
     2  H    0.283645
     3  H    0.249705
     4  O   -0.492941
     5  H    0.264398
     6  H    0.251203
 Sum of Mulliken charges =  -0.00000

 Dipole moment (field-independent basis, Debye):
    X=              0.7843    Y=             -3.4516    Z=              0.0000  Tot=              3.5396
 Quadrupole moment (field-independent basis, Debye-Ang):
   XX=             -9.3575   YY=             -8.5888   ZZ=            -14.7299
   XY=              3.9830   XZ=              0.0000   YZ=              0.0000

 CCSD(T)=-152.6684315\RMSD=6.463e-09\PG=CS [SG(H4O2)]\\@
 Normal termination of Gaussian 16 at Fri Aug 26 23:21:51 2022.
