 Gaussian 16, Revision A.03,
 Gaussian 16:  ES64L-G16RevA.03 25-Dec-2016

 ------------------
 #p CCSD(T)/cc-pVTZ
 ------------------

 -----------
 H2O_H2O_972
 -----------
 Symbolic Z-matrix:
 Charge =  0 Multiplicity = 1

                         Standard orientation:
 ---------------------------------------------------------------------
 Center     Atomic      Atomic             Coordinates (Angstroms)
 Number     Number       Type             X           Y           Z
 ---------------------------------------------------------------------
      1          8           0       -0.020005    1.484425    0.000000
      2          1           0       -0.015577    0.501834    0.000000
      3          1           0        0.908043    1.807276    0.000000
      4          8           0       -0.020005   -1.317390    0.000000
      5          1           0       -0.993612   -1.450033    0.000000
      6          1           0        0.421220   -2.195358    0.000000
 ---------------------------------------------------------------------

 SCF Done:  E(RHF) =  -152.112165757     A.U. after   10 cycles
 E2 =    -0.5287817504D+00 EUMP2 =    -0.15264094750742D+03
 CCSD(T)
 CCSD(T)= -0.15266778159D+03

 The electronic state is 1-A'.
 Alpha  occ. eigenvalues --  -20.58816 -20.51759  -1.36415  -1.29469  -0.73946
 Alpha  occ. eigenvalues --   -0.67948  -0.59907  -0.53421  -0.52421  -0.46584
 Alpha virt. eigenvalues --    0.11945   0.18293   0.18857   0.32204   0.48786
 Alpha virt. eigenvalues --    0.54551   0.56240   0.63711   0.68346   0.72551
 Alpha virt. eigenvalues --    0.73719   0.76763   0.81460   0.82766   0.84273

 Mulliken charges:
               1
     1  O   -0.573687
     2  H    0.291861
     3  H    0.248271
     4  O   -0.471250
     5  H    0.262123
     6  H    0.242682
 Sum of Mulliken charges =  -0.00000

 Dipole moment (field-independent basis, Debye):
    X=              0.6705    Y=             -3.5529    Z=              0.0000  Tot=              3.6157
 Quadrupole moment (field-independent basis, Debye-Ang):
   XX=             -9.4340   YY=             -8.8554   ZZ=            -14.7167
   XY=              3.7830   XZ=              0.0000   YZ=              0.0000

 Normal termination of Gaussian 16 at Fri Aug 26 21:39:49 2022.
