 Gaussian 16, Revision A.03,
 Gaussian 16:  ES64L-G16RevA.03 25-Dec-2016

 ------------------
 #p CCSD(T)/cc-pVTZ
 ------------------

 -----------
 H2O_H2O_770
 -----------
 Symbolic Z-matrix:
 Charge =  0 Multiplicity = 1

                         Standard orientation:
 ---------------------------------------------------------------------
 Center     Atomic      Atomic             Coordinates (Angstroms)
 Number     Number       Type             X           Y           Z
 ---------------------------------------------------------------------
      1          8           0        0.026813    1.407959    0.000000
      2          1           0        0.022555    0.425367    0.000000
      3          1           0       -0.901291    1.730650    0.000000
      4          8           0        0.026813   -1.234831   -0.000000
      5          1           0        0.974823   -1.493257   -0.000000
      6          1           0       -0.525093   -2.047791   -0.000000
 ---------------------------------------------------------------------

 SCF Done:  E(RHF) =  -152.109639805     A.U. after   10 cycles
 E2 =    -0.5298137277D+00 EUMP2 =    -0.15263945353250D+03
 CCSD(T)
 CCSD(T)= -0.15266613194D+03

 The electronic state is 1-A'.
 Alpha  occ. eigenvalues --  -20.59348 -20.50623  -1.37197  -1.28584  -0.74527
 Alpha  occ. eigenvalues --   -0.68612  -0.59763  -0.54105  -0.51232  -0.45652
 Alpha virt. eigenvalues --    0.11731   0.18314   0.19007   0.33171   0.48039
 Alpha virt. eigenvalues --    0.54289   0.57483   0.65151   0.68255   0.72379
 Alpha virt. eigenvalues --    0.73077   0.77409   0.81097   0.83375   0.84197

 Mulliken charges:
               1
     1  O   -0.591613
     2  H    0.302050
     3  H    0.242110
     4  O   -0.461505
     5  H    0.262815
     6  H    0.246144
 Sum of Mulliken charges =  -0.00000

 Dipole moment (field-independent basis, Debye):
    X=             -0.8817    Y=             -3.8529    Z=             -0.0000  Tot=              3.9525
 Quadrupole moment (field-independent basis, Debye-Ang):
   XX=             -9.2667   YY=             -9.0528   ZZ=            -14.7045
   XY=             -3.4484   XZ=             -0.0000   YZ=              0.0000

 Normal termination of Gaussian 16 at Fri Aug 26 20:24:12 2022.
