 Gaussian 16, Revision A.03,
 Gaussian 16:  ES64L-G16RevA.03 25-Dec-2016

 ------------------
 #p CCSD(T)/cc-pVTZ
 ------------------

 ------------
 H2O_H2O_3185
 ------------
 Symbolic Z-matrix:
 Charge =  0 Multiplicity = 1

                         Standard orientation:
 ---------------------------------------------------------------------
 Center     Atomic      Atomic             Coordinates (Angstroms)
 Number     Number       Type             X           Y           Z
 ---------------------------------------------------------------------
      1          8           0        0.063235    2.376515   -0.000000
      2          1           0        0.062133    1.393914   -0.000000
      3          1           0       -0.865900    2.696223   -0.000000
      4          8           0        0.063235   -2.201005    0.000000
      5          1           0        0.660531   -2.981226    0.000000
      6          1           0       -0.868524   -2.512984    0.000000
 ---------------------------------------------------------------------

 SCF Done:  E(RHF) =  -152.109323463     A.U. after   10 cycles
 E2 =    -0.5259292782D+00 EUMP2 =    -0.15263525274122D+03
 CCSD(T)
 CCSD(T)= -0.15266240998D+03

 The electronic state is 1-A'.
 Alpha  occ. eigenvalues --  -20.56571 -20.54598  -1.33855  -1.31914  -0.71261
 Alpha  occ. eigenvalues --   -0.69303  -0.57376  -0.55392  -0.50979  -0.49043
 Alpha virt. eigenvalues --    0.12478   0.15727   0.19473   0.22278   0.53387
 Alpha virt. eigenvalues --    0.55234   0.56357   0.58362   0.67643   0.69340
 Alpha virt. eigenvalues --    0.77925   0.78871   0.79753   0.79794   0.83081

 Mulliken charges:
               1
     1  O   -0.516437
     2  H    0.263371
     3  H    0.250929
     4  O   -0.513685
     5  H    0.260114
     6  H    0.255709
 Sum of Mulliken charges =  -0.00000

 Dipole moment (field-independent basis, Debye):
    X=             -2.1576    Y=             -3.1451    Z=             -0.0000  Tot=              3.8140
 Quadrupole moment (field-independent basis, Debye-Ang):
   XX=             -9.4572   YY=             -7.2562   ZZ=            -14.7180
   XY=             -4.1248   XZ=              0.0000   YZ=             -0.0000

 Normal termination of Gaussian 16 at Fri Aug 26 20:16:41 2022.
