 Gaussian 16, Revision A.03,
 Gaussian 16:  ES64L-G16RevA.03 25-Dec-2016

 ------------------
 #p CCSD(T)/cc-pVTZ
 ------------------

 ------------
 H2O_H2O_4784
 ------------
 Symbolic Z-matrix:
 Charge =  0 Multiplicity = 1

                         Standard orientation:
 ---------------------------------------------------------------------
 Center     Atomic      Atomic             Coordinates (Angstroms)
 Number     Number       Type             X           Y           Z
 ---------------------------------------------------------------------
      1          8           0        0.066741    3.013426   -0.000000
      2          1           0        0.065981    2.030825   -0.000000
      3          1           0       -0.862506    3.332811   -0.000000
      4          8           0        0.066741   -2.840292    0.000000
      5          1           0        0.612013   -3.657717    0.000000
      6          1           0       -0.883341   -3.090994    0.000000
 ---------------------------------------------------------------------

 SCF Done:  E(RHF) =  -152.108120254     A.U. after   10 cycles
 E2 =    -0.5258240768D+00 EUMP2 =    -0.15263394433036D+03
 CCSD(T)
 CCSD(T)= -0.15266114891D+03

 The electronic state is 1-A'.
 Alpha  occ. eigenvalues --  -20.56145 -20.55064  -1.33447  -1.32369  -0.70854
 Alpha  occ. eigenvalues --   -0.69769  -0.56927  -0.55833  -0.50563  -0.49488
 Alpha virt. eigenvalues --    0.13423   0.14764   0.19642   0.20941   0.53637
 Alpha virt. eigenvalues --    0.54808   0.56676   0.57737   0.67003   0.68543
 Alpha virt. eigenvalues --    0.78322   0.79374   0.79660   0.80555   0.82270

 Mulliken charges:
               1
     1  O   -0.512311
     2  H    0.259416
     3  H    0.252843
     4  O   -0.513139
     5  H    0.258087
     6  H    0.255104
 Sum of Mulliken charges =  -0.00000

 Dipole moment (field-independent basis, Debye):
    X=             -2.2903    Y=             -3.0325    Z=              0.0000  Tot=              3.8001
 Quadrupole moment (field-independent basis, Debye-Ang):
   XX=             -9.5597   YY=             -6.4860   ZZ=            -14.7138
   XY=             -4.5369   XZ=              0.0000   YZ=             -0.0000

 Normal termination of Gaussian 16 at Sun Aug 28 05:52:27 2022.
