 Gaussian 16, Revision A.03,
 Gaussian 16:  ES64L-G16RevA.03 25-Dec-2016

 ------------------
 #p CCSD(T)/cc-pVTZ
 ------------------

 -----------
 H2O_H2O_503
 -----------
 Symbolic Z-matrix:
 Charge =  0 Multiplicity = 1

                         Standard orientation:
 ---------------------------------------------------------------------
 Center     Atomic      Atomic             Coordinates (Angstroms)
 Number     Number       Type             X           Y           Z
 ---------------------------------------------------------------------
      1          8           0        0.085619   -1.295420    0.000000
      2          1           0        0.085108   -0.312819    0.000000
      3          1           0       -0.843708   -1.614570    0.000000
      4          8           0        0.085619    1.145864    0.000000
      5          1           0        0.276814    2.109685    0.000000
      6          1           0       -0.888115    1.014150    0.000000
 ---------------------------------------------------------------------

 SCF Done:  E(RHF) =  -152.092817980     A.U. after   11 cycles
 E2 =    -0.5330239630D+00 EUMP2 =    -0.15262584194267D+03
 CCSD(T)
 CCSD(T)= -0.15265230727D+03

 The electronic state is 1-A'.
 Alpha  occ. eigenvalues --  -20.60065 -20.50600  -1.38837  -1.28776  -0.77486
 Alpha  occ. eigenvalues --   -0.68782  -0.59185  -0.55169  -0.51305  -0.45733
 Alpha virt. eigenvalues --    0.11169   0.16473   0.20768   0.32568   0.48629
 Alpha virt. eigenvalues --    0.52390   0.59097   0.64505   0.71414   0.71676
 Alpha virt. eigenvalues --    0.74068   0.78017   0.78681   0.83260   0.84097

 Mulliken charges:
               1
     1  O   -0.575356
     2  H    0.290202
     3  H    0.215337
     4  O   -0.393106
     5  H    0.230790
     6  H    0.232134
 Sum of Mulliken charges =  -0.00000

 Dipole moment (field-independent basis, Debye):
    X=             -2.7421    Y=              3.6050    Z=              0.0000  Tot=              4.5293
 Quadrupole moment (field-independent basis, Debye-Ang):
   XX=            -10.4284   YY=             -9.3704   ZZ=            -14.6408
   XY=              2.4098   XZ=              0.0000   YZ=              0.0000

 Normal termination of Gaussian 16 at Fri Aug 26 18:41:52 2022.
