 Gaussian 16, Revision A.03,
 Gaussian 16:  ES64L-G16RevA.03 25-Dec-2016

 ------------------
 #p CCSD(T)/cc-pVTZ
 ------------------

 ----------
 H2O_H2O_24
 ----------
 Symbolic Z-matrix:
 Charge =  0 Multiplicity = 1

                         Standard orientation:
 ---------------------------------------------------------------------
 Center     Atomic      Atomic             Coordinates (Angstroms)
 Number     Number       Type             X           Y           Z
 ---------------------------------------------------------------------
      1          8           0       -0.013812   -1.101225   -0.000000
      2          1           0       -0.007216   -0.118645   -0.000000
      3          1           0        0.913520   -1.426124    0.000000
      4          8           0       -0.013812    0.942064   -0.000000
      5          1           0       -0.996393    0.948660   -0.000000
      6          1           0        0.311087    1.869397    0.000000
 ---------------------------------------------------------------------

 SCF Done:  E(RHF) =  -152.020191593     A.U. after   11 cycles
 E2 =    -0.5373392994D+00 EUMP2 =    -0.15255753089219D+03
 CCSD(T)
 CCSD(T)= -0.15258288929D+03

 The electronic state is 1-A'.
 Alpha  occ. eigenvalues --  -20.61920 -20.44275  -1.45012  -1.24596  -0.83658
 Alpha  occ. eigenvalues --   -0.73426  -0.58893  -0.55626  -0.44212  -0.41200
 Alpha virt. eigenvalues --    0.10628   0.16895   0.20964   0.33300   0.47917
 Alpha virt. eigenvalues --    0.51094   0.60224   0.69611   0.70272   0.71981
 Alpha virt. eigenvalues --    0.76223   0.76385   0.80712   0.85906   0.87976

 Mulliken charges:
               1
     1  O   -0.689244
     2  H    0.256767
     3  H    0.222952
     4  O   -0.287419
     5  H    0.269940
     6  H    0.227004
 Sum of Mulliken charges =   0.00000

 Dipole moment (field-independent basis, Debye):
    X=              0.3995    Y=              4.7011    Z=              0.0000  Tot=              4.7181
 Quadrupole moment (field-independent basis, Debye-Ang):
   XX=             -9.4749   YY=            -10.1738   ZZ=            -14.5163
   XY=             -2.8445   XZ=              0.0000   YZ=             -0.0000

 Normal termination of Gaussian 16 at Fri Aug 26 15:20:54 2022.
