 Gaussian 16, Revision A.03,
 Gaussian 16:  ES64L-G16RevA.03 25-Dec-2016

 ------------------
 #p CCSD(T)/cc-pVTZ
 ------------------

 ----------
 H2O_H2O_36
 ----------
 Symbolic Z-matrix:
 Charge =  0 Multiplicity = 1

                         Standard orientation:
 ---------------------------------------------------------------------
 Center     Atomic      Atomic             Coordinates (Angstroms)
 Number     Number       Type             X           Y           Z
 ---------------------------------------------------------------------
      1          8           0        0.059775    1.121015    0.000000
      2          1           0        0.057037    0.138417    0.000000
      3          1           0       -0.868826    1.442270    0.000000
      4          8           0        0.059775   -0.943751   -0.000000
      5          1           0        0.705588   -1.684312   -0.000000
      6          1           0       -0.850203   -1.314487   -0.000000
 ---------------------------------------------------------------------

 SCF Done:  E(RHF) =  -152.033343826     A.U. after   11 cycles
 E2 =    -0.5364815357D+00 EUMP2 =    -0.15256982536129D+03
 CCSD(T)
 CCSD(T)= -0.15259531672D+03

 The electronic state is 1-A'.
 Alpha  occ. eigenvalues --  -20.62201 -20.43977  -1.44338  -1.24404  -0.80788
 Alpha  occ. eigenvalues --   -0.77190  -0.58919  -0.54261  -0.44181  -0.40843
 Alpha virt. eigenvalues --    0.10244   0.16077   0.21442   0.32404   0.47929
 Alpha virt. eigenvalues --    0.51675   0.61999   0.63948   0.70369   0.71197
 Alpha virt. eigenvalues --    0.78667   0.79345   0.81793   0.83053   0.88955

 Mulliken charges:
               1
     1  O   -0.668675
     2  H    0.280216
     3  H    0.194697
     4  O   -0.290866
     5  H    0.240962
     6  H    0.243665
 Sum of Mulliken charges =  -0.00000

 Dipole moment (field-independent basis, Debye):
    X=             -1.7964    Y=             -5.0676    Z=             -0.0000  Tot=              5.3765
 Quadrupole moment (field-independent basis, Debye-Ang):
   XX=             -9.3177   YY=            -10.2593   ZZ=            -14.5398
   XY=             -2.6260   XZ=             -0.0000   YZ=             -0.0000

 Normal termination of Gaussian 16 at Fri Aug 26 15:25:55 2022.
