 Gaussian 16, Revision A.03,
 Gaussian 16:  ES64L-G16RevA.03 25-Dec-2016

 ------------------
 #p CCSD(T)/cc-pVTZ
 ------------------

 ------------
 H2O_H2O_3980
 ------------
 Symbolic Z-matrix:
 Charge =  0 Multiplicity = 1

                         Standard orientation:
 ---------------------------------------------------------------------
 Center     Atomic      Atomic             Coordinates (Angstroms)
 Number     Number       Type             X           Y           Z
 ---------------------------------------------------------------------
      1          8           0        0.079847    2.686686   -0.000000
      2          1           0        0.079420    1.704085   -0.000000
      3          1           0       -0.849508    3.005756    0.000000
      4          8           0        0.079847   -2.527614   -0.000000
      5          1           0        0.395290   -3.458206   -0.000000
      6          1           0       -0.902749   -2.524208    0.000000
 ---------------------------------------------------------------------

 SCF Done:  E(RHF) =  -152.108191759     A.U. after   10 cycles
 E2 =    -0.5258692873D+00 EUMP2 =    -0.15263406104580D+03
 CCSD(T)
 CCSD(T)= -0.15266125829D+03

 The electronic state is 1-A'.
 Alpha  occ. eigenvalues --  -20.56310 -20.55037  -1.33610  -1.32343  -0.71022
 Alpha  occ. eigenvalues --   -0.69737  -0.57090  -0.55805  -0.50724  -0.49461
 Alpha virt. eigenvalues --    0.12709   0.15085   0.19292   0.21579   0.53230
 Alpha virt. eigenvalues --    0.55007   0.56516   0.57878   0.66714   0.68936
 Alpha virt. eigenvalues --    0.78172   0.79022   0.79399   0.80798   0.82630

 Mulliken charges:
               1
     1  O   -0.511946
     2  H    0.259920
     3  H    0.251664
     4  O   -0.512841
     5  H    0.259282
     6  H    0.253922
 Sum of Mulliken charges =  -0.00000

 Dipole moment (field-independent basis, Debye):
    X=             -2.7335    Y=             -2.8072    Z=              0.0000  Tot=              3.9182
 Quadrupole moment (field-independent basis, Debye-Ang):
   XX=            -10.0958   YY=             -7.6849   ZZ=            -14.7139
   XY=             -3.3591   XZ=              0.0000   YZ=              0.0000

 Normal termination of Gaussian 16 at Sat Aug 27 00:48:47 2022.
