 Gaussian 16, Revision A.03,
 Gaussian 16:  ES64L-G16RevA.03 25-Dec-2016

 ------------------
 #p CCSD(T)/cc-pVTZ
 ------------------

 ------------
 H2O_H2O_3546
 ------------
 Symbolic Z-matrix:
 Charge =  0 Multiplicity = 1

                         Standard orientation:
 ---------------------------------------------------------------------
 Center     Atomic      Atomic             Coordinates (Angstroms)
 Number     Number       Type             X           Y           Z
 ---------------------------------------------------------------------
      1          8           0       -0.023194    2.513349    0.000000
      2          1           0       -0.020756    1.530751    0.000000
      3          1           0        0.905506    2.834321    0.000000
      4          8           0       -0.023194   -2.342954    0.000000
      5          1           0       -0.986437   -2.537040    0.000000
      6          1           0        0.472790   -3.191191    0.000000
 ---------------------------------------------------------------------

 SCF Done:  E(RHF) =  -152.109185536     A.U. after   10 cycles
 E2 =    -0.5258400041D+00 EUMP2 =    -0.15263502554033D+03
 CCSD(T)
 CCSD(T)= -0.15266219541D+03

 The electronic state is 1-A'.
 Alpha  occ. eigenvalues --  -20.56415 -20.54756  -1.33709  -1.32070  -0.71113
 Alpha  occ. eigenvalues --   -0.69474  -0.57228  -0.55554  -0.50833  -0.49201
 Alpha virt. eigenvalues --    0.12670   0.15497   0.19395   0.21979   0.53329
 Alpha virt. eigenvalues --    0.55260   0.56544   0.57964   0.66945   0.69270
 Alpha virt. eigenvalues --    0.78068   0.78777   0.79640   0.80286   0.82962

 Mulliken charges:
               1
     1  O   -0.517214
     2  H    0.261913
     3  H    0.254207
     4  O   -0.516136
     5  H    0.258587
     6  H    0.258642
 Sum of Mulliken charges =  -0.00000

 Dipole moment (field-independent basis, Debye):
    X=              0.7946    Y=             -3.0279    Z=              0.0000  Tot=              3.1304
 Quadrupole moment (field-independent basis, Debye-Ang):
   XX=             -9.3613   YY=             -7.2722   ZZ=            -14.7175
   XY=              6.2068   XZ=              0.0000   YZ=              0.0000

 Normal termination of Gaussian 16 at Fri Aug 26 22:18:54 2022.
