 Gaussian 16, Revision A.03,
 Gaussian 16:  ES64L-G16RevA.03 25-Dec-2016

 ------------------
 #p CCSD(T)/cc-pVTZ
 ------------------

 ------------
 H2O_H2O_1758
 ------------
 Symbolic Z-matrix:
 Charge =  0 Multiplicity = 1

                         Standard orientation:
 ---------------------------------------------------------------------
 Center     Atomic      Atomic             Coordinates (Angstroms)
 Number     Number       Type             X           Y           Z
 ---------------------------------------------------------------------
      1          8           0        0.070222    1.805235   -0.000000
      2          1           0        0.069099    0.822634   -0.000000
      3          1           0       -0.858907    2.124963   -0.000000
      4          8           0        0.070222   -1.635029    0.000000
      5          1           0        0.560550   -2.486547    0.000000
      6          1           0       -0.894292   -1.822700    0.000000
 ---------------------------------------------------------------------

 SCF Done:  E(RHF) =  -152.112012657     A.U. after   10 cycles
 E2 =    -0.5268082012D+00 EUMP2 =    -0.15263882085781D+03
 CCSD(T)
 CCSD(T)= -0.15266587390D+03

 The electronic state is 1-A'.
 Alpha  occ. eigenvalues --  -20.57608 -20.53674  -1.34880  -1.31046  -0.72299
 Alpha  occ. eigenvalues --   -0.68485  -0.58561  -0.54456  -0.52003  -0.48184
 Alpha virt. eigenvalues --    0.11939   0.16865   0.19395   0.27155   0.50550
 Alpha virt. eigenvalues --    0.55358   0.56419   0.58577   0.69282   0.73104
 Alpha virt. eigenvalues --    0.75335   0.77537   0.80860   0.83151   0.84016

 Mulliken charges:
               1
     1  O   -0.528231
     2  H    0.271303
     3  H    0.244310
     4  O   -0.502761
     5  H    0.261026
     6  H    0.254353
 Sum of Mulliken charges =  -0.00000

 Dipole moment (field-independent basis, Debye):
    X=             -2.3631    Y=             -3.2534    Z=              0.0000  Tot=              4.0211
 Quadrupole moment (field-independent basis, Debye-Ang):
   XX=             -9.7022   YY=             -8.2243   ZZ=            -14.7277
   XY=             -3.3225   XZ=              0.0000   YZ=             -0.0000

 Normal termination of Gaussian 16 at Sun Aug 28 01:21:30 2022.
