 Gaussian 16, Revision A.03,
 Gaussian 16:  ES64L-G16RevA.03 25-Dec-2016

 ------------------
 #p CCSD(T)/cc-pVTZ
 ------------------

 -----------
 H2O_H2O_206
 -----------
 Symbolic Z-matrix:
 Charge =  0 Multiplicity = 1

                         Standard orientation:
 ---------------------------------------------------------------------
 Center     Atomic      Atomic             Coordinates (Angstroms)
 Number     Number       Type             X           Y           Z
 ---------------------------------------------------------------------
      1          8           0        0.076811   -1.183122    0.000000
      2          1           0        0.075564   -0.200522    0.000000
      3          1           0       -0.852277   -1.502968    0.000000
      4          8           0        0.076811    1.020014    0.000000
      5          1           0        0.451685    1.928295    0.000000
      6          1           0       -0.903953    1.080061    0.000000
 ---------------------------------------------------------------------

 SCF Done:  E(RHF) =  -152.065475803     A.U. after   11 cycles
 E2 =    -0.5357662178D+00 EUMP2 =    -0.15260124202042D+03
 CCSD(T)
 CCSD(T)= -0.15262710916D+03

 The electronic state is 1-A'.
 Alpha  occ. eigenvalues --  -20.61297 -20.47192  -1.41763  -1.26401  -0.79947
 Alpha  occ. eigenvalues --   -0.72364  -0.57207  -0.56655  -0.47741  -0.43163
 Alpha virt. eigenvalues --    0.10694   0.16242   0.21130   0.32483   0.49101
 Alpha virt. eigenvalues --    0.52033   0.59968   0.64729   0.71545   0.72379
 Alpha virt. eigenvalues --    0.77222   0.77942   0.80594   0.85060   0.85063

 Mulliken charges:
               1
     1  O   -0.619134
     2  H    0.285323
     3  H    0.201568
     4  O   -0.338297
     5  H    0.232197
     6  H    0.238343
 Sum of Mulliken charges =  -0.00000

 Dipole moment (field-independent basis, Debye):
    X=             -2.3809    Y=              4.3681    Z=              0.0000  Tot=              4.9749
 Quadrupole moment (field-independent basis, Debye-Ang):
   XX=             -9.9354   YY=             -9.7899   ZZ=            -14.5810
   XY=              2.5637   XZ=              0.0000   YZ=              0.0000

 Normal termination of Gaussian 16 at Fri Aug 26 16:35:55 2022.
