 Gaussian 16, Revision A.03,
 Gaussian 16:  ES64L-G16RevA.03 25-Dec-2016

 ------------------
 #p CCSD(T)/cc-pVTZ
 ------------------

 ------------
 H2O_H2O_1394
 ------------
 Symbolic Z-matrix:
 Charge =  0 Multiplicity = 1

                         Standard orientation:
 ---------------------------------------------------------------------
 Center     Atomic      Atomic             Coordinates (Angstroms)
 Number     Number       Type             X           Y           Z
 ---------------------------------------------------------------------
      1          8           0        0.030282    1.658565    0.000000
      2          1           0        0.026890    0.675969    0.000000
      3          1           0       -0.898106    1.980437   -0.000000
      4          8           0        0.030282   -1.483021    0.000000
      5          1           0        0.959641   -1.802078    0.000000
      6          1           0       -0.572930   -2.258677   -0.000000
 ---------------------------------------------------------------------

 SCF Done:  E(RHF) =  -152.114050632     A.U. after   10 cycles
 E2 =    -0.5273255453D+00 EUMP2 =    -0.15264137617743D+03
 CCSD(T)
 CCSD(T)= -0.15266835287D+03

 The electronic state is 1-A'.
 Alpha  occ. eigenvalues --  -20.58085 -20.52768  -1.35405  -1.30247  -0.72769
 Alpha  occ. eigenvalues --   -0.67986  -0.59243  -0.53540  -0.52525  -0.47399
 Alpha virt. eigenvalues --    0.12100   0.17861   0.18878   0.29666   0.50059
 Alpha virt. eigenvalues --    0.54376   0.55891   0.60641   0.68750   0.72633
 Alpha virt. eigenvalues --    0.73866   0.77054   0.81702   0.82862   0.84659

 Mulliken charges:
               1
     1  O   -0.548504
     2  H    0.280117
     3  H    0.248786
     4  O   -0.502748
     5  H    0.265157
     6  H    0.257192
 Sum of Mulliken charges =  -0.00000

 Dipole moment (field-independent basis, Debye):
    X=             -1.0165    Y=             -3.4869    Z=             -0.0000  Tot=              3.6320
 Quadrupole moment (field-independent basis, Debye-Ang):
   XX=             -9.2286   YY=             -8.4129   ZZ=            -14.7342
   XY=             -3.9700   XZ=              0.0000   YZ=             -0.0000

 Normal termination of Gaussian 16 at Sat Aug 27 00:19:08 2022.
