 Gaussian 16, Revision A.03,
 Gaussian 16:  ES64L-G16RevA.03 25-Dec-2016

 ------------------
 #p CCSD(T)/cc-pVTZ
 ------------------

 ------------
 H2O_H2O_1310
 ------------
 Symbolic Z-matrix:
 Charge =  0 Multiplicity = 1

                         Standard orientation:
 ---------------------------------------------------------------------
 Center     Atomic      Atomic             Coordinates (Angstroms)
 Number     Number       Type             X           Y           Z
 ---------------------------------------------------------------------
      1          8           0        0.063283    1.628586    0.000000
      2          1           0        0.061646    0.645986    0.000000
      3          1           0       -0.865678    1.948800    0.000000
      4          8           0        0.063283   -1.453146   -0.000000
      5          1           0        0.660154   -2.233691   -0.000000
      6          1           0       -0.868646   -1.764617   -0.000000
 ---------------------------------------------------------------------

 SCF Done:  E(RHF) =  -152.113348830     A.U. after   10 cycles
 E2 =    -0.5276852673D+00 EUMP2 =    -0.15264103409740D+03
 CCSD(T)
 CCSD(T)= -0.15266800024D+03

 The electronic state is 1-A'.
 Alpha  occ. eigenvalues --  -20.58243 -20.52717  -1.35585  -1.30209  -0.72947
 Alpha  occ. eigenvalues --   -0.68029  -0.59313  -0.53469  -0.52688  -0.47340
 Alpha virt. eigenvalues --    0.11868   0.17363   0.19253   0.29958   0.48987
 Alpha virt. eigenvalues --    0.54935   0.56960   0.59256   0.69749   0.72657
 Alpha virt. eigenvalues --    0.73570   0.76608   0.81791   0.82695   0.84643

 Mulliken charges:
               1
     1  O   -0.544670
     2  H    0.283829
     3  H    0.240888
     4  O   -0.496893
     5  H    0.261098
     6  H    0.255747
 Sum of Mulliken charges =  -0.00000

 Dipole moment (field-independent basis, Debye):
    X=             -2.1083    Y=             -3.5153    Z=             -0.0000  Tot=              4.0990
 Quadrupole moment (field-independent basis, Debye-Ang):
   XX=             -9.4737   YY=             -8.4774   ZZ=            -14.7306
   XY=             -3.3376   XZ=             -0.0000   YZ=              0.0000

 Normal termination of Gaussian 16 at Fri Aug 26 23:45:47 2022.
