 Gaussian 16, Revision A.03,
 Gaussian 16:  ES64L-G16RevA.03 25-Dec-2016

 ------------------
 #p CCSD(T)/cc-pVTZ
 ------------------

 -----------
 H2O_H2O_306
 -----------
 Symbolic Z-matrix:
 Charge =  0 Multiplicity = 1

                         Standard orientation:
 ---------------------------------------------------------------------
 Center     Atomic      Atomic             Coordinates (Angstroms)
 Number     Number       Type             X           Y           Z
 ---------------------------------------------------------------------
      1          8           0        0.076808   -1.223013    0.000000
      2          1           0        0.075604   -0.240413    0.000000
      3          1           0       -0.852294   -1.542818    0.000000
      4          8           0        0.076808    1.059898    0.000000
      5          1           0        0.451721    1.968163    0.000000
      6          1           0       -0.903955    1.119989    0.000000
 ---------------------------------------------------------------------

 SCF Done:  E(RHF) =  -152.079353651     A.U. after   11 cycles
 E2 =    -0.5345872379D+00 EUMP2 =    -0.15261394088927D+03
 CCSD(T)
 CCSD(T)= -0.15264001755D+03

 The electronic state is 1-A'.
 Alpha  occ. eigenvalues --  -20.60880 -20.48211  -1.40543  -1.27048  -0.78633
 Alpha  occ. eigenvalues --   -0.71348  -0.57531  -0.56450  -0.48812  -0.43887
 Alpha virt. eigenvalues --    0.10870   0.16437   0.20863   0.32742   0.48891
 Alpha virt. eigenvalues --    0.52392   0.59792   0.64588   0.71831   0.72587
 Alpha virt. eigenvalues --    0.76326   0.77757   0.79852   0.84171   0.84883

 Mulliken charges:
               1
     1  O   -0.607966
     2  H    0.291003
     3  H    0.207853
     4  O   -0.361736
     5  H    0.233091
     6  H    0.237755
 Sum of Mulliken charges =  -0.00000

 Dipole moment (field-independent basis, Debye):
    X=             -2.4075    Y=              4.1951    Z=              0.0000  Tot=              4.8368
 Quadrupole moment (field-independent basis, Debye-Ang):
   XX=             -9.9498   YY=             -9.6256   ZZ=            -14.6097
   XY=              2.6146   XZ=              0.0000   YZ=              0.0000

 Normal termination of Gaussian 16 at Fri Aug 26 17:18:53 2022.
