 Gaussian 16, Revision A.03,
 Gaussian 16:  ES64L-G16RevA.03 25-Dec-2016

 ------------------
 #p CCSD(T)/cc-pVTZ
 ------------------

 ------------
 H2O_H2O_3940
 ------------
 Symbolic Z-matrix:
 Charge =  0 Multiplicity = 1

                         Standard orientation:
 ---------------------------------------------------------------------
 Center     Atomic      Atomic             Coordinates (Angstroms)
 Number     Number       Type             X           Y           Z
 ---------------------------------------------------------------------
      1          8           0        0.044837    2.678342    0.000000
      2          1           0        0.043260    1.695741    0.000000
      3          1           0       -0.884143    2.998500    0.000000
      4          8           0        0.044837   -2.497921   -0.000000
      5          1           0        0.860963   -3.045136   -0.000000
      6          1           0       -0.737479   -3.092470   -0.000000
 ---------------------------------------------------------------------

 SCF Done:  E(RHF) =  -152.108804703     A.U. after   10 cycles
 E2 =    -0.5258219391D+00 EUMP2 =    -0.15263462664190D+03
 CCSD(T)
 CCSD(T)= -0.15266180989D+03

 The electronic state is 1-A'.
 Alpha  occ. eigenvalues --  -20.56307 -20.54794  -1.33604  -1.32105  -0.71007
 Alpha  occ. eigenvalues --   -0.69505  -0.57111  -0.55582  -0.50725  -0.49232
 Alpha virt. eigenvalues --    0.13051   0.15239   0.19632   0.21366   0.53543
 Alpha virt. eigenvalues --    0.54929   0.56579   0.57844   0.66684   0.69137
 Alpha virt. eigenvalues --    0.78169   0.79444   0.79602   0.79615   0.82907

 Mulliken charges:
               1
     1  O   -0.515378
     2  H    0.261815
     3  H    0.253027
     4  O   -0.515665
     5  H    0.259062
     6  H    0.257138
 Sum of Mulliken charges =  -0.00000

 Dipole moment (field-independent basis, Debye):
    X=             -1.5352    Y=             -3.1874    Z=             -0.0000  Tot=              3.5379
 Quadrupole moment (field-independent basis, Debye-Ang):
   XX=             -9.1568   YY=             -6.5786   ZZ=            -14.7162
   XY=             -5.4159   XZ=             -0.0000   YZ=             -0.0000

 CCSD(T)=-152.6618099\RMSD=7.080e-09\PG=CS [SG(H4O2)]\\@
 Normal termination of Gaussian 16 at Sat Aug 27 00:35:17 2022.
