 Gaussian 16, Revision A.03,
 Gaussian 16:  ES64L-G16RevA.03 25-Dec-2016

 ------------------
 #p CCSD(T)/cc-pVTZ
 ------------------

 ------------
 H2O_H2O_1020
 ------------
 Symbolic Z-matrix:
 Charge =  0 Multiplicity = 1

                         Standard orientation:
 ---------------------------------------------------------------------
 Center     Atomic      Atomic             Coordinates (Angstroms)
 Number     Number       Type             X           Y           Z
 ---------------------------------------------------------------------
      1          8           0        0.026787    1.507686   -0.000000
      2          1           0        0.022827    0.525092   -0.000000
      3          1           0       -0.901415    1.830095    0.000000
      4          8           0        0.026787   -1.334541   -0.000000
      5          1           0        0.974874   -1.592679   -0.000000
      6          1           0       -0.524873   -2.147669    0.000000
 ---------------------------------------------------------------------

 SCF Done:  E(RHF) =  -152.113141743     A.U. after   10 cycles
 E2 =    -0.5285319135D+00 EUMP2 =    -0.15264167365643D+03
 CCSD(T)
 CCSD(T)= -0.15266852396D+03

 The electronic state is 1-A'.
 Alpha  occ. eigenvalues --  -20.58751 -20.51747  -1.36275  -1.29431  -0.73642
 Alpha  occ. eigenvalues --   -0.67981  -0.59814  -0.53319  -0.52435  -0.46551
 Alpha virt. eigenvalues --    0.11937   0.18439   0.18653   0.31938   0.48809
 Alpha virt. eigenvalues --    0.54649   0.56215   0.62903   0.68361   0.72721
 Alpha virt. eigenvalues --    0.72895   0.77179   0.81931   0.82697   0.84471

 Mulliken charges:
               1
     1  O   -0.570484
     2  H    0.293208
     3  H    0.246294
     4  O   -0.483235
     5  H    0.264379
     6  H    0.249838
 Sum of Mulliken charges =  -0.00000

 Dipole moment (field-independent basis, Debye):
    X=             -0.8913    Y=             -3.6449    Z=             -0.0000  Tot=              3.7523
 Quadrupole moment (field-independent basis, Debye-Ang):
   XX=             -9.2786   YY=             -8.7756   ZZ=            -14.7233
   XY=             -3.6915   XZ=             -0.0000   YZ=              0.0000

 Normal termination of Gaussian 16 at Fri Aug 26 21:56:57 2022.
