 Gaussian 16, Revision A.03,
 Gaussian 16:  ES64L-G16RevA.03 25-Dec-2016

 ------------------
 #p CCSD(T)/cc-pVTZ
 ------------------

 ------------
 H2O_H2O_2021
 ------------
 Symbolic Z-matrix:
 Charge =  0 Multiplicity = 1

                         Standard orientation:
 ---------------------------------------------------------------------
 Center     Atomic      Atomic             Coordinates (Angstroms)
 Number     Number       Type             X           Y           Z
 ---------------------------------------------------------------------
      1          8           0       -0.023265    1.905044    0.000000
      2          1           0       -0.020012    0.922448    0.000000
      3          1           0        0.905169    2.226786    0.000000
      4          8           0       -0.023265   -1.734688    0.000000
      5          1           0       -0.986346   -1.929573    0.000000
      6          1           0        0.473423   -2.582513    0.000000
 ---------------------------------------------------------------------

 SCF Done:  E(RHF) =  -152.112176073     A.U. after   10 cycles
 E2 =    -0.5263730436D+00 EUMP2 =    -0.15263854911630D+03
 CCSD(T)
 CCSD(T)= -0.15266561814D+03

 The electronic state is 1-A'.
 Alpha  occ. eigenvalues --  -20.57302 -20.53848  -1.34568  -1.31205  -0.71973
 Alpha  occ. eigenvalues --   -0.68638  -0.58251  -0.54668  -0.51703  -0.48360
 Alpha virt. eigenvalues --    0.12232   0.16962   0.19185   0.26190   0.52514
 Alpha virt. eigenvalues --    0.54698   0.56147   0.58959   0.68948   0.72656
 Alpha virt. eigenvalues --    0.76267   0.78280   0.80592   0.83448   0.84064

 Mulliken charges:
               1
     1  O   -0.530838
     2  H    0.267942
     3  H    0.252657
     4  O   -0.509541
     5  H    0.261495
     6  H    0.258286
 Sum of Mulliken charges =  -0.00000

 Dipole moment (field-independent basis, Debye):
    X=              0.7916    Y=             -3.1987    Z=              0.0000  Tot=              3.2952
 Quadrupole moment (field-independent basis, Debye-Ang):
   XX=             -9.3626   YY=             -8.0657   ZZ=            -14.7280
   XY=              4.7398   XZ=              0.0000   YZ=              0.0000

 Normal termination of Gaussian 16 at Sun Aug 28 03:40:40 2022.
