 Gaussian 16, Revision A.03,
 Gaussian 16:  ES64L-G16RevA.03 25-Dec-2016

 ------------------
 #p CCSD(T)/cc-pVTZ
 ------------------

 ------------
 H2O_H2O_1389
 ------------
 Symbolic Z-matrix:
 Charge =  0 Multiplicity = 1

                         Standard orientation:
 ---------------------------------------------------------------------
 Center     Atomic      Atomic             Coordinates (Angstroms)
 Number     Number       Type             X           Y           Z
 ---------------------------------------------------------------------
      1          8           0        0.048650    1.661153    0.000000
      2          1           0        0.046253    0.678554    0.000000
      3          1           0       -0.880063    1.982086    0.000000
      4          8           0        0.048650   -1.480837   -0.000000
      5          1           0        0.826739   -2.080907   -0.000000
      6          1           0       -0.771328   -2.022263   -0.000000
 ---------------------------------------------------------------------

 SCF Done:  E(RHF) =  -152.114054563     A.U. after   10 cycles
 E2 =    -0.5273946342D+00 EUMP2 =    -0.15264144919721D+03
 CCSD(T)
 CCSD(T)= -0.15266842417D+03

 The electronic state is 1-A'.
 Alpha  occ. eigenvalues --  -20.58126 -20.52686  -1.35433  -1.30166  -0.72752
 Alpha  occ. eigenvalues --   -0.67950  -0.59244  -0.53460  -0.52557  -0.47312
 Alpha virt. eigenvalues --    0.12010   0.17698   0.18965   0.29697   0.49523
 Alpha virt. eigenvalues --    0.54718   0.56127   0.59781   0.69105   0.71771
 Alpha virt. eigenvalues --    0.73887   0.76851   0.81754   0.82917   0.84916

 Mulliken charges:
               1
     1  O   -0.545967
     2  H    0.281737
     3  H    0.244570
     4  O   -0.504795
     5  H    0.265627
     6  H    0.258827
 Sum of Mulliken charges =   0.00000

 Dipole moment (field-independent basis, Debye):
    X=             -1.6260    Y=             -3.5816    Z=             -0.0000  Tot=              3.9334
 Quadrupole moment (field-independent basis, Debye-Ang):
   XX=             -9.1880   YY=             -8.3680   ZZ=            -14.7350
   XY=             -3.6466   XZ=             -0.0000   YZ=              0.0000

 Normal termination of Gaussian 16 at Sat Aug 27 00:17:18 2022.
