 Gaussian 16, Revision A.03,
 Gaussian 16:  ES64L-G16RevA.03 25-Dec-2016

 ------------------
 #p CCSD(T)/cc-pVTZ
 ------------------

 -----------
 H2O_H2O_893
 -----------
 Symbolic Z-matrix:
 Charge =  0 Multiplicity = 1

                         Standard orientation:
 ---------------------------------------------------------------------
 Center     Atomic      Atomic             Coordinates (Angstroms)
 Number     Number       Type             X           Y           Z
 ---------------------------------------------------------------------
      1          8           0        0.033921    1.460149    0.000000
      2          1           0        0.030259    0.477555    0.000000
      3          1           0       -0.894378    1.782277    0.000000
      4          8           0        0.033921   -1.282725   -0.000000
      5          1           0        0.940319   -1.662131   -0.000000
      6          1           0       -0.618932   -2.017090   -0.000000
 ---------------------------------------------------------------------

 SCF Done:  E(RHF) =  -152.112226420     A.U. after   10 cycles
 E2 =    -0.5291071547D+00 EUMP2 =    -0.15264133357459D+03
 CCSD(T)
 CCSD(T)= -0.15266810364D+03

 The electronic state is 1-A'.
 Alpha  occ. eigenvalues --  -20.59069 -20.51099  -1.36706  -1.28915  -0.73913
 Alpha  occ. eigenvalues --   -0.68327  -0.59788  -0.53709  -0.51762  -0.46009
 Alpha virt. eigenvalues --    0.11801   0.18382   0.18807   0.32595   0.48280
 Alpha virt. eigenvalues --    0.54536   0.57015   0.63108   0.68494   0.72313
 Alpha virt. eigenvalues --    0.72551   0.77615   0.81878   0.82994   0.84523

 Mulliken charges:
               1
     1  O   -0.580186
     2  H    0.301087
     3  H    0.241818
     4  O   -0.481030
     5  H    0.265114
     6  H    0.253198
 Sum of Mulliken charges =   0.00000

 Dipole moment (field-independent basis, Debye):
    X=             -1.1172    Y=             -3.8306    Z=             -0.0000  Tot=              3.9902
 Quadrupole moment (field-independent basis, Debye-Ang):
   XX=             -9.1734   YY=             -8.9017   ZZ=            -14.7182
   XY=             -3.4687   XZ=             -0.0000   YZ=              0.0000

 Normal termination of Gaussian 16 at Fri Aug 26 21:10:54 2022.
