 Gaussian 16, Revision A.03,
 Gaussian 16:  ES64L-G16RevA.03 25-Dec-2016

 ------------------
 #p CCSD(T)/cc-pVTZ
 ------------------

 -----------
 H2O_H2O_928
 -----------
 Symbolic Z-matrix:
 Charge =  0 Multiplicity = 1

                         Standard orientation:
 ---------------------------------------------------------------------
 Center     Atomic      Atomic             Coordinates (Angstroms)
 Number     Number       Type             X           Y           Z
 ---------------------------------------------------------------------
      1          8           0        0.085614   -1.464949    0.000000
      2          1           0        0.085166   -0.482347    0.000000
      3          1           0       -0.843733   -1.784039    0.000000
      4          8           0        0.085614    1.315382    0.000000
      5          1           0        0.276871    2.279191    0.000000
      6          1           0       -0.888127    1.183729    0.000000
 ---------------------------------------------------------------------

 SCF Done:  E(RHF) =  -152.107603554     A.U. after   10 cycles
 E2 =    -0.5296965069D+00 EUMP2 =    -0.15263730006115D+03
 CCSD(T)
 CCSD(T)= -0.15266418288D+03

 The electronic state is 1-A'.
 Alpha  occ. eigenvalues --  -20.58895 -20.52686  -1.36597  -1.30306  -0.74611
 Alpha  occ. eigenvalues --   -0.68141  -0.59665  -0.53498  -0.53388  -0.47366
 Alpha virt. eigenvalues --    0.11472   0.16623   0.20302   0.31309   0.48314
 Alpha virt. eigenvalues --    0.53554   0.58461   0.60848   0.68876   0.72028
 Alpha virt. eigenvalues --    0.74320   0.77708   0.80396   0.82300   0.83429

 Mulliken charges:
               1
     1  O   -0.547128
     2  H    0.288376
     3  H    0.230021
     4  O   -0.444151
     5  H    0.235571
     6  H    0.237311
 Sum of Mulliken charges =  -0.00000

 Dipole moment (field-independent basis, Debye):
    X=             -2.8087    Y=              3.1972    Z=              0.0000  Tot=              4.2557
 Quadrupole moment (field-independent basis, Debye-Ang):
   XX=            -10.4503   YY=             -9.0140   ZZ=            -14.6950
   XY=              2.5141   XZ=              0.0000   YZ=              0.0000

 Normal termination of Gaussian 16 at Fri Aug 26 21:23:39 2022.
