 Gaussian 16, Revision A.03,
 Gaussian 16:  ES64L-G16RevA.03 25-Dec-2016

 ------------------
 #p CCSD(T)/cc-pVTZ
 ------------------

 ------------
 H2O_H2O_1559
 ------------
 Symbolic Z-matrix:
 Charge =  0 Multiplicity = 1

                         Standard orientation:
 ---------------------------------------------------------------------
 Center     Atomic      Atomic             Coordinates (Angstroms)
 Number     Number       Type             X           Y           Z
 ---------------------------------------------------------------------
      1          8           0        0.066793    1.727007   -0.000000
      2          1           0        0.065438    0.744407   -0.000000
      3          1           0       -0.862259    2.046955   -0.000000
      4          8           0        0.066793   -1.553954    0.000000
      5          1           0        0.611570   -2.371709    0.000000
      6          1           0       -0.883440   -1.804080    0.000000
 ---------------------------------------------------------------------

 SCF Done:  E(RHF) =  -152.112752904     A.U. after   10 cycles
 E2 =    -0.5271199041D+00 EUMP2 =    -0.15263987280795D+03
 CCSD(T)
 CCSD(T)= -0.15266689420D+03

 The electronic state is 1-A'.
 Alpha  occ. eigenvalues --  -20.57862 -20.53298  -1.35151  -1.30709  -0.72552
 Alpha  occ. eigenvalues --   -0.68246  -0.58884  -0.54072  -0.52270  -0.47847
 Alpha virt. eigenvalues --    0.11925   0.17099   0.19315   0.28360   0.49778
 Alpha virt. eigenvalues --    0.55137   0.56619   0.58854   0.69549   0.73055
 Alpha virt. eigenvalues --    0.74533   0.76864   0.81242   0.82975   0.84349

 Mulliken charges:
               1
     1  O   -0.534266
     2  H    0.275670
     3  H    0.243062
     4  O   -0.501056
     5  H    0.261392
     6  H    0.255197
 Sum of Mulliken charges =  -0.00000

 Dipole moment (field-independent basis, Debye):
    X=             -2.2392    Y=             -3.3686    Z=              0.0000  Tot=              4.0449
 Quadrupole moment (field-independent basis, Debye-Ang):
   XX=             -9.5824   YY=             -8.3089   ZZ=            -14.7303
   XY=             -3.3557   XZ=              0.0000   YZ=             -0.0000

 Normal termination of Gaussian 16 at Sat Aug 27 23:08:40 2022.
