 Gaussian 16, Revision A.03,
 Gaussian 16:  ES64L-G16RevA.03 25-Dec-2016

 ------------------
 #p CCSD(T)/cc-pVTZ
 ------------------

 ------------
 H2O_H2O_3233
 ------------
 Symbolic Z-matrix:
 Charge =  0 Multiplicity = 1

                         Standard orientation:
 ---------------------------------------------------------------------
 Center     Atomic      Atomic             Coordinates (Angstroms)
 Number     Number       Type             X           Y           Z
 ---------------------------------------------------------------------
      1          8           0        0.070197    2.393599    0.000000
      2          1           0        0.069360    1.410998    0.000000
      3          1           0       -0.859024    2.713057   -0.000000
      4          8           0        0.070197   -2.223352    0.000000
      5          1           0        0.560774   -3.074729    0.000000
      6          1           0       -0.894261   -2.411304   -0.000000
 ---------------------------------------------------------------------

 SCF Done:  E(RHF) =  -152.109067660     A.U. after   10 cycles
 E2 =    -0.5259361380D+00 EUMP2 =    -0.15263500379842D+03
 CCSD(T)
 CCSD(T)= -0.15266216768D+03

 The electronic state is 1-A'.
 Alpha  occ. eigenvalues --  -20.56551 -20.54692  -1.33838  -1.32005  -0.71248
 Alpha  occ. eigenvalues --   -0.69394  -0.57348  -0.55479  -0.50960  -0.49132
 Alpha virt. eigenvalues --    0.12395   0.15646   0.19443   0.22224   0.53476
 Alpha virt. eigenvalues --    0.55162   0.56369   0.58299   0.67478   0.69311
 Alpha virt. eigenvalues --    0.77946   0.78755   0.79711   0.80109   0.82981

 Mulliken charges:
               1
     1  O   -0.515202
     2  H    0.262695
     3  H    0.250656
     4  O   -0.513112
     5  H    0.260050
     6  H    0.254913
 Sum of Mulliken charges =  -0.00000

 Dipole moment (field-independent basis, Debye):
    X=             -2.3955    Y=             -3.0461    Z=             -0.0000  Tot=              3.8752
 Quadrupole moment (field-independent basis, Debye-Ang):
   XX=             -9.6840   YY=             -7.4457   ZZ=            -14.7170
   XY=             -3.7941   XZ=              0.0000   YZ=             -0.0000

 Normal termination of Gaussian 16 at Fri Aug 26 20:32:36 2022.
