 Gaussian 16, Revision A.03,
 Gaussian 16:  ES64L-G16RevA.03 25-Dec-2016

 ------------------
 #p CCSD(T)/cc-pVTZ
 ------------------

 -----------
 H2O_H2O_614
 -----------
 Symbolic Z-matrix:
 Charge =  0 Multiplicity = 1

                         Standard orientation:
 ---------------------------------------------------------------------
 Center     Atomic      Atomic             Coordinates (Angstroms)
 Number     Number       Type             X           Y           Z
 ---------------------------------------------------------------------
      1          8           0        0.048704    1.351995   -0.000000
      2          1           0        0.045719    0.369398   -0.000000
      3          1           0       -0.879817    1.673483   -0.000000
      4          8           0        0.048704   -1.171737    0.000000
      5          1           0        0.826433   -1.772272    0.000000
      6          1           0       -0.771598   -1.712673    0.000000
 ---------------------------------------------------------------------

 SCF Done:  E(RHF) =  -152.105511056     A.U. after   11 cycles
 E2 =    -0.5308580943D+00 EUMP2 =    -0.15263636915017D+03
 CCSD(T)
 CCSD(T)= -0.15266287893D+03

 The electronic state is 1-A'.
 Alpha  occ. eigenvalues --  -20.59875 -20.49518  -1.38007  -1.27764  -0.74789
 Alpha  occ. eigenvalues --   -0.70208  -0.58992  -0.54797  -0.50122  -0.44757
 Alpha virt. eigenvalues --    0.11403   0.17701   0.19619   0.33387   0.47589
 Alpha virt. eigenvalues --    0.53886   0.60362   0.62662   0.70133   0.72336
 Alpha virt. eigenvalues --    0.72901   0.78376   0.81586   0.82668   0.84257

 Mulliken charges:
               1
     1  O   -0.603139
     2  H    0.313646
     3  H    0.229720
     4  O   -0.453807
     5  H    0.261394
     6  H    0.252186
 Sum of Mulliken charges =   0.00000

 Dipole moment (field-independent basis, Debye):
    X=             -1.5690    Y=             -4.1679    Z=              0.0000  Tot=              4.4534
 Quadrupole moment (field-independent basis, Debye-Ang):
   XX=             -9.1681   YY=             -9.2692   ZZ=            -14.6908
   XY=             -3.1172   XZ=              0.0000   YZ=              0.0000

 Normal termination of Gaussian 16 at Fri Aug 26 19:24:34 2022.
