 Gaussian 16, Revision A.03,
 Gaussian 16:  ES64L-G16RevA.03 25-Dec-2016

 ------------------
 #p CCSD(T)/cc-pVTZ
 ------------------

 ------------
 H2O_H2O_4035
 ------------
 Symbolic Z-matrix:
 Charge =  0 Multiplicity = 1

                         Standard orientation:
 ---------------------------------------------------------------------
 Center     Atomic      Atomic             Coordinates (Angstroms)
 Number     Number       Type             X           Y           Z
 ---------------------------------------------------------------------
      1          8           0        0.063222    2.715569   -0.000000
      2          1           0        0.062262    1.732969   -0.000000
      3          1           0       -0.865959    3.035144   -0.000000
      4          8           0        0.063222   -2.540042    0.000000
      5          1           0        0.660631   -3.320176    0.000000
      6          1           0       -0.868491   -2.852156    0.000000
 ---------------------------------------------------------------------

 SCF Done:  E(RHF) =  -152.108524371     A.U. after   10 cycles
 E2 =    -0.5258367722D+00 EUMP2 =    -0.15263436114313D+03
 CCSD(T)
 CCSD(T)= -0.15266155143D+03

 The electronic state is 1-A'.
 Alpha  occ. eigenvalues --  -20.56289 -20.54881  -1.33587  -1.32190  -0.70994
 Alpha  occ. eigenvalues --   -0.69586  -0.57083  -0.55660  -0.50706  -0.49313
 Alpha virt. eigenvalues --    0.13026   0.15134   0.19573   0.21305   0.53464
 Alpha virt. eigenvalues --    0.54938   0.56566   0.57841   0.66687   0.69037
 Alpha virt. eigenvalues --    0.78188   0.79197   0.79540   0.80107   0.82811

 Mulliken charges:
               1
     1  O   -0.513840
     2  H    0.261162
     3  H    0.252276
     4  O   -0.514536
     5  H    0.259236
     6  H    0.255702
 Sum of Mulliken charges =  -0.00000

 Dipole moment (field-independent basis, Debye):
    X=             -2.1650    Y=             -3.0968    Z=              0.0000  Tot=              3.7785
 Quadrupole moment (field-independent basis, Debye-Ang):
   XX=             -9.4545   YY=             -6.7705   ZZ=            -14.7152
   XY=             -4.4754   XZ=              0.0000   YZ=             -0.0000

 Normal termination of Gaussian 16 at Sat Aug 27 01:08:13 2022.
