 Gaussian 16, Revision A.03,
 Gaussian 16:  ES64L-G16RevA.03 25-Dec-2016

 ------------------
 #p CCSD(T)/cc-pVTZ
 ------------------

 -----------
 H2O_H2O_538
 -----------
 Symbolic Z-matrix:
 Charge =  0 Multiplicity = 1

                         Standard orientation:
 ---------------------------------------------------------------------
 Center     Atomic      Atomic             Coordinates (Angstroms)
 Number     Number       Type             X           Y           Z
 ---------------------------------------------------------------------
      1          8           0        0.052415    1.321806   -0.000000
      2          1           0        0.049614    0.339208   -0.000000
      3          1           0       -0.876166    1.643120   -0.000000
      4          8           0        0.052415   -1.142051    0.000000
      5          1           0        0.789325   -1.792029    0.000000
      6          1           0       -0.801418   -1.628337    0.000000
 ---------------------------------------------------------------------

 SCF Done:  E(RHF) =  -152.101924078     A.U. after   11 cycles
 E2 =    -0.5314819006D+00 EUMP2 =    -0.15263340597841D+03
 CCSD(T)
 CCSD(T)= -0.15265981926D+03

 The electronic state is 1-A'.
 Alpha  occ. eigenvalues --  -20.60124 -20.49031  -1.38484  -1.27438  -0.75164
 Alpha  occ. eigenvalues --   -0.70935  -0.58607  -0.55166  -0.49619  -0.44391
 Alpha virt. eigenvalues --    0.11276   0.17487   0.19849   0.33436   0.47573
 Alpha virt. eigenvalues --    0.53660   0.61293   0.62536   0.70655   0.72279
 Alpha virt. eigenvalues --    0.73606   0.78605   0.81237   0.82632   0.84136

 Mulliken charges:
               1
     1  O   -0.609279
     2  H    0.313948
     3  H    0.225842
     4  O   -0.439417
     5  H    0.258509
     6  H    0.250396
 Sum of Mulliken charges =   0.00000

 Dipole moment (field-independent basis, Debye):
    X=             -1.6769    Y=             -4.2502    Z=              0.0000  Tot=              4.5690
 Quadrupole moment (field-independent basis, Debye-Ang):
   XX=             -9.2119   YY=             -9.3775   ZZ=            -14.6785
   XY=             -3.0394   XZ=             -0.0000   YZ=             -0.0000

 Normal termination of Gaussian 16 at Fri Aug 26 18:55:07 2022.
