 Gaussian 16, Revision A.03,
 Gaussian 16:  ES64L-G16RevA.03 25-Dec-2016

 ------------------
 #p CCSD(T)/cc-pVTZ
 ------------------

 ------------
 H2O_H2O_3211
 ------------
 Symbolic Z-matrix:
 Charge =  0 Multiplicity = 1

                         Standard orientation:
 ---------------------------------------------------------------------
 Center     Atomic      Atomic             Coordinates (Angstroms)
 Number     Number       Type             X           Y           Z
 ---------------------------------------------------------------------
      1          8           0        0.059639    2.387540    0.000000
      2          1           0        0.058409    1.404939    0.000000
      3          1           0       -0.869454    2.707369    0.000000
      4          8           0        0.059639   -2.210092    0.000000
      5          1           0        0.706588   -2.949662    0.000000
      6          1           0       -0.849769   -2.582226    0.000000
 ---------------------------------------------------------------------

 SCF Done:  E(RHF) =  -152.109372952     A.U. after   10 cycles
 E2 =    -0.5259175141D+00 EUMP2 =    -0.15263529046646D+03
 CCSD(T)
 CCSD(T)= -0.15266244733D+03

 The electronic state is 1-A'.
 Alpha  occ. eigenvalues --  -20.56559 -20.54580  -1.33843  -1.31896  -0.71247
 Alpha  occ. eigenvalues --   -0.69287  -0.57367  -0.55377  -0.50968  -0.49026
 Alpha virt. eigenvalues --    0.12533   0.15724   0.19489   0.22230   0.53352
 Alpha virt. eigenvalues --    0.55237   0.56373   0.58334   0.67596   0.69348
 Alpha virt. eigenvalues --    0.77937   0.78919   0.79616   0.79809   0.83103

 Mulliken charges:
               1
     1  O   -0.516775
     2  H    0.263479
     3  H    0.251201
     4  O   -0.514091
     5  H    0.260103
     6  H    0.256084
 Sum of Mulliken charges =  -0.00000

 Dipole moment (field-independent basis, Debye):
    X=             -2.0352    Y=             -3.1782    Z=              0.0000  Tot=              3.7740
 Quadrupole moment (field-independent basis, Debye-Ang):
   XX=             -9.3642   YY=             -7.1640   ZZ=            -14.7182
   XY=             -4.3016   XZ=              0.0000   YZ=              0.0000

 Normal termination of Gaussian 16 at Fri Aug 26 20:25:21 2022.
