 Gaussian 16, Revision A.03,
 Gaussian 16:  ES64L-G16RevA.03 25-Dec-2016

 ------------------
 #p CCSD(T)/cc-pVTZ
 ------------------

 ------------
 H2O_H2O_3273
 ------------
 Symbolic Z-matrix:
 Charge =  0 Multiplicity = 1

                         Standard orientation:
 ---------------------------------------------------------------------
 Center     Atomic      Atomic             Coordinates (Angstroms)
 Number     Number       Type             X           Y           Z
 ---------------------------------------------------------------------
      1          8           0       -0.016621    2.399856    0.000000
      2          1           0       -0.013827    1.417259    0.000000
      3          1           0        0.911962    2.721164    0.000000
      4          8           0       -0.016621   -2.236464    0.000000
      5          1           0       -0.996931   -2.303516    0.000000
      6          1           0        0.364732   -3.142045    0.000000
 ---------------------------------------------------------------------

 SCF Done:  E(RHF) =  -152.109416251     A.U. after   10 cycles
 E2 =    -0.5258731586D+00 EUMP2 =    -0.15263528940955D+03
 CCSD(T)
 CCSD(T)= -0.15266245001D+03

 The electronic state is 1-A'.
 Alpha  occ. eigenvalues --  -20.56508 -20.54736  -1.33800  -1.32052  -0.71207
 Alpha  occ. eigenvalues --   -0.69459  -0.57326  -0.55540  -0.50925  -0.49186
 Alpha virt. eigenvalues --    0.12403   0.15683   0.19259   0.22568   0.53479
 Alpha virt. eigenvalues --    0.55456   0.56495   0.58078   0.67382   0.69313
 Alpha virt. eigenvalues --    0.77975   0.78673   0.79653   0.80595   0.83012

 Mulliken charges:
               1
     1  O   -0.518334
     2  H    0.261982
     3  H    0.254709
     4  O   -0.515705
     5  H    0.258328
     6  H    0.259020
 Sum of Mulliken charges =  -0.00000

 Dipole moment (field-independent basis, Debye):
    X=              0.5709    Y=             -2.9181    Z=              0.0000  Tot=              2.9735
 Quadrupole moment (field-independent basis, Debye-Ang):
   XX=             -9.5429   YY=             -7.7087   ZZ=            -14.7182
   XY=              6.2984   XZ=              0.0000   YZ=              0.0000

 CCSD(T)=-152.66245\RMSD=6.937e-09\PG=CS [SG(H4O2)]\\@
 Normal termination of Gaussian 16 at Fri Aug 26 20:45:54 2022.
