 Gaussian 16, Revision A.03,
 Gaussian 16:  ES64L-G16RevA.03 25-Dec-2016

 ------------------
 #p CCSD(T)/cc-pVTZ
 ------------------

 ------------
 H2O_H2O_4585
 ------------
 Symbolic Z-matrix:
 Charge =  0 Multiplicity = 1

                         Standard orientation:
 ---------------------------------------------------------------------
 Center     Atomic      Atomic             Coordinates (Angstroms)
 Number     Number       Type             X           Y           Z
 ---------------------------------------------------------------------
      1          8           0        0.063216    2.934956    0.000000
      2          1           0        0.062330    1.952355    0.000000
      3          1           0       -0.865989    3.254461    0.000000
      4          8           0        0.063216   -2.759420   -0.000000
      5          1           0        0.660682   -3.539509   -0.000000
      6          1           0       -0.868475   -3.071604   -0.000000
 ---------------------------------------------------------------------

 SCF Done:  E(RHF) =  -152.108237906     A.U. after   10 cycles
 E2 =    -0.5258215198D+00 EUMP2 =    -0.15263405942530D+03
 CCSD(T)
 CCSD(T)= -0.15266126065D+03

 The electronic state is 1-A'.
 Alpha  occ. eigenvalues --  -20.56176 -20.55006  -1.33477  -1.32313  -0.70884
 Alpha  occ. eigenvalues --   -0.69712  -0.56963  -0.55779  -0.50594  -0.49433
 Alpha virt. eigenvalues --    0.13353   0.14857   0.19645   0.21013   0.53611
 Alpha virt. eigenvalues --    0.54844   0.56655   0.57772   0.66893   0.68674
 Alpha virt. eigenvalues --    0.78292   0.79426   0.79589   0.80392   0.82542

 Mulliken charges:
               1
     1  O   -0.512850
     2  H    0.259962
     3  H    0.252791
     4  O   -0.513714
     5  H    0.258370
     6  H    0.255440
 Sum of Mulliken charges =  -0.00000

 Dipole moment (field-independent basis, Debye):
    X=             -2.1683    Y=             -3.0793    Z=             -0.0000  Tot=              3.7660
 Quadrupole moment (field-independent basis, Debye-Ang):
   XX=             -9.4537   YY=             -6.4512   ZZ=            -14.7142
   XY=             -4.7022   XZ=             -0.0000   YZ=              0.0000

 5\MP4DQ=-152.6431806\MP4SDQ=-152.6462291\CCSD=-152.6456441\CCSD(T)=-15
 Normal termination of Gaussian 16 at Sun Aug 28 04:09:02 2022.
