 Gaussian 16, Revision A.03,
 Gaussian 16:  ES64L-G16RevA.03 25-Dec-2016

 ------------------
 #p CCSD(T)/cc-pVTZ
 ------------------

 ------------
 H2O_H2O_3790
 ------------
 Symbolic Z-matrix:
 Charge =  0 Multiplicity = 1

                         Standard orientation:
 ---------------------------------------------------------------------
 Center     Atomic      Atomic             Coordinates (Angstroms)
 Number     Number       Type             X           Y           Z
 ---------------------------------------------------------------------
      1          8           0        0.044841    2.618509    0.000000
      2          1           0        0.043226    1.635908    0.000000
      3          1           0       -0.884127    2.938702   -0.000000
      4          8           0        0.044841   -2.438091    0.000000
      5          1           0        0.860947   -2.985337    0.000000
      6          1           0       -0.737498   -3.032610   -0.000000
 ---------------------------------------------------------------------

 SCF Done:  E(RHF) =  -152.108932810     A.U. after   10 cycles
 E2 =    -0.5258309634D+00 EUMP2 =    -0.15263476377304D+03
 CCSD(T)
 CCSD(T)= -0.15266194200D+03

 The electronic state is 1-A'.
 Alpha  occ. eigenvalues --  -20.56348 -20.54748  -1.33643  -1.32060  -0.71046
 Alpha  occ. eigenvalues --   -0.69459  -0.57155  -0.55539  -0.50766  -0.49188
 Alpha virt. eigenvalues --    0.12955   0.15335   0.19609   0.21493   0.53503
 Alpha virt. eigenvalues --    0.54970   0.56551   0.57881   0.66739   0.69221
 Alpha virt. eigenvalues --    0.78132   0.79307   0.79552   0.79656   0.82955

 Mulliken charges:
               1
     1  O   -0.515824
     2  H    0.262184
     3  H    0.252897
     4  O   -0.515760
     5  H    0.259271
     6  H    0.257232
 Sum of Mulliken charges =  -0.00000

 Dipole moment (field-independent basis, Debye):
    X=             -1.5345    Y=             -3.1946    Z=             -0.0000  Tot=              3.5440
 Quadrupole moment (field-independent basis, Debye-Ang):
   XX=             -9.1568   YY=             -6.6751   ZZ=            -14.7167
   XY=             -5.3163   XZ=              0.0000   YZ=             -0.0000

 Normal termination of Gaussian 16 at Fri Aug 26 23:41:15 2022.
