 Gaussian 16, Revision A.03,
 Gaussian 16:  ES64L-G16RevA.03 25-Dec-2016

 ------------------
 #p CCSD(T)/cc-pVTZ
 ------------------

 -----------
 H2O_H2O_401
 -----------
 Symbolic Z-matrix:
 Charge =  0 Multiplicity = 1

                         Standard orientation:
 ---------------------------------------------------------------------
 Center     Atomic      Atomic             Coordinates (Angstroms)
 Number     Number       Type             X           Y           Z
 ---------------------------------------------------------------------
      1          8           0        0.090690   -1.249631    0.000000
      2          1           0        0.090527   -0.267030    0.000000
      3          1           0       -0.838750   -1.568452    0.000000
      4          8           0        0.090690    1.110937    0.000000
      5          1           0        0.154793    2.091447    0.000000
      6          1           0       -0.857612    0.853588    0.000000
 ---------------------------------------------------------------------

 SCF Done:  E(RHF) =  -152.080864911     A.U. after   11 cycles
 E2 =    -0.5346181789D+00 EUMP2 =    -0.15261548309027D+03
 CCSD(T)
 CCSD(T)= -0.15264180857D+03

 The electronic state is 1-A'.
 Alpha  occ. eigenvalues --  -20.60346 -20.50437  -1.39824  -1.28758  -0.79215
 Alpha  occ. eigenvalues --   -0.68467  -0.59056  -0.55691  -0.51192  -0.45689
 Alpha virt. eigenvalues --    0.11118   0.16281   0.21206   0.32316   0.48851
 Alpha virt. eigenvalues --    0.51532   0.59239   0.65898   0.71345   0.72140
 Alpha virt. eigenvalues --    0.74381   0.76853   0.78978   0.82665   0.84345

 Mulliken charges:
               1
     1  O   -0.571724
     2  H    0.279743
     3  H    0.208301
     4  O   -0.374394
     5  H    0.228213
     6  H    0.229861
 Sum of Mulliken charges =  -0.00000

 Dipole moment (field-independent basis, Debye):
    X=             -2.8925    Y=              3.5025    Z=              0.0000  Tot=              4.5424
 Quadrupole moment (field-independent basis, Debye-Ang):
   XX=            -10.7184   YY=             -9.5495   ZZ=            -14.6092
   XY=              2.1274   XZ=              0.0000   YZ=              0.0000

 Normal termination of Gaussian 16 at Fri Aug 26 17:58:28 2022.
