 Gaussian 16, Revision A.03,
 Gaussian 16:  ES64L-G16RevA.03 25-Dec-2016

 ------------------
 #p CCSD(T)/cc-pVTZ
 ------------------

 ------------
 H2O_H2O_1693
 ------------
 Symbolic Z-matrix:
 Charge =  0 Multiplicity = 1

                         Standard orientation:
 ---------------------------------------------------------------------
 Center     Atomic      Atomic             Coordinates (Angstroms)
 Number     Number       Type             X           Y           Z
 ---------------------------------------------------------------------
      1          8           0        0.033858    1.779273   -0.000000
      2          1           0        0.030888    0.796676   -0.000000
      3          1           0       -0.894667    2.100748   -0.000000
      4          8           0        0.033858   -1.601802    0.000000
      5          1           0        0.940523   -1.980570    0.000000
      6          1           0       -0.618477   -2.336624    0.000000
 ---------------------------------------------------------------------

 SCF Done:  E(RHF) =  -152.113414678     A.U. after   10 cycles
 E2 =    -0.5267604834D+00 EUMP2 =    -0.15264017516142D+03
 CCSD(T)
 CCSD(T)= -0.15266720202D+03

 The electronic state is 1-A'.
 Alpha  occ. eigenvalues --  -20.57683 -20.53286  -1.34950  -1.30689  -0.72321
 Alpha  occ. eigenvalues --   -0.68212  -0.58738  -0.54094  -0.52086  -0.47846
 Alpha virt. eigenvalues --    0.12177   0.17436   0.19021   0.27903   0.51019
 Alpha virt. eigenvalues --    0.54404   0.56153   0.59515   0.69015   0.72547
 Alpha virt. eigenvalues --    0.75088   0.77162   0.81166   0.83209   0.84608

 Mulliken charges:
               1
     1  O   -0.537769
     2  H    0.273027
     3  H    0.249642
     4  O   -0.507638
     5  H    0.263798
     6  H    0.258940
 Sum of Mulliken charges =  -0.00000

 Dipole moment (field-independent basis, Debye):
    X=             -1.1418    Y=             -3.4178    Z=              0.0000  Tot=              3.6034
 Quadrupole moment (field-independent basis, Debye-Ang):
   XX=             -9.1877   YY=             -8.1489   ZZ=            -14.7335
   XY=             -4.1504   XZ=              0.0000   YZ=             -0.0000

 65585\MP4DQ=-152.648956\MP4SDQ=-152.6520503\CCSD=-152.6514348\CCSD(T)=
 Normal termination of Gaussian 16 at Sun Aug 28 00:44:19 2022.
