 Gaussian 16, Revision A.03,
 Gaussian 16:  ES64L-G16RevA.03 25-Dec-2016

 ------------------
 #p CCSD(T)/cc-pVTZ
 ------------------

 ------------
 H2O_H2O_1796
 ------------
 Symbolic Z-matrix:
 Charge =  0 Multiplicity = 1

                         Standard orientation:
 ---------------------------------------------------------------------
 Center     Atomic      Atomic             Coordinates (Angstroms)
 Number     Number       Type             X           Y           Z
 ---------------------------------------------------------------------
      1          8           0       -0.023279    1.815294    0.000000
      2          1           0       -0.019858    0.832698    0.000000
      3          1           0        0.905099    2.137194    0.000000
      4          8           0       -0.023279   -1.644945    0.000000
      5          1           0       -0.986327   -1.839995    0.000000
      6          1           0        0.473554   -2.492685    0.000000
 ---------------------------------------------------------------------

 SCF Done:  E(RHF) =  -152.112845025     A.U. after   10 cycles
 E2 =    -0.5266093367D+00 EUMP2 =    -0.15263945436169D+03
 CCSD(T)
 CCSD(T)= -0.15266649998D+03

 The electronic state is 1-A'.
 Alpha  occ. eigenvalues --  -20.57533 -20.53583  -1.34806  -1.30965  -0.72213
 Alpha  occ. eigenvalues --   -0.68435  -0.58550  -0.54393  -0.51939  -0.48122
 Alpha virt. eigenvalues --    0.12205   0.17241   0.19126   0.27297   0.51758
 Alpha virt. eigenvalues --    0.54380   0.56033   0.59464   0.68988   0.73109
 Alpha virt. eigenvalues --    0.75459   0.77755   0.80899   0.83264   0.84342

 Mulliken charges:
               1
     1  O   -0.535357
     2  H    0.270224
     3  H    0.252182
     4  O   -0.507916
     5  H    0.262633
     6  H    0.258234
 Sum of Mulliken charges =  -0.00000

 Dipole moment (field-independent basis, Debye):
    X=              0.7904    Y=             -3.2503    Z=              0.0000  Tot=              3.3450
 Quadrupole moment (field-independent basis, Debye-Ang):
   XX=             -9.3626   YY=             -8.1998   ZZ=            -14.7308
   XY=              4.5216   XZ=              0.0000   YZ=              0.0000

 Normal termination of Gaussian 16 at Sun Aug 28 01:39:50 2022.
