 Gaussian 16, Revision A.03,
 Gaussian 16:  ES64L-G16RevA.03 25-Dec-2016

 ------------------
 #p CCSD(T)/cc-pVTZ
 ------------------

 ------------
 H2O_H2O_2580
 ------------
 Symbolic Z-matrix:
 Charge =  0 Multiplicity = 1

                         Standard orientation:
 ---------------------------------------------------------------------
 Center     Atomic      Atomic             Coordinates (Angstroms)
 Number     Number       Type             X           Y           Z
 ---------------------------------------------------------------------
      1          8           0        0.079856    2.128248    0.000000
      2          1           0        0.079313    1.145647    0.000000
      3          1           0       -0.849461    2.447428   -0.000000
      4          8           0        0.079856   -1.969195    0.000000
      5          1           0        0.395189   -2.899825    0.000000
      6          1           0       -0.902739   -1.965673   -0.000000
 ---------------------------------------------------------------------

 SCF Done:  E(RHF) =  -152.109515320     A.U. after   10 cycles
 E2 =    -0.5261710837D+00 EUMP2 =    -0.15263568640414D+03
 CCSD(T)
 CCSD(T)= -0.15266282307D+03

 The electronic state is 1-A'.
 Alpha  occ. eigenvalues --  -20.56885 -20.54589  -1.34164  -1.31904  -0.71590
 Alpha  occ. eigenvalues --   -0.69280  -0.57687  -0.55368  -0.51283  -0.49030
 Alpha virt. eigenvalues --    0.11913   0.16039   0.19517   0.23710   0.53680
 Alpha virt. eigenvalues --    0.55389   0.56316   0.58362   0.68737   0.70257
 Alpha virt. eigenvalues --    0.77469   0.79138   0.79849   0.80662   0.83090

 Mulliken charges:
               1
     1  O   -0.516552
     2  H    0.264303
     3  H    0.248089
     4  O   -0.507898
     5  H    0.259500
     6  H    0.252559
 Sum of Mulliken charges =  -0.00000

 Dipole moment (field-independent basis, Debye):
    X=             -2.7123    Y=             -2.8991    Z=             -0.0000  Tot=              3.9701
 Quadrupole moment (field-independent basis, Debye-Ang):
   XX=            -10.1096   YY=             -8.1523   ZZ=            -14.7179
   XY=             -3.1005   XZ=              0.0000   YZ=             -0.0000

 CCSD(T)=-152.6628231\RMSD=6.950e-09\PG=CS [SG(H4O2)]\\@
 Normal termination of Gaussian 16 at Fri Aug 26 15:46:05 2022.
