 Gaussian 16, Revision A.03,
 Gaussian 16:  ES64L-G16RevA.03 25-Dec-2016

 ------------------
 #p CCSD(T)/cc-pVTZ
 ------------------

 ------------
 H2O_H2O_1256
 ------------
 Symbolic Z-matrix:
 Charge =  0 Multiplicity = 1

                         Standard orientation:
 ---------------------------------------------------------------------
 Center     Atomic      Atomic             Coordinates (Angstroms)
 Number     Number       Type             X           Y           Z
 ---------------------------------------------------------------------
      1          8           0        0.076783    1.601970    0.000000
      2          1           0        0.075879    0.619369    0.000000
      3          1           0       -0.852417    1.921491    0.000000
      4          8           0        0.076783   -1.438808   -0.000000
      5          1           0        0.451973   -2.346958   -0.000000
      6          1           0       -0.903962   -1.499198   -0.000000
 ---------------------------------------------------------------------

 SCF Done:  E(RHF) =  -152.111816960     A.U. after   10 cycles
 E2 =    -0.5280034956D+00 EUMP2 =    -0.15263982045552D+03
 CCSD(T)
 CCSD(T)= -0.15266679714D+03

 The electronic state is 1-A'.
 Alpha  occ. eigenvalues --  -20.58295 -20.53052  -1.35689  -1.30531  -0.73216
 Alpha  occ. eigenvalues --   -0.68214  -0.59299  -0.53782  -0.52756  -0.47643
 Alpha virt. eigenvalues --    0.11703   0.16912   0.19693   0.29868   0.48871
 Alpha virt. eigenvalues --    0.54822   0.58094   0.58665   0.69577   0.73256
 Alpha virt. eigenvalues --    0.74462   0.76657   0.81619   0.82217   0.84071

 Mulliken charges:
               1
     1  O   -0.540220
     2  H    0.283047
     3  H    0.237922
     4  O   -0.480120
     5  H    0.249352
     6  H    0.250018
 Sum of Mulliken charges =  -0.00000

 Dipole moment (field-independent basis, Debye):
    X=             -2.5514    Y=             -3.2886    Z=             -0.0000  Tot=              4.1623
 Quadrupole moment (field-independent basis, Debye-Ang):
   XX=             -9.9873   YY=             -8.6457   ZZ=            -14.7211
   XY=             -2.9510   XZ=             -0.0000   YZ=             -0.0000

 Normal termination of Gaussian 16 at Fri Aug 26 23:25:42 2022.
