 Gaussian 16, Revision A.03,
 Gaussian 16:  ES64L-G16RevA.03 25-Dec-2016

 ------------------
 #p CCSD(T)/cc-pVTZ
 ------------------

 ------------
 H2O_H2O_3480
 ------------
 Symbolic Z-matrix:
 Charge =  0 Multiplicity = 1

                         Standard orientation:
 ---------------------------------------------------------------------
 Center     Atomic      Atomic             Coordinates (Angstroms)
 Number     Number       Type             X           Y           Z
 ---------------------------------------------------------------------
      1          8           0        0.079850    2.487245   -0.000000
      2          1           0        0.079388    1.504643   -0.000000
      3          1           0       -0.849494    2.806348   -0.000000
      4          8           0        0.079850   -2.328179    0.000000
      5          1           0        0.395259   -3.258781    0.000000
      6          1           0       -0.902746   -2.324737    0.000000
 ---------------------------------------------------------------------

 SCF Done:  E(RHF) =  -152.108497194     A.U. after   10 cycles
 E2 =    -0.5259210129D+00 EUMP2 =    -0.15263441820653D+03
 CCSD(T)
 CCSD(T)= -0.15266160055D+03

 The electronic state is 1-A'.
 Alpha  occ. eigenvalues --  -20.56458 -20.54918  -1.33753  -1.32226  -0.71167
 Alpha  occ. eigenvalues --   -0.69615  -0.57241  -0.55691  -0.50869  -0.49346
 Alpha virt. eigenvalues --    0.12316   0.15400   0.19322   0.22047   0.53394
 Alpha virt. eigenvalues --    0.55062   0.56431   0.58091   0.66996   0.69167
 Alpha virt. eigenvalues --    0.78037   0.78662   0.79509   0.80723   0.82755

 Mulliken charges:
               1
     1  O   -0.512759
     2  H    0.260937
     3  H    0.250799
     4  O   -0.512451
     5  H    0.259822
     6  H    0.253653
 Sum of Mulliken charges =  -0.00000

 Dipole moment (field-independent basis, Debye):
    X=             -2.7278    Y=             -2.8292    Z=              0.0000  Tot=              3.9300
 Quadrupole moment (field-independent basis, Debye-Ang):
   XX=            -10.0990   YY=             -7.8523   ZZ=            -14.7149
   XY=             -3.2669   XZ=              0.0000   YZ=             -0.0000

 CCSD(T)=-152.6616006\RMSD=7.156e-09\PG=CS [SG(H4O2)]\\@
 Normal termination of Gaussian 16 at Fri Aug 26 21:55:49 2022.
