 Gaussian 16, Revision A.03,
 Gaussian 16:  ES64L-G16RevA.03 25-Dec-2016

 ------------------
 #p CCSD(T)/cc-pVTZ
 ------------------

 -----------
 H2O_H2O_499
 -----------
 Symbolic Z-matrix:
 Charge =  0 Multiplicity = 1

                         Standard orientation:
 ---------------------------------------------------------------------
 Center     Atomic      Atomic             Coordinates (Angstroms)
 Number     Number       Type             X           Y           Z
 ---------------------------------------------------------------------
      1          8           0        0.013729   -1.290702    0.000000
      2          1           0        0.008164   -0.308117    0.000000
      3          1           0       -0.913945   -1.614627    0.000000
      4          8           0        0.013729    1.131512    0.000000
      5          1           0        0.996315    1.137076    0.000000
      6          1           0       -0.310196    2.059186    0.000000
 ---------------------------------------------------------------------

 SCF Done:  E(RHF) =  -152.096145673     A.U. after   11 cycles
 E2 =    -0.5321155052D+00 EUMP2 =    -0.15262826117807D+03
 CCSD(T)
 CCSD(T)= -0.15265463481D+03

 The electronic state is 1-A'.
 Alpha  occ. eigenvalues --  -20.60058 -20.49415  -1.38818  -1.27815  -0.77071
 Alpha  occ. eigenvalues --   -0.68977  -0.59492  -0.55245  -0.49870  -0.44806
 Alpha virt. eigenvalues --    0.11545   0.18008   0.19614   0.34093   0.47872
 Alpha virt. eigenvalues --    0.53035   0.58314   0.68113   0.70777   0.72023
 Alpha virt. eigenvalues --    0.74668   0.76545   0.78528   0.83843   0.84444

 Mulliken charges:
               1
     1  O   -0.617727
     2  H    0.293539
     3  H    0.242743
     4  O   -0.407827
     5  H    0.257771
     6  H    0.231501
 Sum of Mulliken charges =  -0.00000

 Dipole moment (field-independent basis, Debye):
    X=             -0.4516    Y=              3.8653    Z=              0.0000  Tot=              3.8916
 Quadrupole moment (field-independent basis, Debye-Ang):
   XX=             -9.5875   YY=             -9.3970   ZZ=            -14.6562
   XY=              3.4167   XZ=              0.0000   YZ=              0.0000

 Normal termination of Gaussian 16 at Fri Aug 26 18:40:17 2022.
