 Gaussian 16, Revision A.03,
 Gaussian 16:  ES64L-G16RevA.03 25-Dec-2016

 ------------------
 #p CCSD(T)/cc-pVTZ
 ------------------

 -----------
 H2O_H2O_447
 -----------
 Symbolic Z-matrix:
 Charge =  0 Multiplicity = 1

                         Standard orientation:
 ---------------------------------------------------------------------
 Center     Atomic      Atomic             Coordinates (Angstroms)
 Number     Number       Type             X           Y           Z
 ---------------------------------------------------------------------
      1          8           0       -0.020071    1.275001    0.000000
      2          1           0       -0.014865    0.292414    0.000000
      3          1           0        0.907721    1.598587    0.000000
      4          8           0       -0.020071   -1.107998    0.000000
      5          1           0       -0.993573   -1.241412    0.000000
      6          1           0        0.421849   -1.985616    0.000000
 ---------------------------------------------------------------------

 SCF Done:  E(RHF) =  -152.094114781     A.U. after   11 cycles
 E2 =    -0.5323974058D+00 EUMP2 =    -0.15262651218716D+03
 CCSD(T)
 CCSD(T)= -0.15265279267D+03

 The electronic state is 1-A'.
 Alpha  occ. eigenvalues --  -20.60303 -20.48653  -1.39195  -1.27246  -0.76970
 Alpha  occ. eigenvalues --   -0.70165  -0.58830  -0.55584  -0.49094  -0.44191
 Alpha virt. eigenvalues --    0.11374   0.17862   0.19761   0.34039   0.47557
 Alpha virt. eigenvalues --    0.53196   0.58960   0.68379   0.70565   0.72114
 Alpha virt. eigenvalues --    0.74891   0.76974   0.78898   0.83847   0.84413

 Mulliken charges:
               1
     1  O   -0.625291
     2  H    0.297466
     3  H    0.237056
     4  O   -0.403802
     5  H    0.259896
     6  H    0.234674
 Sum of Mulliken charges =  -0.00000

 Dipole moment (field-independent basis, Debye):
    X=              0.6474    Y=             -4.1113    Z=              0.0000  Tot=              4.1619
 Quadrupole moment (field-independent basis, Debye-Ang):
   XX=             -9.3884   YY=             -9.4743   ZZ=            -14.6523
   XY=              3.2183   XZ=              0.0000   YZ=              0.0000

 Normal termination of Gaussian 16 at Fri Aug 26 18:19:34 2022.
