 Gaussian 16, Revision A.03,
 Gaussian 16:  ES64L-G16RevA.03 25-Dec-2016

 ------------------
 #p CCSD(T)/cc-pVTZ
 ------------------

 -----------
 H2O_H2O_422
 -----------
 Symbolic Z-matrix:
 Charge =  0 Multiplicity = 1

                         Standard orientation:
 ---------------------------------------------------------------------
 Center     Atomic      Atomic             Coordinates (Angstroms)
 Number     Number       Type             X           Y           Z
 ---------------------------------------------------------------------
      1          8           0       -0.020074    1.265028    0.000000
      2          1           0       -0.014825    0.282441    0.000000
      3          1           0        0.907703    1.588656    0.000000
      4          8           0       -0.020074   -1.098027    0.000000
      5          1           0       -0.993571   -1.231484    0.000000
      6          1           0        0.421883   -1.975625    0.000000
 ---------------------------------------------------------------------

 SCF Done:  E(RHF) =  -152.092129326     A.U. after   11 cycles
 E2 =    -0.5326310927D+00 EUMP2 =    -0.15262476041820D+03
 CCSD(T)
 CCSD(T)= -0.15265099840D+03

 The electronic state is 1-A'.
 Alpha  occ. eigenvalues --  -20.60393 -20.48436  -1.39409  -1.27102  -0.77202
 Alpha  occ. eigenvalues --   -0.70379  -0.58678  -0.55733  -0.48863  -0.44032
 Alpha virt. eigenvalues --    0.11333   0.17814   0.19828   0.34052   0.47530
 Alpha virt. eigenvalues --    0.53109   0.59089   0.68419   0.70850   0.72090
 Alpha virt. eigenvalues --    0.75153   0.77010   0.78755   0.83859   0.84472

 Mulliken charges:
               1
     1  O   -0.628284
     2  H    0.296741
     3  H    0.236222
     4  O   -0.398975
     5  H    0.260005
     6  H    0.234291
 Sum of Mulliken charges =  -0.00000

 Dipole moment (field-independent basis, Debye):
    X=              0.6454    Y=             -4.1484    Z=              0.0000  Tot=              4.1983
 Quadrupole moment (field-independent basis, Debye-Ang):
   XX=             -9.3849   YY=             -9.5114   ZZ=            -14.6472
   XY=              3.1905   XZ=              0.0000   YZ=              0.0000

 Normal termination of Gaussian 16 at Fri Aug 26 18:09:29 2022.
