 Gaussian 16, Revision A.03,
 Gaussian 16:  ES64L-G16RevA.03 25-Dec-2016

 ------------------
 #p CCSD(T)/cc-pVTZ
 ------------------

 ------------
 H2O_H2O_4718
 ------------
 Symbolic Z-matrix:
 Charge =  0 Multiplicity = 1

                         Standard orientation:
 ---------------------------------------------------------------------
 Center     Atomic      Atomic             Coordinates (Angstroms)
 Number     Number       Type             X           Y           Z
 ---------------------------------------------------------------------
      1          8           0        0.033747    2.985916    0.000000
      2          1           0        0.032013    2.003316    0.000000
      3          1           0       -0.895183    3.306222    0.000000
      4          8           0        0.033747   -2.808360   -0.000000
      5          1           0        0.940888   -3.185986   -0.000000
      6          1           0       -0.617663   -3.544003   -0.000000
 ---------------------------------------------------------------------

 SCF Done:  E(RHF) =  -152.108375882     A.U. after   10 cycles
 E2 =    -0.5258006850D+00 EUMP2 =    -0.15263417656717D+03
 CCSD(T)
 CCSD(T)= -0.15266137594D+03

 The electronic state is 1-A'.
 Alpha  occ. eigenvalues --  -20.56146 -20.55001  -1.33448  -1.32308  -0.70852
 Alpha  occ. eigenvalues --   -0.69712  -0.56939  -0.55779  -0.50566  -0.49431
 Alpha virt. eigenvalues --    0.13452   0.14849   0.19702   0.20982   0.53671
 Alpha virt. eigenvalues --    0.54833   0.56699   0.57783   0.66949   0.68612
 Alpha virt. eigenvalues --    0.78318   0.79427   0.79681   0.80415   0.82441

 Mulliken charges:
               1
     1  O   -0.513901
     2  H    0.259860
     3  H    0.253971
     4  O   -0.514507
     5  H    0.257610
     6  H    0.256966
 Sum of Mulliken charges =  -0.00000

 Dipole moment (field-independent basis, Debye):
    X=             -1.1583    Y=             -3.1110    Z=             -0.0000  Tot=              3.3196
 Quadrupole moment (field-independent basis, Debye-Ang):
   XX=             -9.1870   YY=             -6.2420   ZZ=            -14.7147
   XY=             -6.6255   XZ=             -0.0000   YZ=             -0.0000

 Normal termination of Gaussian 16 at Sun Aug 28 05:21:08 2022.
