 Gaussian 16, Revision A.03,
 Gaussian 16:  ES64L-G16RevA.03 25-Dec-2016

 ------------------
 #p CCSD(T)/cc-pVTZ
 ------------------

 -----------
 H2O_H2O_541
 -----------
 Symbolic Z-matrix:
 Charge =  0 Multiplicity = 1

                         Standard orientation:
 ---------------------------------------------------------------------
 Center     Atomic      Atomic             Coordinates (Angstroms)
 Number     Number       Type             X           Y           Z
 ---------------------------------------------------------------------
      1          8           0        0.041290    1.321827    0.000000
      2          1           0        0.037720    0.339232    0.000000
      3          1           0       -0.887040    1.643868   -0.000000
      4          8           0        0.041290   -1.142039    0.000000
      5          1           0        0.890457   -1.636428    0.000000
      6          1           0       -0.701771   -1.784975   -0.000000
 ---------------------------------------------------------------------

 SCF Done:  E(RHF) =  -152.102229429     A.U. after   11 cycles
 E2 =    -0.5313590418D+00 EUMP2 =    -0.15263358847065D+03
 CCSD(T)
 CCSD(T)= -0.15266000090D+03

 The electronic state is 1-A'.
 Alpha  occ. eigenvalues --  -20.60103 -20.48947  -1.38465  -1.27370  -0.75161
 Alpha  occ. eigenvalues --   -0.70854  -0.58692  -0.55153  -0.49509  -0.44330
 Alpha virt. eigenvalues --    0.11339   0.17752   0.19692   0.33604   0.47361
 Alpha virt. eigenvalues --    0.53721   0.60295   0.64645   0.69614   0.72291
 Alpha virt. eigenvalues --    0.73696   0.78569   0.81180   0.82750   0.84028

 Mulliken charges:
               1
     1  O   -0.613609
     2  H    0.312900
     3  H    0.229759
     4  O   -0.441103
     5  H    0.261959
     6  H    0.250093
 Sum of Mulliken charges =  -0.00000

 Dipole moment (field-independent basis, Debye):
    X=             -1.3244    Y=             -4.2561    Z=             -0.0000  Tot=              4.4574
 Quadrupole moment (field-independent basis, Debye-Ang):
   XX=             -9.1228   YY=             -9.3824   ZZ=            -14.6801
   XY=             -3.1011   XZ=             -0.0000   YZ=             -0.0000

 Normal termination of Gaussian 16 at Fri Aug 26 18:56:15 2022.
