 Gaussian 16, Revision A.03,
 Gaussian 16:  ES64L-G16RevA.03 25-Dec-2016

 ------------------
 #p CCSD(T)/cc-pVTZ
 ------------------

 ------------
 H2O_H2O_1670
 ------------
 Symbolic Z-matrix:
 Charge =  0 Multiplicity = 1

                         Standard orientation:
 ---------------------------------------------------------------------
 Center     Atomic      Atomic             Coordinates (Angstroms)
 Number     Number       Type             X           Y           Z
 ---------------------------------------------------------------------
      1          8           0        0.026733    1.766971    0.000000
      2          1           0        0.023385    0.784375    0.000000
      3          1           0       -0.901669    2.088803    0.000000
      4          8           0        0.026733   -1.593792    0.000000
      5          1           0        0.974982   -1.851341    0.000000
      6          1           0       -0.524422   -2.407264    0.000000
 ---------------------------------------------------------------------

 SCF Done:  E(RHF) =  -152.113330033     A.U. after   10 cycles
 E2 =    -0.5267859780D+00 EUMP2 =    -0.15264011601107D+03
 CCSD(T)
 CCSD(T)= -0.15266714285D+03

 The electronic state is 1-A'.
 Alpha  occ. eigenvalues --  -20.57692 -20.53339  -1.34969  -1.30744  -0.72363
 Alpha  occ. eigenvalues --   -0.68264  -0.58757  -0.54143  -0.52102  -0.47902
 Alpha virt. eigenvalues --    0.12183   0.17438   0.19049   0.27999   0.51180
 Alpha virt. eigenvalues --    0.54305   0.56026   0.59754   0.68990   0.72985
 Alpha virt. eigenvalues --    0.74968   0.77357   0.81144   0.83161   0.84467

 Mulliken charges:
               1
     1  O   -0.538685
     2  H    0.272692
     3  H    0.251042
     4  O   -0.506870
     5  H    0.263545
     6  H    0.258276
 Sum of Mulliken charges =  -0.00000

 Dipole moment (field-independent basis, Debye):
    X=             -0.9039    Y=             -3.3408    Z=              0.0000  Tot=              3.4609
 Quadrupole moment (field-independent basis, Debye-Ang):
   XX=             -9.2894   YY=             -8.2329   ZZ=            -14.7328
   XY=             -4.3036   XZ=              0.0000   YZ=              0.0000

 4972\MP4DQ=-152.6488925\MP4SDQ=-152.6519874\CCSD=-152.6513721\CCSD(T)=
 Normal termination of Gaussian 16 at Sun Aug 28 00:28:07 2022.
