 Gaussian 16, Revision A.03,
 Gaussian 16:  ES64L-G16RevA.03 25-Dec-2016

 ------------------
 #p CCSD(T)/cc-pVTZ
 ------------------

 ------------
 H2O_H2O_4385
 ------------
 Symbolic Z-matrix:
 Charge =  0 Multiplicity = 1

                         Standard orientation:
 ---------------------------------------------------------------------
 Center     Atomic      Atomic             Coordinates (Angstroms)
 Number     Number       Type             X           Y           Z
 ---------------------------------------------------------------------
      1          8           0        0.063218    2.855179   -0.000000
      2          1           0        0.062307    1.872578   -0.000000
      3          1           0       -0.865979    3.174708   -0.000000
      4          8           0        0.063218   -2.679645    0.000000
      5          1           0        0.660664   -3.459751    0.000000
      6          1           0       -0.868480   -2.991806    0.000000
 ---------------------------------------------------------------------

 SCF Done:  E(RHF) =  -152.108327103     A.U. after   10 cycles
 E2 =    -0.5258246429D+00 EUMP2 =    -0.15263415174602D+03
 CCSD(T)
 CCSD(T)= -0.15266134978D+03

 The electronic state is 1-A'.
 Alpha  occ. eigenvalues --  -20.56212 -20.54965  -1.33513  -1.32272  -0.70919
 Alpha  occ. eigenvalues --   -0.69670  -0.57002  -0.55739  -0.50631  -0.49393
 Alpha virt. eigenvalues --    0.13247   0.14948   0.19618   0.21103   0.53557
 Alpha virt. eigenvalues --    0.54877   0.56625   0.57793   0.66791   0.68803
 Alpha virt. eigenvalues --    0.78258   0.79464   0.79469   0.80278   0.82682

 Mulliken charges:
               1
     1  O   -0.513177
     2  H    0.260385
     3  H    0.252624
     4  O   -0.514060
     5  H    0.258686
     6  H    0.255542
 Sum of Mulliken charges =  -0.00000

 Dipole moment (field-independent basis, Debye):
    X=             -2.1672    Y=             -3.0847    Z=              0.0000  Tot=              3.7699
 Quadrupole moment (field-independent basis, Debye-Ang):
   XX=             -9.4539   YY=             -6.5679   ZZ=            -14.7145
   XY=             -4.6197   XZ=              0.0000   YZ=             -0.0000

 Normal termination of Gaussian 16 at Sun Aug 28 02:24:50 2022.
