 Gaussian 16, Revision A.03,
 Gaussian 16:  ES64L-G16RevA.03 25-Dec-2016

 ------------------
 #p CCSD(T)/cc-pVTZ
 ------------------

 ------------
 H2O_H2O_1476
 ------------
 Symbolic Z-matrix:
 Charge =  0 Multiplicity = 1

                         Standard orientation:
 ---------------------------------------------------------------------
 Center     Atomic      Atomic             Coordinates (Angstroms)
 Number     Number       Type             X           Y           Z
 ---------------------------------------------------------------------
      1          8           0        0.090687   -1.678429    0.000000
      2          1           0        0.090568   -0.695827    0.000000
      3          1           0       -0.838767   -1.997208    0.000000
      4          8           0        0.090687    1.539727    0.000000
      5          1           0        0.154834    2.520232    0.000000
      6          1           0       -0.857626    1.282418    0.000000
 ---------------------------------------------------------------------

 SCF Done:  E(RHF) =  -152.109371378     A.U. after   10 cycles
 E2 =    -0.5276705274D+00 EUMP2 =    -0.15263704190551D+03
 CCSD(T)
 CCSD(T)= -0.15266412243D+03

 The electronic state is 1-A'.
 Alpha  occ. eigenvalues --  -20.57899 -20.54259  -1.35265  -1.31624  -0.72999
 Alpha  occ. eigenvalues --   -0.68874  -0.58772  -0.54980  -0.52319  -0.48724
 Alpha virt. eigenvalues --    0.11519   0.16363   0.20361   0.27985   0.49798
 Alpha virt. eigenvalues --    0.54441   0.57687   0.58213   0.68040   0.73726
 Alpha virt. eigenvalues --    0.74449   0.77825   0.80648   0.81896   0.83390

 Mulliken charges:
               1
     1  O   -0.522807
     2  H    0.273359
     3  H    0.239318
     4  O   -0.481482
     5  H    0.249252
     6  H    0.242360
 Sum of Mulliken charges =  -0.00000

 Dipole moment (field-independent basis, Debye):
    X=             -3.0274    Y=              2.7116    Z=              0.0000  Tot=              4.0642
 Quadrupole moment (field-independent basis, Debye-Ang):
   XX=            -10.7514   YY=             -9.0012   ZZ=            -14.7119
   XY=              2.2873   XZ=              0.0000   YZ=              0.0000

 CCSD(T)=-152.6641224\RMSD=7.373e-09\PG=CS [SG(H4O2)]\\@
 Normal termination of Gaussian 16 at Sat Aug 27 00:49:04 2022.
