 Gaussian 16, Revision A.03,
 Gaussian 16:  ES64L-G16RevA.03 25-Dec-2016

 ------------------
 #p CCSD(T)/cc-pVTZ
 ------------------

 -----------
 H2O_H2O_202
 -----------
 Symbolic Z-matrix:
 Charge =  0 Multiplicity = 1

                         Standard orientation:
 ---------------------------------------------------------------------
 Center     Atomic      Atomic             Coordinates (Angstroms)
 Number     Number       Type             X           Y           Z
 ---------------------------------------------------------------------
      1          8           0        0.088245   -1.172895    0.000000
      2          1           0        0.087882   -0.190293    0.000000
      3          1           0       -0.841130   -1.491905    0.000000
      4          8           0        0.088245    1.028609    0.000000
      5          1           0        0.216140    2.002851    0.000000
      6          1           0       -0.874819    0.833634    0.000000
 ---------------------------------------------------------------------

 SCF Done:  E(RHF) =  -152.057022917     A.U. after   11 cycles
 E2 =    -0.5369521402D+00 EUMP2 =    -0.15259397505753D+03
 CCSD(T)
 CCSD(T)= -0.15261986649D+03

 The electronic state is 1-A'.
 Alpha  occ. eigenvalues --  -20.61142 -20.48327  -1.42109  -1.27294  -0.81502
 Alpha  occ. eigenvalues --   -0.70212  -0.57443  -0.57107  -0.49026  -0.44130
 Alpha virt. eigenvalues --    0.10818   0.16051   0.21475   0.32067   0.49315
 Alpha virt. eigenvalues --    0.51169   0.59723   0.66241   0.71396   0.72769
 Alpha virt. eigenvalues --    0.75761   0.77446   0.79711   0.83926   0.85764

 Mulliken charges:
               1
     1  O   -0.595179
     2  H    0.269828
     3  H    0.196643
     4  O   -0.333004
     5  H    0.227020
     6  H    0.234691
 Sum of Mulliken charges =  -0.00000

 Dipole moment (field-independent basis, Debye):
    X=             -2.7605    Y=              3.9415    Z=              0.0000  Tot=              4.8121
 Quadrupole moment (field-independent basis, Debye-Ang):
   XX=            -10.5328   YY=             -9.7746   ZZ=            -14.5592
   XY=              2.1913   XZ=              0.0000   YZ=              0.0000

 Normal termination of Gaussian 16 at Fri Aug 26 16:34:15 2022.
