 Gaussian 16, Revision A.03,
 Gaussian 16:  ES64L-G16RevA.03 25-Dec-2016

 ------------------
 #p CCSD(T)/cc-pVTZ
 ------------------

 ------------
 H2O_H2O_3247
 ------------
 Symbolic Z-matrix:
 Charge =  0 Multiplicity = 1

                         Standard orientation:
 ---------------------------------------------------------------------
 Center     Atomic      Atomic             Coordinates (Angstroms)
 Number     Number       Type             X           Y           Z
 ---------------------------------------------------------------------
      1          8           0       -0.019857    2.391901    0.000000
      2          1           0       -0.017170    1.409303    0.000000
      3          1           0        0.908761    2.713108    0.000000
      4          8           0       -0.019857   -2.224795    0.000000
      5          1           0       -0.993698   -2.355714    0.000000
      6          1           0        0.419812   -3.103543    0.000000
 ---------------------------------------------------------------------

 SCF Done:  E(RHF) =  -152.109502059     A.U. after   10 cycles
 E2 =    -0.5258765336D+00 EUMP2 =    -0.15263537859222D+03
 CCSD(T)
 CCSD(T)= -0.15266253617D+03

 The electronic state is 1-A'.
 Alpha  occ. eigenvalues --  -20.56521 -20.54683  -1.33811  -1.32000  -0.71217
 Alpha  occ. eigenvalues --   -0.69405  -0.57341  -0.55488  -0.50937  -0.49134
 Alpha virt. eigenvalues --    0.12452   0.15717   0.19313   0.22509   0.53456
 Alpha virt. eigenvalues --    0.55443   0.56491   0.58122   0.67463   0.69331
 Alpha virt. eigenvalues --    0.77963   0.78714   0.79703   0.80402   0.83049

 Mulliken charges:
               1
     1  O   -0.518585
     2  H    0.262419
     3  H    0.254372
     4  O   -0.515718
     5  H    0.258671
     6  H    0.258842
 Sum of Mulliken charges =  -0.00000

 Dipole moment (field-independent basis, Debye):
    X=              0.6806    Y=             -2.9873    Z=              0.0000  Tot=              3.0638
 Quadrupole moment (field-independent basis, Debye-Ang):
   XX=             -9.4466   YY=             -7.5593   ZZ=            -14.7185
   XY=              6.0928   XZ=              0.0000   YZ=              0.0000

 Normal termination of Gaussian 16 at Fri Aug 26 20:37:13 2022.
