 Gaussian 16, Revision A.03,
 Gaussian 16:  ES64L-G16RevA.03 25-Dec-2016

 ------------------
 #p CCSD(T)/cc-pVTZ
 ------------------

 ------------
 H2O_H2O_3739
 ------------
 Symbolic Z-matrix:
 Charge =  0 Multiplicity = 1

                         Standard orientation:
 ---------------------------------------------------------------------
 Center     Atomic      Atomic             Coordinates (Angstroms)
 Number     Number       Type             X           Y           Z
 ---------------------------------------------------------------------
      1          8           0        0.048568    2.598557    0.000000
      2          1           0        0.047066    1.615957    0.000000
      3          1           0       -0.880437    2.918644    0.000000
      4          8           0        0.048568   -2.418152   -0.000000
      5          1           0        0.827203   -3.017513   -0.000000
      6          1           0       -0.770917   -2.960325   -0.000000
 ---------------------------------------------------------------------

 SCF Done:  E(RHF) =  -152.108948173     A.U. after   10 cycles
 E2 =    -0.5258381554D+00 EUMP2 =    -0.15263478632882D+03
 CCSD(T)
 CCSD(T)= -0.15266196327D+03

 The electronic state is 1-A'.
 Alpha  occ. eigenvalues --  -20.56365 -20.54734  -1.33659  -1.32047  -0.71062
 Alpha  occ. eigenvalues --   -0.69444  -0.57171  -0.55525  -0.50782  -0.49174
 Alpha virt. eigenvalues --    0.12917   0.15363   0.19602   0.21532   0.53490
 Alpha virt. eigenvalues --    0.54978   0.56534   0.57903   0.66771   0.69245
 Alpha virt. eigenvalues --    0.78118   0.79274   0.79522   0.79669   0.82967

 Mulliken charges:
               1
     1  O   -0.515766
     2  H    0.262304
     3  H    0.252638
     4  O   -0.515603
     5  H    0.259431
     6  H    0.256996
 Sum of Mulliken charges =   0.00000

 Dipole moment (field-independent basis, Debye):
    X=             -1.6616    Y=             -3.1971    Z=             -0.0000  Tot=              3.6031
 Quadrupole moment (field-independent basis, Debye-Ang):
   XX=             -9.1822   YY=             -6.7092   ZZ=            -14.7167
   XY=             -5.1011   XZ=             -0.0000   YZ=              0.0000

 Normal termination of Gaussian 16 at Fri Aug 26 23:24:19 2022.
