 Gaussian 16, Revision A.03,
 Gaussian 16:  ES64L-G16RevA.03 25-Dec-2016

 ------------------
 #p CCSD(T)/cc-pVTZ
 ------------------

 ---------
 H2O_H2O_8
 ---------
 Symbolic Z-matrix:
 Charge =  0 Multiplicity = 1

                         Standard orientation:
 ---------------------------------------------------------------------
 Center     Atomic      Atomic             Coordinates (Angstroms)
 Number     Number       Type             X           Y           Z
 ---------------------------------------------------------------------
      1          8           0        0.070288    1.107146    0.000000
      2          1           0        0.068399    0.124547    0.000000
      3          1           0       -0.858591    1.427599    0.000000
      4          8           0        0.070288   -0.937050   -0.000000
      5          1           0        0.559952   -1.788950   -0.000000
      6          1           0       -0.894371   -1.123968   -0.000000
 ---------------------------------------------------------------------

 SCF Done:  E(RHF) =  -152.022933776     A.U. after   11 cycles
 E2 =    -0.5375961217D+00 EUMP2 =    -0.15256052989789D+03
 CCSD(T)
 CCSD(T)= -0.15258595074D+03

 The electronic state is 1-A'.
 Alpha  occ. eigenvalues --  -20.62247 -20.44241  -1.44973  -1.24614  -0.82528
 Alpha  occ. eigenvalues --   -0.75882  -0.59118  -0.54249  -0.44467  -0.41087
 Alpha virt. eigenvalues --    0.10224   0.15818   0.21670   0.31887   0.48990
 Alpha virt. eigenvalues --    0.51381   0.60476   0.64245   0.70152   0.71519
 Alpha virt. eigenvalues --    0.77360   0.79376   0.81962   0.84292   0.88637

 Mulliken charges:
               1
     1  O   -0.659168
     2  H    0.267980
     3  H    0.188857
     4  O   -0.272860
     5  H    0.232316
     6  H    0.242874
 Sum of Mulliken charges =  -0.00000

 Dipole moment (field-independent basis, Debye):
    X=             -2.1134    Y=             -4.9353    Z=             -0.0000  Tot=              5.3688
 Quadrupole moment (field-independent basis, Debye-Ang):
   XX=             -9.6330   YY=            -10.2285   ZZ=            -14.5170
   XY=             -2.5399   XZ=             -0.0000   YZ=             -0.0000

 Normal termination of Gaussian 16 at Fri Aug 26 15:14:28 2022.
