 Gaussian 16, Revision A.03,
 Gaussian 16:  ES64L-G16RevA.03 25-Dec-2016

 ------------------
 #p CCSD(T)/cc-pVTZ
 ------------------

 ------------
 H2O_H2O_3089
 ------------
 Symbolic Z-matrix:
 Charge =  0 Multiplicity = 1

                         Standard orientation:
 ---------------------------------------------------------------------
 Center     Atomic      Atomic             Coordinates (Angstroms)
 Number     Number       Type             X           Y           Z
 ---------------------------------------------------------------------
      1          8           0        0.048584    2.339279    0.000000
      2          1           0        0.046909    1.356679    0.000000
      3          1           0       -0.880365    2.659529   -0.000000
      4          8           0        0.048584   -2.158891    0.000000
      5          1           0        0.827113   -2.758389    0.000000
      6          1           0       -0.770997   -2.700920   -0.000000
 ---------------------------------------------------------------------

 SCF Done:  E(RHF) =  -152.109739384     A.U. after   10 cycles
 E2 =    -0.5259221386D+00 EUMP2 =    -0.15263566152258D+03
 CCSD(T)
 CCSD(T)= -0.15266280811D+03

 The electronic state is 1-A'.
 Alpha  occ. eigenvalues --  -20.56610 -20.54474  -1.33890  -1.31793  -0.71291
 Alpha  occ. eigenvalues --   -0.69187  -0.57430  -0.55279  -0.51019  -0.48927
 Alpha virt. eigenvalues --    0.12547   0.15869   0.19479   0.22488   0.53224
 Alpha virt. eigenvalues --    0.55376   0.56371   0.58464   0.68001   0.69342
 Alpha virt. eigenvalues --    0.77881   0.79146   0.79265   0.79902   0.83216

 Mulliken charges:
               1
     1  O   -0.518561
     2  H    0.264201
     3  H    0.251718
     4  O   -0.514462
     5  H    0.260099
     6  H    0.257004
 Sum of Mulliken charges =   0.00000

 Dipole moment (field-independent basis, Debye):
    X=             -1.6571    Y=             -3.2418    Z=             -0.0000  Tot=              3.6408
 Quadrupole moment (field-independent basis, Debye-Ang):
   XX=             -9.1828   YY=             -7.1265   ZZ=            -14.7194
   XY=             -4.7023   XZ=              0.0000   YZ=             -0.0000

 Normal termination of Gaussian 16 at Fri Aug 26 19:42:31 2022.
