 Gaussian 16, Revision A.03,
 Gaussian 16:  ES64L-G16RevA.03 25-Dec-2016

 ------------------
 #p CCSD(T)/cc-pVTZ
 ------------------

 ------------
 H2O_H2O_3305
 ------------
 Symbolic Z-matrix:
 Charge =  0 Multiplicity = 1

                         Standard orientation:
 ---------------------------------------------------------------------
 Center     Atomic      Atomic             Coordinates (Angstroms)
 Number     Number       Type             X           Y           Z
 ---------------------------------------------------------------------
      1          8           0        0.079851    2.417440    0.000000
      2          1           0        0.079375    1.434838    0.000000
      3          1           0       -0.849488    2.736556   -0.000000
      4          8           0        0.079851   -2.258376    0.000000
      5          1           0        0.395248   -3.188984    0.000000
      6          1           0       -0.902745   -2.254921   -0.000000
 ---------------------------------------------------------------------

 SCF Done:  E(RHF) =  -152.108639598     A.U. after   10 cycles
 E2 =    -0.5259496341D+00 EUMP2 =    -0.15263458923203D+03
 CCSD(T)
 CCSD(T)= -0.15266176471D+03

 The electronic state is 1-A'.
 Alpha  occ. eigenvalues --  -20.56522 -20.54867  -1.33814  -1.32177  -0.71230
 Alpha  occ. eigenvalues --   -0.69564  -0.57307  -0.55642  -0.50931  -0.49298
 Alpha virt. eigenvalues --    0.12203   0.15519   0.19353   0.22264   0.53567
 Alpha virt. eigenvalues --    0.55050   0.56403   0.58196   0.67277   0.69207
 Alpha virt. eigenvalues --    0.77975   0.78630   0.79555   0.80683   0.82797

 Mulliken charges:
               1
     1  O   -0.513205
     2  H    0.261400
     3  H    0.250407
     4  O   -0.512011
     5  H    0.259903
     6  H    0.253505
 Sum of Mulliken charges =  -0.00000

 Dipole moment (field-independent basis, Debye):
    X=             -2.7253    Y=             -2.8392    Z=             -0.0000  Tot=              3.9355
 Quadrupole moment (field-independent basis, Debye-Ang):
   XX=            -10.1005   YY=             -7.9103   ZZ=            -14.7154
   XY=             -3.2346   XZ=              0.0000   YZ=             -0.0000

 Normal termination of Gaussian 16 at Fri Aug 26 20:56:32 2022.
