 Gaussian 16, Revision A.03,
 Gaussian 16:  ES64L-G16RevA.03 25-Dec-2016

 ------------------
 #p CCSD(T)/cc-pVTZ
 ------------------

 ------------
 H2O_H2O_4580
 ------------
 Symbolic Z-matrix:
 Charge =  0 Multiplicity = 1

                         Standard orientation:
 ---------------------------------------------------------------------
 Center     Atomic      Atomic             Coordinates (Angstroms)
 Number     Number       Type             X           Y           Z
 ---------------------------------------------------------------------
      1          8           0        0.079844    2.926015   -0.000000
      2          1           0        0.079453    1.943414   -0.000000
      3          1           0       -0.849523    3.245051   -0.000000
      4          8           0        0.079844   -2.766938    0.000000
      5          1           0        0.395322   -3.697518    0.000000
      6          1           0       -0.902752   -2.763567    0.000000
 ---------------------------------------------------------------------

 SCF Done:  E(RHF) =  -152.107966943     A.U. after   10 cycles
 E2 =    -0.5258450135D+00 EUMP2 =    -0.15263381195652D+03
 CCSD(T)
 CCSD(T)= -0.15266101906D+03

 The electronic state is 1-A'.
 Alpha  occ. eigenvalues --  -20.56185 -20.55145  -1.33487  -1.32449  -0.70898
 Alpha  occ. eigenvalues --   -0.69846  -0.56960  -0.55908  -0.50601  -0.49566
 Alpha virt. eigenvalues --    0.13172   0.14774   0.19383   0.21159   0.53440
 Alpha virt. eigenvalues --    0.54841   0.56612   0.57723   0.66921   0.68566
 Alpha virt. eigenvalues --    0.78287   0.79300   0.79552   0.80799   0.82184

 Mulliken charges:
               1
     1  O   -0.511325
     2  H    0.258881
     3  H    0.252367
     4  O   -0.512301
     5  H    0.258348
     6  H    0.254030
 Sum of Mulliken charges =  -0.00000

 Dipole moment (field-independent basis, Debye):
    X=             -2.7385    Y=             -2.7901    Z=              0.0000  Tot=              3.9095
 Quadrupole moment (field-independent basis, Debye-Ang):
   XX=            -10.0936   YY=             -7.4782   ZZ=            -14.7131
   XY=             -3.4700   XZ=              0.0000   YZ=              0.0000

 Normal termination of Gaussian 16 at Sun Aug 28 04:07:16 2022.
