 Gaussian 16, Revision A.03,
 Gaussian 16:  ES64L-G16RevA.03 25-Dec-2016

 ------------------
 #p CCSD(T)/cc-pVTZ
 ------------------

 ------------
 H2O_H2O_1063
 ------------
 Symbolic Z-matrix:
 Charge =  0 Multiplicity = 1

                         Standard orientation:
 ---------------------------------------------------------------------
 Center     Atomic      Atomic             Coordinates (Angstroms)
 Number     Number       Type             X           Y           Z
 ---------------------------------------------------------------------
      1          8           0        0.052378    1.531237    0.000000
      2          1           0        0.049984    0.548639    0.000000
      3          1           0       -0.876336    1.852167    0.000000
      4          8           0        0.052378   -1.351439   -0.000000
      5          1           0        0.789556   -2.001111   -0.000000
      6          1           0       -0.801255   -1.838079   -0.000000
 ---------------------------------------------------------------------

 SCF Done:  E(RHF) =  -152.113540389     A.U. after   10 cycles
 E2 =    -0.5284323029D+00 EUMP2 =    -0.15264197269160D+03
 CCSD(T)
 CCSD(T)= -0.15266884229D+03

 The electronic state is 1-A'.
 Alpha  occ. eigenvalues --  -20.58717 -20.51799  -1.36174  -1.29448  -0.73400
 Alpha  occ. eigenvalues --   -0.68046  -0.59672  -0.53243  -0.52516  -0.46562
 Alpha virt. eigenvalues --    0.11819   0.17839   0.19072   0.31608   0.48492
 Alpha virt. eigenvalues --    0.54717   0.57020   0.60368   0.69584   0.71569
 Alpha virt. eigenvalues --    0.72870   0.77247   0.82445   0.82496   0.84857

 Mulliken charges:
               1
     1  O   -0.562652
     2  H    0.295568
     3  H    0.239529
     4  O   -0.494441
     5  H    0.264641
     6  H    0.257355
 Sum of Mulliken charges =  -0.00000

 Dipole moment (field-independent basis, Debye):
    X=             -1.7311    Y=             -3.7459    Z=             -0.0000  Tot=              4.1266
 Quadrupole moment (field-independent basis, Debye-Ang):
   XX=             -9.2303   YY=             -8.6961   ZZ=            -14.7279
   XY=             -3.3871   XZ=             -0.0000   YZ=              0.0000

 Normal termination of Gaussian 16 at Fri Aug 26 22:14:04 2022.
