 Gaussian 16, Revision A.03,
 Gaussian 16:  ES64L-G16RevA.03 25-Dec-2016

 ------------------
 #p CCSD(T)/cc-pVTZ
 ------------------

 ------------
 H2O_H2O_1412
 ------------
 Symbolic Z-matrix:
 Charge =  0 Multiplicity = 1

                         Standard orientation:
 ---------------------------------------------------------------------
 Center     Atomic      Atomic             Coordinates (Angstroms)
 Number     Number       Type             X           Y           Z
 ---------------------------------------------------------------------
      1          8           0        0.056044    1.670321    0.000000
      2          1           0        0.054060    0.687722    0.000000
      3          1           0       -0.872803    1.990864    0.000000
      4          8           0        0.056044   -1.491482   -0.000000
      5          1           0        0.749444   -2.187688   -0.000000
      6          1           0       -0.827408   -1.921618   -0.000000
 ---------------------------------------------------------------------

 SCF Done:  E(RHF) =  -152.113727946     A.U. after   10 cycles
 E2 =    -0.5273744266D+00 EUMP2 =    -0.15264110237252D+03
 CCSD(T)
 CCSD(T)= -0.15266808623D+03

 The electronic state is 1-A'.
 Alpha  occ. eigenvalues --  -20.58089 -20.52812  -1.35394  -1.30277  -0.72732
 Alpha  occ. eigenvalues --   -0.68005  -0.59181  -0.53583  -0.52514  -0.47419
 Alpha virt. eigenvalues --    0.11970   0.17503   0.19088   0.29471   0.49414
 Alpha virt. eigenvalues --    0.54881   0.56379   0.59420   0.69412   0.72054
 Alpha virt. eigenvalues --    0.73970   0.76719   0.81659   0.82907   0.84797

 Mulliken charges:
               1
     1  O   -0.542957
     2  H    0.280780
     3  H    0.243373
     4  O   -0.503236
     5  H    0.264370
     6  H    0.257670
 Sum of Mulliken charges =  -0.00000

 Dipole moment (field-independent basis, Debye):
    X=             -1.8732    Y=             -3.5406    Z=             -0.0000  Tot=              4.0056
 Quadrupole moment (field-independent basis, Debye-Ang):
   XX=             -9.2971   YY=             -8.3589   ZZ=            -14.7338
   XY=             -3.5313   XZ=             -0.0000   YZ=             -0.0000

 Normal termination of Gaussian 16 at Sat Aug 27 00:25:38 2022.
