 Gaussian 16, Revision A.03,
 Gaussian 16:  ES64L-G16RevA.03 25-Dec-2016

 ------------------
 #p CCSD(T)/cc-pVTZ
 ------------------

 ------------
 H2O_H2O_4606
 ------------
 Symbolic Z-matrix:
 Charge =  0 Multiplicity = 1

                         Standard orientation:
 ---------------------------------------------------------------------
 Center     Atomic      Atomic             Coordinates (Angstroms)
 Number     Number       Type             X           Y           Z
 ---------------------------------------------------------------------
      1          8           0        0.076748    2.938242    0.000000
      2          1           0        0.076267    1.955640    0.000000
      3          1           0       -0.852589    3.257363    0.000000
      4          8           0        0.076748   -2.775013   -0.000000
      5          1           0        0.452329   -3.683004   -0.000000
      6          1           0       -0.903970   -2.835826   -0.000000
 ---------------------------------------------------------------------

 SCF Done:  E(RHF) =  -152.108021319     A.U. after   10 cycles
 E2 =    -0.5258393272D+00 EUMP2 =    -0.15263386064620D+03
 CCSD(T)
 CCSD(T)= -0.15266106665D+03

 The electronic state is 1-A'.
 Alpha  occ. eigenvalues --  -20.56179 -20.55115  -1.33481  -1.32419  -0.70890
 Alpha  occ. eigenvalues --   -0.69817  -0.56956  -0.55880  -0.50595  -0.49537
 Alpha virt. eigenvalues --    0.13237   0.14781   0.19461   0.21094   0.53488
 Alpha virt. eigenvalues --    0.54838   0.56626   0.57729   0.66928   0.68579
 Alpha virt. eigenvalues --    0.78292   0.79328   0.79556   0.80711   0.82260

 Mulliken charges:
               1
     1  O   -0.511641
     2  H    0.259111
     3  H    0.252453
     4  O   -0.512594
     5  H    0.258337
     6  H    0.254333
 Sum of Mulliken charges =  -0.00000

 Dipole moment (field-independent basis, Debye):
    X=             -2.6325    Y=             -2.8625    Z=             -0.0000  Tot=              3.8889
 Quadrupole moment (field-independent basis, Debye-Ang):
   XX=             -9.9477   YY=             -7.2015   ZZ=            -14.7134
   XY=             -3.7305   XZ=             -0.0000   YZ=              0.0000

 Normal termination of Gaussian 16 at Sun Aug 28 04:17:18 2022.
