 Gaussian 16, Revision A.03,
 Gaussian 16:  ES64L-G16RevA.03 25-Dec-2016

 ------------------
 #p CCSD(T)/cc-pVTZ
 ------------------

 -----------
 H2O_H2O_540
 -----------
 Symbolic Z-matrix:
 Charge =  0 Multiplicity = 1

                         Standard orientation:
 ---------------------------------------------------------------------
 Center     Atomic      Atomic             Coordinates (Angstroms)
 Number     Number       Type             X           Y           Z
 ---------------------------------------------------------------------
      1          8           0        0.044997    1.322083   -0.000000
      2          1           0        0.041683    0.339487   -0.000000
      3          1           0       -0.883416    1.643882   -0.000000
      4          8           0        0.044997   -1.141821    0.000000
      5          1           0        0.860154   -1.690478    0.000000
      6          1           0       -0.738369   -1.734987    0.000000
 ---------------------------------------------------------------------

 SCF Done:  E(RHF) =  -152.102208449     A.U. after   11 cycles
 E2 =    -0.5313844425D+00 EUMP2 =    -0.15263359289165D+03
 CCSD(T)
 CCSD(T)= -0.15266000471D+03

 The electronic state is 1-A'.
 Alpha  occ. eigenvalues --  -20.60114 -20.48950  -1.38472  -1.27372  -0.75114
 Alpha  occ. eigenvalues --   -0.70940  -0.58646  -0.55161  -0.49521  -0.44329
 Alpha virt. eigenvalues --    0.11316   0.17673   0.19740   0.33550   0.47401
 Alpha virt. eigenvalues --    0.53702   0.60649   0.63891   0.69949   0.72290
 Alpha virt. eigenvalues --    0.73662   0.78627   0.81352   0.82554   0.84074

 Mulliken charges:
               1
     1  O   -0.612519
     2  H    0.313869
     3  H    0.228360
     4  O   -0.441707
     5  H    0.261273
     6  H    0.250724
 Sum of Mulliken charges =  -0.00000

 Dipole moment (field-independent basis, Debye):
    X=             -1.4417    Y=             -4.2652    Z=              0.0000  Tot=              4.5023
 Quadrupole moment (field-independent basis, Debye-Ang):
   XX=             -9.1344   YY=             -9.3843   ZZ=            -14.6801
   XY=             -3.0806   XZ=              0.0000   YZ=             -0.0000

 Normal termination of Gaussian 16 at Fri Aug 26 18:55:54 2022.
