 Gaussian 16, Revision A.03,
 Gaussian 16:  ES64L-G16RevA.03 25-Dec-2016

 ------------------
 #p CCSD(T)/cc-pVTZ
 ------------------

 ------------
 H2O_H2O_3592
 ------------
 Symbolic Z-matrix:
 Charge =  0 Multiplicity = 1

                         Standard orientation:
 ---------------------------------------------------------------------
 Center     Atomic      Atomic             Coordinates (Angstroms)
 Number     Number       Type             X           Y           Z
 ---------------------------------------------------------------------
      1          8           0        0.037432    2.537951    0.000000
      2          1           0        0.035508    1.555352    0.000000
      3          1           0       -0.891435    2.858437   -0.000000
      4          8           0        0.037432   -2.358975    0.000000
      5          1           0        0.917848   -2.795293    0.000000
      6          1           0       -0.660831   -3.050304   -0.000000
 ---------------------------------------------------------------------

 SCF Done:  E(RHF) =  -152.109167368     A.U. after   10 cycles
 E2 =    -0.5258412857D+00 EUMP2 =    -0.15263500865416D+03
 CCSD(T)
 CCSD(T)= -0.15266217869D+03

 The electronic state is 1-A'.
 Alpha  occ. eigenvalues --  -20.56407 -20.54689  -1.33699  -1.32003  -0.71101
 Alpha  occ. eigenvalues --   -0.69403  -0.57219  -0.55486  -0.50823  -0.49134
 Alpha virt. eigenvalues --    0.12819   0.15479   0.19552   0.21736   0.53416
 Alpha virt. eigenvalues --    0.55098   0.56525   0.57961   0.66910   0.69298
 Alpha virt. eigenvalues --    0.78078   0.79017   0.79697   0.79705   0.83014

 Mulliken charges:
               1
     1  O   -0.516841
     2  H    0.262570
     3  H    0.253177
     4  O   -0.515995
     5  H    0.259283
     6  H    0.257807
 Sum of Mulliken charges =  -0.00000

 Dipole moment (field-independent basis, Debye):
    X=             -1.2803    Y=             -3.1795    Z=             -0.0000  Tot=              3.4276
 Quadrupole moment (field-independent basis, Debye-Ang):
   XX=             -9.1590   YY=             -6.8635   ZZ=            -14.7175
   XY=             -5.5320   XZ=              0.0000   YZ=             -0.0000

 Normal termination of Gaussian 16 at Fri Aug 26 22:34:13 2022.
