 Gaussian 16, Revision A.03,
 Gaussian 16:  ES64L-G16RevA.03 25-Dec-2016

 ------------------
 #p CCSD(T)/cc-pVTZ
 ------------------

 -----------
 H2O_H2O_992
 -----------
 Symbolic Z-matrix:
 Charge =  0 Multiplicity = 1

                         Standard orientation:
 ---------------------------------------------------------------------
 Center     Atomic      Atomic             Coordinates (Angstroms)
 Number     Number       Type             X           Y           Z
 ---------------------------------------------------------------------
      1          8           0        0.037561    1.500820    0.000000
      2          1           0        0.034223    0.518224    0.000000
      3          1           0       -0.890844    1.822642    0.000000
      4          8           0        0.037561   -1.321952    0.000000
      5          1           0        0.917348   -1.759537    0.000000
      6          1           0       -0.661696   -2.012275    0.000000
 ---------------------------------------------------------------------

 SCF Done:  E(RHF) =  -152.113334504     A.U. after   10 cycles
 E2 =    -0.5286509236D+00 EUMP2 =    -0.15264198542786D+03
 CCSD(T)
 CCSD(T)= -0.15266881550D+03

 The electronic state is 1-A'.
 Alpha  occ. eigenvalues --  -20.58853 -20.51484  -1.36376  -1.29202  -0.73589
 Alpha  occ. eigenvalues --   -0.68109  -0.59768  -0.53424  -0.52178  -0.46314
 Alpha virt. eigenvalues --    0.11858   0.18328   0.18756   0.32086   0.48524
 Alpha virt. eigenvalues --    0.54657   0.56580   0.62054   0.68650   0.71964
 Alpha virt. eigenvalues --    0.72719   0.77521   0.82223   0.82749   0.84723

 Mulliken charges:
               1
     1  O   -0.571668
     2  H    0.297723
     3  H    0.242350
     4  O   -0.490381
     5  H    0.266010
     6  H    0.255966
 Sum of Mulliken charges =   0.00000

 Dipole moment (field-independent basis, Debye):
    X=             -1.2409    Y=             -3.7818    Z=              0.0000  Tot=              3.9802
 Quadrupole moment (field-independent basis, Debye-Ang):
   XX=             -9.1514   YY=             -8.7839   ZZ=            -14.7251
   XY=             -3.5094   XZ=             -0.0000   YZ=              0.0000

 Normal termination of Gaussian 16 at Fri Aug 26 21:47:01 2022.
