 Gaussian 16, Revision A.03,
 Gaussian 16:  ES64L-G16RevA.03 25-Dec-2016

 ------------------
 #p CCSD(T)/cc-pVTZ
 ------------------

 ------------
 H2O_H2O_3399
 ------------
 Symbolic Z-matrix:
 Charge =  0 Multiplicity = 1

                         Standard orientation:
 ---------------------------------------------------------------------
 Center     Atomic      Atomic             Coordinates (Angstroms)
 Number     Number       Type             X           Y           Z
 ---------------------------------------------------------------------
      1          8           0       -0.013509    2.447475    0.000000
      2          1           0       -0.010662    1.464877    0.000000
      3          1           0        0.915058    2.768832    0.000000
      4          8           0       -0.013509   -2.288209    0.000000
      5          1           0       -0.996107   -2.291055    0.000000
      6          1           0        0.307849   -3.216775    0.000000
 ---------------------------------------------------------------------

 SCF Done:  E(RHF) =  -152.109209029     A.U. after   10 cycles
 E2 =    -0.5258574033D+00 EUMP2 =    -0.15263506643252D+03
 CCSD(T)
 CCSD(T)= -0.15266223472D+03

 The electronic state is 1-A'.
 Alpha  occ. eigenvalues --  -20.56458 -20.54827  -1.33754  -1.32141  -0.71162
 Alpha  occ. eigenvalues --   -0.69549  -0.57271  -0.55626  -0.50877  -0.49273
 Alpha virt. eigenvalues --    0.12397   0.15572   0.19191   0.22497   0.53402
 Alpha virt. eigenvalues --    0.55422   0.56523   0.57987   0.67124   0.69261
 Alpha virt. eigenvalues --    0.78024   0.78650   0.79570   0.80798   0.82933

 Mulliken charges:
               1
     1  O   -0.517546
     2  H    0.261241
     3  H    0.255053
     4  O   -0.515778
     5  H    0.257844
     6  H    0.259186
 Sum of Mulliken charges =   0.00000

 Dipole moment (field-independent basis, Debye):
    X=              0.4654    Y=             -2.8357    Z=              0.0000  Tot=              2.8737
 Quadrupole moment (field-independent basis, Debye-Ang):
   XX=             -9.6478   YY=             -7.8499   ZZ=            -14.7174
   XY=              6.6206   XZ=              0.0000   YZ=              0.0000

 Normal termination of Gaussian 16 at Fri Aug 26 21:29:03 2022.
