 Gaussian 16, Revision A.03,
 Gaussian 16:  ES64L-G16RevA.03 25-Dec-2016

 ------------------
 #p CCSD(T)/cc-pVTZ
 ------------------

 ------------
 H2O_H2O_1070
 ------------
 Symbolic Z-matrix:
 Charge =  0 Multiplicity = 1

                         Standard orientation:
 ---------------------------------------------------------------------
 Center     Atomic      Atomic             Coordinates (Angstroms)
 Number     Number       Type             X           Y           Z
 ---------------------------------------------------------------------
      1          8           0        0.026782    1.527631    0.000000
      2          1           0        0.022878    0.545037    0.000000
      3          1           0       -0.901438    1.849988    0.000000
      4          8           0        0.026782   -1.354483   -0.000000
      5          1           0        0.974884   -1.612568   -0.000000
      6          1           0       -0.524833   -2.167642   -0.000000
 ---------------------------------------------------------------------

 SCF Done:  E(RHF) =  -152.113453179     A.U. after   10 cycles
 E2 =    -0.5283277420D+00 EUMP2 =    -0.15264178092141D+03
 CCSD(T)
 CCSD(T)= -0.15266865537D+03

 The electronic state is 1-A'.
 Alpha  occ. eigenvalues --  -20.58647 -20.51927  -1.36130  -1.29572  -0.73501
 Alpha  occ. eigenvalues --   -0.67940  -0.59762  -0.53189  -0.52628  -0.46698
 Alpha virt. eigenvalues --    0.11968   0.18363   0.18682   0.31648   0.48979
 Alpha virt. eigenvalues --    0.54661   0.56063   0.62554   0.68406   0.72829
 Alpha virt. eigenvalues --    0.72893   0.77143   0.82044   0.82581   0.84506

 Mulliken charges:
               1
     1  O   -0.566908
     2  H    0.291234
     3  H    0.246909
     4  O   -0.486448
     5  H    0.264604
     6  H    0.250609
 Sum of Mulliken charges =  -0.00000

 Dipole moment (field-independent basis, Debye):
    X=             -0.8927    Y=             -3.6111    Z=             -0.0000  Tot=              3.7198
 Quadrupole moment (field-independent basis, Debye-Ang):
   XX=             -9.2803   YY=             -8.7258   ZZ=            -14.7256
   XY=             -3.7394   XZ=             -0.0000   YZ=             -0.0000

 Normal termination of Gaussian 16 at Fri Aug 26 22:16:35 2022.
