 Gaussian 16, Revision A.03,
 Gaussian 16:  ES64L-G16RevA.03 25-Dec-2016

 ------------------
 #p CCSD(T)/cc-pVTZ
 ------------------

 ------------
 H2O_H2O_3080
 ------------
 Symbolic Z-matrix:
 Charge =  0 Multiplicity = 1

                         Standard orientation:
 ---------------------------------------------------------------------
 Center     Atomic      Atomic             Coordinates (Angstroms)
 Number     Number       Type             X           Y           Z
 ---------------------------------------------------------------------
      1          8           0        0.079852    2.327691   -0.000000
      2          1           0        0.079358    1.345090   -0.000000
      3          1           0       -0.849480    2.646825    0.000000
      4          8           0        0.079852   -2.168630   -0.000000
      5          1           0        0.395232   -3.099244   -0.000000
      6          1           0       -0.902743   -2.165156    0.000000
 ---------------------------------------------------------------------

 SCF Done:  E(RHF) =  -152.108857667     A.U. after   10 cycles
 E2 =    -0.5259974756D+00 EUMP2 =    -0.15263485514244D+03
 CCSD(T)
 CCSD(T)= -0.15266202043D+03

 The electronic state is 1-A'.
 Alpha  occ. eigenvalues --  -20.56617 -20.54795  -1.33905  -1.32105  -0.71323
 Alpha  occ. eigenvalues --   -0.69489  -0.57404  -0.55572  -0.51023  -0.49228
 Alpha virt. eigenvalues --    0.12082   0.15677   0.19402   0.22606   0.53825
 Alpha virt. eigenvalues --    0.55030   0.56372   0.58336   0.67809   0.69233
 Alpha virt. eigenvalues --    0.77875   0.78687   0.79625   0.80621   0.82857

 Mulliken charges:
               1
     1  O   -0.513982
     2  H    0.262145
     3  H    0.249817
     4  O   -0.511149
     5  H    0.259896
     6  H    0.253273
 Sum of Mulliken charges =   0.00000

 Dipole moment (field-independent basis, Debye):
    X=             -2.7219    Y=             -2.8542    Z=              0.0000  Tot=              3.9440
 Quadrupole moment (field-independent basis, Debye-Ang):
   XX=            -10.1028   YY=             -7.9849   ZZ=            -14.7161
   XY=             -3.1931   XZ=              0.0000   YZ=              0.0000

 Normal termination of Gaussian 16 at Fri Aug 26 19:39:35 2022.
