 Gaussian 16, Revision A.03,
 Gaussian 16:  ES64L-G16RevA.03 25-Dec-2016

 ------------------
 #p CCSD(T)/cc-pVTZ
 ------------------

 ------------
 H2O_H2O_1749
 ------------
 Symbolic Z-matrix:
 Charge =  0 Multiplicity = 1

                         Standard orientation:
 ---------------------------------------------------------------------
 Center     Atomic      Atomic             Coordinates (Angstroms)
 Number     Number       Type             X           Y           Z
 ---------------------------------------------------------------------
      1          8           0       -0.013597    1.789316    0.000000
      2          1           0       -0.009655    0.806722    0.000000
      3          1           0        0.914610    2.111708    0.000000
      4          8           0       -0.013597   -1.630081    0.000000
      5          1           0       -0.996191   -1.634023    0.000000
      6          1           0        0.308795   -2.558288    0.000000
 ---------------------------------------------------------------------

 SCF Done:  E(RHF) =  -152.112422628     A.U. after   10 cycles
 E2 =    -0.5266828888D+00 EUMP2 =    -0.15263910551663D+03
 CCSD(T)
 CCSD(T)= -0.15266615988D+03

 The electronic state is 1-A'.
 Alpha  occ. eigenvalues --  -20.57547 -20.53771  -1.34843  -1.31152  -0.72311
 Alpha  occ. eigenvalues --   -0.68597  -0.58568  -0.54569  -0.51964  -0.48306
 Alpha virt. eigenvalues --    0.12172   0.17163   0.19254   0.27542   0.51862
 Alpha virt. eigenvalues --    0.54424   0.55808   0.59792   0.68791   0.73889
 Alpha virt. eigenvalues --    0.75197   0.77908   0.80795   0.83087   0.84205

 Mulliken charges:
               1
     1  O   -0.536027
     2  H    0.269442
     3  H    0.254396
     4  O   -0.505944
     5  H    0.261747
     6  H    0.256385
 Sum of Mulliken charges =   0.00000

 Dipole moment (field-independent basis, Debye):
    X=              0.4697    Y=             -3.0457    Z=              0.0000  Tot=              3.0817
 Quadrupole moment (field-independent basis, Debye-Ang):
   XX=             -9.6501   YY=             -8.4513   ZZ=            -14.7282
   XY=              4.8185   XZ=              0.0000   YZ=              0.0000

 Normal termination of Gaussian 16 at Sun Aug 28 01:14:49 2022.
