 Gaussian 16, Revision A.03,
 Gaussian 16:  ES64L-G16RevA.03 25-Dec-2016

 ------------------
 #p CCSD(T)/cc-pVTZ
 ------------------

 ------------
 H2O_H2O_3484
 ------------
 Symbolic Z-matrix:
 Charge =  0 Multiplicity = 1

                         Standard orientation:
 ---------------------------------------------------------------------
 Center     Atomic      Atomic             Coordinates (Angstroms)
 Number     Number       Type             X           Y           Z
 ---------------------------------------------------------------------
      1          8           0        0.066755    2.494875    0.000000
      2          1           0        0.065832    1.512274    0.000000
      3          1           0       -0.862438    2.814415   -0.000000
      4          8           0        0.066755   -2.321763    0.000000
      5          1           0        0.611892   -3.139279    0.000000
      6          1           0       -0.883368   -2.572307   -0.000000
 ---------------------------------------------------------------------

 SCF Done:  E(RHF) =  -152.108897064     A.U. after   10 cycles
 E2 =    -0.5258897579D+00 EUMP2 =    -0.15263478682188D+03
 CCSD(T)
 CCSD(T)= -0.15266195987D+03

 The electronic state is 1-A'.
 Alpha  occ. eigenvalues --  -20.56454 -20.54744  -1.33745  -1.32056  -0.71153
 Alpha  occ. eigenvalues --   -0.69448  -0.57251  -0.55530  -0.50866  -0.49182
 Alpha virt. eigenvalues --    0.12605   0.15480   0.19482   0.21840   0.53387
 Alpha virt. eigenvalues --    0.55089   0.56438   0.58086   0.67021   0.69287
 Alpha virt. eigenvalues --    0.78039   0.78796   0.79663   0.80035   0.82943

 Mulliken charges:
               1
     1  O   -0.514823
     2  H    0.262249
     3  H    0.251338
     4  O   -0.514095
     5  H    0.259920
     6  H    0.255411
 Sum of Mulliken charges =  -0.00000

 Dipole moment (field-independent basis, Debye):
    X=             -2.2809    Y=             -3.0812    Z=             -0.0000  Tot=              3.8336
 Quadrupole moment (field-independent basis, Debye-Ang):
   XX=             -9.5629   YY=             -7.1924   ZZ=            -14.7165
   XY=             -4.0636   XZ=             -0.0000   YZ=             -0.0000

 Normal termination of Gaussian 16 at Fri Aug 26 21:57:07 2022.
