 Gaussian 16, Revision A.03,
 Gaussian 16:  ES64L-G16RevA.03 25-Dec-2016

 ------------------
 #p CCSD(T)/cc-pVTZ
 ------------------

 -----------
 H2O_H2O_613
 -----------
 Symbolic Z-matrix:
 Charge =  0 Multiplicity = 1

                         Standard orientation:
 ---------------------------------------------------------------------
 Center     Atomic      Atomic             Coordinates (Angstroms)
 Number     Number       Type             X           Y           Z
 ---------------------------------------------------------------------
      1          8           0        0.052409    1.351725   -0.000000
      2          1           0        0.049675    0.369127   -0.000000
      3          1           0       -0.876193    1.672976    0.000000
      4          8           0        0.052409   -1.171963   -0.000000
      5          1           0        0.789363   -1.821890   -0.000000
      6          1           0       -0.801391   -1.658307    0.000000
 ---------------------------------------------------------------------

 SCF Done:  E(RHF) =  -152.105333646     A.U. after   11 cycles
 E2 =    -0.5309090021D+00 EUMP2 =    -0.15263624264811D+03
 CCSD(T)
 CCSD(T)= -0.15266275373D+03

 The electronic state is 1-A'.
 Alpha  occ. eigenvalues --  -20.59877 -20.49568  -1.38013  -1.27806  -0.74828
 Alpha  occ. eigenvalues --   -0.70188  -0.58980  -0.54798  -0.50178  -0.44797
 Alpha virt. eigenvalues --    0.11383   0.17598   0.19682   0.33336   0.47662
 Alpha virt. eigenvalues --    0.53866   0.60703   0.62039   0.70462   0.72329
 Alpha virt. eigenvalues --    0.72904   0.78326   0.81467   0.82766   0.84271

 Mulliken charges:
               1
     1  O   -0.601460
     2  H    0.313430
     3  H    0.228549
     4  O   -0.452124
     5  H    0.259894
     6  H    0.251712
 Sum of Mulliken charges =  -0.00000

 Dipole moment (field-independent basis, Debye):
    X=             -1.6873    Y=             -4.1552    Z=              0.0000  Tot=              4.4847
 Quadrupole moment (field-independent basis, Debye-Ang):
   XX=             -9.2158   YY=             -9.2649   ZZ=            -14.6898
   XY=             -3.0925   XZ=             -0.0000   YZ=              0.0000

 Normal termination of Gaussian 16 at Fri Aug 26 19:24:10 2022.
