 Gaussian 16, Revision A.03,
 Gaussian 16:  ES64L-G16RevA.03 25-Dec-2016

 ------------------
 #p CCSD(T)/cc-pVTZ
 ------------------

 ------------
 H2O_H2O_2605
 ------------
 Symbolic Z-matrix:
 Charge =  0 Multiplicity = 1

                         Standard orientation:
 ---------------------------------------------------------------------
 Center     Atomic      Atomic             Coordinates (Angstroms)
 Number     Number       Type             X           Y           Z
 ---------------------------------------------------------------------
      1          8           0        0.079856    2.138220   -0.000000
      2          1           0        0.079316    1.155619   -0.000000
      3          1           0       -0.849462    2.457398   -0.000000
      4          8           0        0.079856   -1.979167    0.000000
      5          1           0        0.395192   -2.909796    0.000000
      6          1           0       -0.902740   -1.975648    0.000000
 ---------------------------------------------------------------------

 SCF Done:  E(RHF) =  -152.109476140     A.U. after   10 cycles
 E2 =    -0.5261594296D+00 EUMP2 =    -0.15263563556958D+03
 CCSD(T)
 CCSD(T)= -0.15266277386D+03

 The electronic state is 1-A'.
 Alpha  occ. eigenvalues --  -20.56869 -20.54601  -1.34149  -1.31916  -0.71574
 Alpha  occ. eigenvalues --   -0.69292  -0.57670  -0.55380  -0.51268  -0.49042
 Alpha virt. eigenvalues --    0.11919   0.16021   0.19511   0.23642   0.53727
 Alpha virt. eigenvalues --    0.55356   0.56320   0.58378   0.68736   0.70136
 Alpha virt. eigenvalues --    0.77500   0.79116   0.79834   0.80632   0.83072

 Mulliken charges:
               1
     1  O   -0.516403
     2  H    0.264190
     3  H    0.248191
     4  O   -0.508098
     5  H    0.259520
     6  H    0.252600
 Sum of Mulliken charges =  -0.00000

 Dipole moment (field-independent basis, Debye):
    X=             -2.7129    Y=             -2.8964    Z=             -0.0000  Tot=              3.9685
 Quadrupole moment (field-independent basis, Debye-Ang):
   XX=            -10.1092   YY=             -8.1438   ZZ=            -14.7178
   XY=             -3.1052   XZ=              0.0000   YZ=             -0.0000

 Normal termination of Gaussian 16 at Fri Aug 26 15:57:00 2022.
