 Gaussian 16, Revision A.03,
 Gaussian 16:  ES64L-G16RevA.03 25-Dec-2016

 ------------------
 #p CCSD(T)/cc-pVTZ
 ------------------

 ------------
 H2O_H2O_3366
 ------------
 Symbolic Z-matrix:
 Charge =  0 Multiplicity = 1

                         Standard orientation:
 ---------------------------------------------------------------------
 Center     Atomic      Atomic             Coordinates (Angstroms)
 Number     Number       Type             X           Y           Z
 ---------------------------------------------------------------------
      1          8           0        0.041134    2.448723   -0.000000
      2          1           0        0.039269    1.466123   -0.000000
      3          1           0       -0.887753    2.769152   -0.000000
      4          8           0        0.041134   -2.268792    0.000000
      5          1           0        0.891158   -2.761707    0.000000
      6          1           0       -0.700810   -2.913016    0.000000
 ---------------------------------------------------------------------

 SCF Done:  E(RHF) =  -152.109415550     A.U. after   10 cycles
 E2 =    -0.5258692094D+00 EUMP2 =    -0.15263528475917D+03
 CCSD(T)
 CCSD(T)= -0.15266244481D+03

 The electronic state is 1-A'.
 Alpha  occ. eigenvalues --  -20.56489 -20.54595  -1.33776  -1.31912  -0.71178
 Alpha  occ. eigenvalues --   -0.69309  -0.57305  -0.55397  -0.50903  -0.49044
 Alpha virt. eigenvalues --    0.12695   0.15649   0.19525   0.22020   0.53355
 Alpha virt. eigenvalues --    0.55207   0.56468   0.58130   0.67276   0.69353
 Alpha virt. eigenvalues --    0.78002   0.79002   0.79500   0.79790   0.83102

 Mulliken charges:
               1
     1  O   -0.517631
     2  H    0.263274
     3  H    0.252685
     4  O   -0.515603
     5  H    0.259670
     6  H    0.257603
 Sum of Mulliken charges =  -0.00000

 Dipole moment (field-independent basis, Debye):
    X=             -1.4053    Y=             -3.2114    Z=              0.0000  Tot=              3.5054
 Quadrupole moment (field-independent basis, Debye-Ang):
   XX=             -9.1491   YY=             -6.9655   ZZ=            -14.7184
   XY=             -5.1964   XZ=              0.0000   YZ=             -0.0000

 Normal termination of Gaussian 16 at Fri Aug 26 21:18:17 2022.
