 Gaussian 16, Revision A.03,
 Gaussian 16:  ES64L-G16RevA.03 25-Dec-2016

 ------------------
 #p CCSD(T)/cc-pVTZ
 ------------------

 ------------
 H2O_H2O_2147
 ------------
 Symbolic Z-matrix:
 Charge =  0 Multiplicity = 1

                         Standard orientation:
 ---------------------------------------------------------------------
 Center     Atomic      Atomic             Coordinates (Angstroms)
 Number     Number       Type             X           Y           Z
 ---------------------------------------------------------------------
      1          8           0       -0.019910    1.953125    0.000000
      2          1           0       -0.016593    0.970529    0.000000
      3          1           0        0.908502    2.274928    0.000000
      4          8           0       -0.019910   -1.786045    0.000000
      5          1           0       -0.993667   -1.917588    0.000000
      6          1           0        0.420321   -2.664510    0.000000
 ---------------------------------------------------------------------

 SCF Done:  E(RHF) =  -152.111705958     A.U. after   10 cycles
 E2 =    -0.5262747436D+00 EUMP2 =    -0.15263798070197D+03
 CCSD(T)
 CCSD(T)= -0.15266506397D+03

 The electronic state is 1-A'.
 Alpha  occ. eigenvalues --  -20.57179 -20.54032  -1.34449  -1.31379  -0.71860
 Alpha  occ. eigenvalues --   -0.68800  -0.58096  -0.54853  -0.51582  -0.48531
 Alpha virt. eigenvalues --    0.12224   0.16785   0.19225   0.25650   0.53047
 Alpha virt. eigenvalues --    0.54871   0.56123   0.58802   0.68837   0.72360
 Alpha virt. eigenvalues --    0.76632   0.78717   0.80398   0.83387   0.83526

 Mulliken charges:
               1
     1  O   -0.528777
     2  H    0.266757
     3  H    0.253459
     4  O   -0.510315
     5  H    0.260720
     6  H    0.258156
 Sum of Mulliken charges =   0.00000

 Dipole moment (field-independent basis, Debye):
    X=              0.6801    Y=             -3.1119    Z=              0.0000  Tot=              3.1854
 Quadrupole moment (field-independent basis, Debye-Ang):
   XX=             -9.4480   YY=             -8.0776   ZZ=            -14.7260
   XY=              4.9853   XZ=              0.0000   YZ=              0.0000

 Normal termination of Gaussian 16 at Sun Aug 28 04:43:01 2022.
