 Gaussian 16, Revision A.03,
 Gaussian 16:  ES64L-G16RevA.03 25-Dec-2016

 ------------------
 #p CCSD(T)/cc-pVTZ
 ------------------

 ------------
 H2O_H2O_1330
 ------------
 Symbolic Z-matrix:
 Charge =  0 Multiplicity = 1

                         Standard orientation:
 ---------------------------------------------------------------------
 Center     Atomic      Atomic             Coordinates (Angstroms)
 Number     Number       Type             X           Y           Z
 ---------------------------------------------------------------------
      1          8           0        0.079870   -1.629637    0.000000
      2          1           0        0.079153   -0.647036    0.000000
      3          1           0       -0.849390   -1.948982    0.000000
      4          8           0        0.079870    1.470613    0.000000
      5          1           0        0.395039    2.401298    0.000000
      6          1           0       -0.902725    1.466916    0.000000
 ---------------------------------------------------------------------

 SCF Done:  E(RHF) =  -152.111434228     A.U. after   10 cycles
 E2 =    -0.5278237181D+00 EUMP2 =    -0.15263925794588D+03
 CCSD(T)
 CCSD(T)= -0.15266626286D+03

 The electronic state is 1-A'.
 Alpha  occ. eigenvalues --  -20.58161 -20.53356  -1.35535  -1.30798  -0.73097
 Alpha  occ. eigenvalues --   -0.68340  -0.59148  -0.54089  -0.52605  -0.47910
 Alpha virt. eigenvalues --    0.11687   0.16782   0.19796   0.29298   0.49135
 Alpha virt. eigenvalues --    0.54858   0.57991   0.58431   0.69353   0.73472
 Alpha virt. eigenvalues --    0.74611   0.76907   0.81373   0.82243   0.83918

 Mulliken charges:
               1
     1  O   -0.535425
     2  H    0.279973
     3  H    0.238563
     4  O   -0.481340
     5  H    0.249030
     6  H    0.249199
 Sum of Mulliken charges =  -0.00000

 Dipole moment (field-independent basis, Debye):
    X=             -2.6593    Y=              3.1717    Z=              0.0000  Tot=              4.1390
 Quadrupole moment (field-independent basis, Debye-Ang):
   XX=            -10.1365   YY=             -8.6565   ZZ=            -14.7203
   XY=              2.8524   XZ=              0.0000   YZ=              0.0000

 Normal termination of Gaussian 16 at Fri Aug 26 23:53:59 2022.
