 Gaussian 16, Revision A.03,
 Gaussian 16:  ES64L-G16RevA.03 25-Dec-2016

 ------------------
 #p CCSD(T)/cc-pVTZ
 ------------------

 -----------
 H2O_H2O_370
 -----------
 Symbolic Z-matrix:
 Charge =  0 Multiplicity = 1

                         Standard orientation:
 ---------------------------------------------------------------------
 Center     Atomic      Atomic             Coordinates (Angstroms)
 Number     Number       Type             X           Y           Z
 ---------------------------------------------------------------------
      1          8           0        0.026864    1.248394    0.000000
      2          1           0        0.022022    0.265805    0.000000
      3          1           0       -0.901047    1.571637   -0.000000
      4          8           0        0.026864   -1.075298    0.000000
      5          1           0        0.974720   -1.334287    0.000000
      6          1           0       -0.525526   -1.887929   -0.000000
 ---------------------------------------------------------------------

 SCF Done:  E(RHF) =  -152.088795087     A.U. after   11 cycles
 E2 =    -0.5329478472D+00 EUMP2 =    -0.15262174293438D+03
 CCSD(T)
 CCSD(T)= -0.15264788558D+03

 The electronic state is 1-A'.
 Alpha  occ. eigenvalues --  -20.60651 -20.47694  -1.39855  -1.26579  -0.77099
 Alpha  occ. eigenvalues --   -0.71737  -0.57976  -0.56105  -0.48114  -0.43451
 Alpha virt. eigenvalues --    0.11162   0.17614   0.20030   0.33931   0.47211
 Alpha virt. eigenvalues --    0.53108   0.59985   0.68308   0.70060   0.72059
 Alpha virt. eigenvalues --    0.76098   0.77827   0.79216   0.83884   0.83948

 Mulliken charges:
               1
     1  O   -0.635242
     2  H    0.300466
     3  H    0.230049
     4  O   -0.394864
     5  H    0.261169
     6  H    0.238422
 Sum of Mulliken charges =  -0.00000

 Dipole moment (field-independent basis, Debye):
    X=             -0.8527    Y=             -4.3663    Z=             -0.0000  Tot=              4.4488
 Quadrupole moment (field-independent basis, Debye-Ang):
   XX=             -9.2301   YY=             -9.6201   ZZ=            -14.6411
   XY=             -3.0421   XZ=              0.0000   YZ=             -0.0000

 Normal termination of Gaussian 16 at Fri Aug 26 17:45:34 2022.
