 Gaussian 16, Revision A.03,
 Gaussian 16:  ES64L-G16RevA.03 25-Dec-2016

 ------------------
 #p CCSD(T)/cc-pVTZ
 ------------------

 ------------
 H2O_H2O_3651
 ------------
 Symbolic Z-matrix:
 Charge =  0 Multiplicity = 1

                         Standard orientation:
 ---------------------------------------------------------------------
 Center     Atomic      Atomic             Coordinates (Angstroms)
 Number     Number       Type             X           Y           Z
 ---------------------------------------------------------------------
      1          8           0        0.090684   -2.545991    0.000000
      2          1           0        0.090606   -1.563389    0.000000
      3          1           0       -0.838784   -2.864731    0.000000
      4          8           0        0.090684    2.407281    0.000000
      5          1           0        0.154873    3.387784    0.000000
      6          1           0       -0.857640    2.150014    0.000000
 ---------------------------------------------------------------------

 SCF Done:  E(RHF) =  -152.107907714     A.U. after   10 cycles
 E2 =    -0.5259344361D+00 EUMP2 =    -0.15263384215046D+03
 CCSD(T)
 CCSD(T)= -0.15266104256D+03

 The electronic state is 1-A'.
 Alpha  occ. eigenvalues --  -20.56408 -20.55194  -1.33707  -1.32496  -0.71128
 Alpha  occ. eigenvalues --   -0.69887  -0.57174  -0.55950  -0.50818  -0.49610
 Alpha virt. eigenvalues --    0.12007   0.15208   0.19013   0.22427   0.53283
 Alpha virt. eigenvalues --    0.54953   0.56467   0.57948   0.66860   0.68875
 Alpha virt. eigenvalues --    0.78086   0.78813   0.79259   0.81345   0.82454

 Mulliken charges:
               1
     1  O   -0.510166
     2  H    0.258759
     3  H    0.250915
     4  O   -0.510701
     5  H    0.259455
     6  H    0.251738
 Sum of Mulliken charges =   0.00000

 Dipole moment (field-independent basis, Debye):
    X=             -3.0999    Y=              2.4573    Z=              0.0000  Tot=              3.9558
 Quadrupole moment (field-independent basis, Debye-Ang):
   XX=            -10.7050   YY=             -8.9062   ZZ=            -14.7126
   XY=              2.3883   XZ=              0.0000   YZ=              0.0000

 CCSD(T)=-152.6610426\RMSD=7.263e-09\PG=CS [SG(H4O2)]\\@
 Normal termination of Gaussian 16 at Fri Aug 26 22:53:41 2022.
