 Gaussian 16, Revision A.03,
 Gaussian 16:  ES64L-G16RevA.03 25-Dec-2016

 ------------------
 #p CCSD(T)/cc-pVTZ
 ------------------

 ------------
 H2O_H2O_3026
 ------------
 Symbolic Z-matrix:
 Charge =  0 Multiplicity = 1

                         Standard orientation:
 ---------------------------------------------------------------------
 Center     Atomic      Atomic             Coordinates (Angstroms)
 Number     Number       Type             X           Y           Z
 ---------------------------------------------------------------------
      1          8           0        0.090685   -2.296692    0.000000
      2          1           0        0.090598   -1.314090    0.000000
      3          1           0       -0.838780   -2.615440    0.000000
      4          8           0        0.090685    2.157984    0.000000
      5          1           0        0.154864    3.138487    0.000000
      6          1           0       -0.857638    1.900707    0.000000
 ---------------------------------------------------------------------

 SCF Done:  E(RHF) =  -152.108230174     A.U. after   10 cycles
 E2 =    -0.5260618761D+00 EUMP2 =    -0.15263429204992D+03
 CCSD(T)
 CCSD(T)= -0.15266147273D+03

 The electronic state is 1-A'.
 Alpha  occ. eigenvalues --  -20.56640 -20.55076  -1.33934  -1.32379  -0.71366
 Alpha  occ. eigenvalues --   -0.69758  -0.57407  -0.55832  -0.51043  -0.49493
 Alpha virt. eigenvalues --    0.11630   0.15576   0.19373   0.23128   0.54368
 Alpha virt. eigenvalues --    0.54568   0.56456   0.58126   0.67941   0.68973
 Alpha virt. eigenvalues --    0.77846   0.78483   0.79383   0.81049   0.82651

 Mulliken charges:
               1
     1  O   -0.511215
     2  H    0.260441
     3  H    0.249340
     4  O   -0.508681
     5  H    0.259729
     6  H    0.250387
 Sum of Mulliken charges =  -0.00000

 Dipole moment (field-independent basis, Debye):
    X=             -3.0886    Y=              2.4878    Z=              0.0000  Tot=              3.9660
 Quadrupole moment (field-independent basis, Debye-Ang):
   XX=            -10.7126   YY=             -8.9261   ZZ=            -14.7134
   XY=              2.3655   XZ=              0.0000   YZ=              0.0000

 Normal termination of Gaussian 16 at Fri Aug 26 19:20:22 2022.
