 Gaussian 16, Revision A.03,
 Gaussian 16:  ES64L-G16RevA.03 25-Dec-2016

 ------------------
 #p CCSD(T)/cc-pVTZ
 ------------------

 -----------
 H2O_H2O_126
 -----------
 Symbolic Z-matrix:
 Charge =  0 Multiplicity = 1

                         Standard orientation:
 ---------------------------------------------------------------------
 Center     Atomic      Atomic             Coordinates (Angstroms)
 Number     Number       Type             X           Y           Z
 ---------------------------------------------------------------------
      1          8           0        0.090691   -1.139939    0.000000
      2          1           0        0.090512   -0.157337    0.000000
      3          1           0       -0.838743   -1.458775    0.000000
      4          8           0        0.090691    1.001248    0.000000
      5          1           0        0.154777    1.981758    0.000000
      6          1           0       -0.857607    0.743882    0.000000
 ---------------------------------------------------------------------

 SCF Done:  E(RHF) =  -152.038609987     A.U. after   11 cycles
 E2 =    -0.5384394826D+00 EUMP2 =    -0.15257704946980D+03
 CCSD(T)
 CCSD(T)= -0.15260275142D+03

 The electronic state is 1-A'.
 Alpha  occ. eigenvalues --  -20.61379 -20.47832  -1.43441  -1.27031  -0.83103
 Alpha  occ. eigenvalues --   -0.70301  -0.57704  -0.57000  -0.48525  -0.43849
 Alpha virt. eigenvalues --    0.10757   0.15894   0.21765   0.31703   0.49268
 Alpha virt. eigenvalues --    0.50735   0.59837   0.67045   0.71107   0.72658
 Alpha virt. eigenvalues --    0.75120   0.78265   0.79675   0.84770   0.85745

 Mulliken charges:
               1
     1  O   -0.596194
     2  H    0.259916
     3  H    0.189487
     4  O   -0.316707
     5  H    0.226488
     6  H    0.237010
 Sum of Mulliken charges =  -0.00000

 Dipole moment (field-independent basis, Debye):
    X=             -2.8248    Y=              3.9520    Z=              0.0000  Tot=              4.8577
 Quadrupole moment (field-independent basis, Debye-Ang):
   XX=            -10.6593   YY=             -9.9120   ZZ=            -14.5262
   XY=              2.0388   XZ=              0.0000   YZ=              0.0000

 Normal termination of Gaussian 16 at Fri Aug 26 16:02:51 2022.
