 Gaussian 16, Revision A.03,
 Gaussian 16:  ES64L-G16RevA.03 25-Dec-2016

 ------------------
 #p CCSD(T)/cc-pVTZ
 ------------------

 ------------
 H2O_H2O_3144
 ------------
 Symbolic Z-matrix:
 Charge =  0 Multiplicity = 1

                         Standard orientation:
 ---------------------------------------------------------------------
 Center     Atomic      Atomic             Coordinates (Angstroms)
 Number     Number       Type             X           Y           Z
 ---------------------------------------------------------------------
      1          8           0        0.030188    2.356630    0.000000
      2          1           0        0.027840    1.374031    0.000000
      3          1           0       -0.898541    2.677516    0.000000
      4          8           0        0.030188   -2.181022    0.000000
      5          1           0        0.959886   -2.499091    0.000000
      6          1           0       -0.572199   -2.957317    0.000000
 ---------------------------------------------------------------------

 SCF Done:  E(RHF) =  -152.109739449     A.U. after   10 cycles
 E2 =    -0.5258952221D+00 EUMP2 =    -0.15263563467114D+03
 CCSD(T)
 CCSD(T)= -0.15266278362D+03

 The electronic state is 1-A'.
 Alpha  occ. eigenvalues --  -20.56574 -20.54542  -1.33858  -1.31861  -0.71259
 Alpha  occ. eigenvalues --   -0.69261  -0.57398  -0.55350  -0.50986  -0.48997
 Alpha virt. eigenvalues --    0.12531   0.15831   0.19421   0.22500   0.53349
 Alpha virt. eigenvalues --    0.55428   0.56454   0.58294   0.67801   0.69350
 Alpha virt. eigenvalues --    0.77914   0.78871   0.79834   0.79843   0.83162

 Mulliken charges:
               1
     1  O   -0.519215
     2  H    0.263571
     3  H    0.253316
     4  O   -0.515406
     5  H    0.259492
     6  H    0.258240
 Sum of Mulliken charges =  -0.00000

 Dipole moment (field-independent basis, Debye):
    X=             -1.0312    Y=             -3.1497    Z=              0.0000  Tot=              3.3142
 Quadrupole moment (field-independent basis, Debye-Ang):
   XX=             -9.2294   YY=             -7.2689   ZZ=            -14.7194
   XY=             -5.4976   XZ=             -0.0000   YZ=              0.0000

 Normal termination of Gaussian 16 at Fri Aug 26 20:02:59 2022.
