 Gaussian 16, Revision A.03,
 Gaussian 16:  ES64L-G16RevA.03 25-Dec-2016

 ------------------
 #p CCSD(T)/cc-pVTZ
 ------------------

 ------------
 H2O_H2O_3799
 ------------
 Symbolic Z-matrix:
 Charge =  0 Multiplicity = 1

                         Standard orientation:
 ---------------------------------------------------------------------
 Center     Atomic      Atomic             Coordinates (Angstroms)
 Number     Number       Type             X           Y           Z
 ---------------------------------------------------------------------
      1          8           0       -0.013494    2.607027    0.000000
      2          1           0       -0.010827    1.624430    0.000000
      3          1           0        0.915131    2.928215    0.000000
      4          8           0       -0.013494   -2.447757    0.000000
      5          1           0       -0.996093   -2.450423    0.000000
      6          1           0        0.307694   -3.376382    0.000000
 ---------------------------------------------------------------------

 SCF Done:  E(RHF) =  -152.108836923     A.U. after   10 cycles
 E2 =    -0.5258213815D+00 EUMP2 =    -0.15263465830418D+03
 CCSD(T)
 CCSD(T)= -0.15266184122D+03

 The electronic state is 1-A'.
 Alpha  occ. eigenvalues --  -20.56333 -20.54942  -1.33633  -1.32253  -0.71040
 Alpha  occ. eigenvalues --   -0.69661  -0.57139  -0.55733  -0.50754  -0.49381
 Alpha virt. eigenvalues --    0.12661   0.15291   0.19203   0.21990   0.53205
 Alpha virt. eigenvalues --    0.55232   0.56597   0.57869   0.66727   0.69081
 Alpha virt. eigenvalues --    0.78141   0.78889   0.79469   0.80839   0.82783

 Mulliken charges:
               1
     1  O   -0.516014
     2  H    0.260375
     3  H    0.255065
     4  O   -0.515833
     5  H    0.257459
     6  H    0.258948
 Sum of Mulliken charges =  -0.00000

 Dipole moment (field-independent basis, Debye):
    X=              0.4647    Y=             -2.8161    Z=              0.0000  Tot=              2.8542
 Quadrupole moment (field-independent basis, Debye-Ang):
   XX=             -9.6478   YY=             -7.7138   ZZ=            -14.7161
   XY=              7.0574   XZ=              0.0000   YZ=              0.0000

 CCSD(T)=-152.6618412\RMSD=7.066e-09\PG=CS [SG(H4O2)]\\@
 Normal termination of Gaussian 16 at Fri Aug 26 23:44:20 2022.
