 Gaussian 16, Revision A.03,
 Gaussian 16:  ES64L-G16RevA.03 25-Dec-2016

 ------------------
 #p CCSD(T)/cc-pVTZ
 ------------------

 ------------
 H2O_H2O_2707
 ------------
 Symbolic Z-matrix:
 Charge =  0 Multiplicity = 1

                         Standard orientation:
 ---------------------------------------------------------------------
 Center     Atomic      Atomic             Coordinates (Angstroms)
 Number     Number       Type             X           Y           Z
 ---------------------------------------------------------------------
      1          8           0        0.073541    2.182389   -0.000000
      2          1           0        0.072756    1.199788   -0.000000
      3          1           0       -0.855698    2.501798    0.000000
      4          8           0        0.073541   -2.015456   -0.000000
      5          1           0        0.507431   -2.897071   -0.000000
      6          1           0       -0.901139   -2.139979    0.000000
 ---------------------------------------------------------------------

 SCF Done:  E(RHF) =  -152.109669022     A.U. after   10 cycles
 E2 =    -0.5260888686D+00 EUMP2 =    -0.15263575789063D+03
 CCSD(T)
 CCSD(T)= -0.15266289486D+03

 The electronic state is 1-A'.
 Alpha  occ. eigenvalues --  -20.56812 -20.54513  -1.34089  -1.31831  -0.71503
 Alpha  occ. eigenvalues --   -0.69212  -0.57620  -0.55302  -0.51212  -0.48960
 Alpha virt. eigenvalues --    0.12102   0.16031   0.19443   0.23359   0.53578
 Alpha virt. eigenvalues --    0.55403   0.56226   0.58621   0.68783   0.69704
 Alpha virt. eigenvalues --    0.77612   0.79064   0.79894   0.80360   0.83139

 Mulliken charges:
               1
     1  O   -0.517355
     2  H    0.264484
     3  H    0.248943
     4  O   -0.509905
     5  H    0.259817
     6  H    0.254016
 Sum of Mulliken charges =  -0.00000

 Dipole moment (field-independent basis, Debye):
    X=             -2.5011    Y=             -3.0316    Z=              0.0000  Tot=              3.9302
 Quadrupole moment (field-independent basis, Debye-Ang):
   XX=             -9.8198   YY=             -7.8230   ZZ=            -14.7187
   XY=             -3.4670   XZ=             -0.0000   YZ=              0.0000

 Normal termination of Gaussian 16 at Fri Aug 26 16:43:06 2022.
