 Gaussian 16, Revision A.03,
 Gaussian 16:  ES64L-G16RevA.03 25-Dec-2016

 ------------------
 #p CCSD(T)/cc-pVTZ
 ------------------

 ------------
 H2O_H2O_3864
 ------------
 Symbolic Z-matrix:
 Charge =  0 Multiplicity = 1

                         Standard orientation:
 ---------------------------------------------------------------------
 Center     Atomic      Atomic             Coordinates (Angstroms)
 Number     Number       Type             X           Y           Z
 ---------------------------------------------------------------------
      1          8           0        0.048565    2.648418   -0.000000
      2          1           0        0.047093    1.665818   -0.000000
      3          1           0       -0.880450    2.968477   -0.000000
      4          8           0        0.048565   -2.468011    0.000000
      5          1           0        0.827219   -3.067348    0.000000
      6          1           0       -0.770902   -3.010208    0.000000
 ---------------------------------------------------------------------

 SCF Done:  E(RHF) =  -152.108837603     A.U. after   10 cycles
 E2 =    -0.5258294654D+00 EUMP2 =    -0.15263466706818D+03
 CCSD(T)
 CCSD(T)= -0.15266184840D+03

 The electronic state is 1-A'.
 Alpha  occ. eigenvalues --  -20.56329 -20.54774  -1.33624  -1.32085  -0.71028
 Alpha  occ. eigenvalues --   -0.69484  -0.57133  -0.55563  -0.50746  -0.49212
 Alpha virt. eigenvalues --    0.12998   0.15281   0.19621   0.21419   0.53524
 Alpha virt. eigenvalues --    0.54940   0.56559   0.57863   0.66705   0.69181
 Alpha virt. eigenvalues --    0.78150   0.79384   0.79561   0.79633   0.82927

 Mulliken charges:
               1
     1  O   -0.515389
     2  H    0.261993
     3  H    0.252764
     4  O   -0.515565
     5  H    0.259263
     6  H    0.256933
 Sum of Mulliken charges =  -0.00000

 Dipole moment (field-independent basis, Debye):
    X=             -1.6623    Y=             -3.1908    Z=              0.0000  Tot=              3.5978
 Quadrupole moment (field-independent basis, Debye-Ang):
   XX=             -9.1822   YY=             -6.6290   ZZ=            -14.7163
   XY=             -5.1778   XZ=              0.0000   YZ=             -0.0000

 Normal termination of Gaussian 16 at Sat Aug 27 00:09:28 2022.
