 Gaussian 16, Revision A.03,
 Gaussian 16:  ES64L-G16RevA.03 25-Dec-2016

 ------------------
 #p CCSD(T)/cc-pVTZ
 ------------------

 ------------
 H2O_H2O_4480
 ------------
 Symbolic Z-matrix:
 Charge =  0 Multiplicity = 1

                         Standard orientation:
 ---------------------------------------------------------------------
 Center     Atomic      Atomic             Coordinates (Angstroms)
 Number     Number       Type             X           Y           Z
 ---------------------------------------------------------------------
      1          8           0        0.079844    2.886127    0.000000
      2          1           0        0.079448    1.903526    0.000000
      3          1           0       -0.849520    3.205168   -0.000000
      4          8           0        0.079844   -2.727050    0.000000
      5          1           0        0.395315   -3.657633    0.000000
      6          1           0       -0.902752   -2.723675   -0.000000
 ---------------------------------------------------------------------

 SCF Done:  E(RHF) =  -152.107996412     A.U. after   10 cycles
 E2 =    -0.5258472307D+00 EUMP2 =    -0.15263384364267D+03
 CCSD(T)
 CCSD(T)= -0.15266104959D+03

 The electronic state is 1-A'.
 Alpha  occ. eigenvalues --  -20.56203 -20.55129  -1.33505  -1.32433  -0.70915
 Alpha  occ. eigenvalues --   -0.69830  -0.56979  -0.55893  -0.50619  -0.49550
 Alpha virt. eigenvalues --    0.13104   0.14820   0.19360   0.21223   0.53396
 Alpha virt. eigenvalues --    0.54870   0.56597   0.57746   0.66871   0.68626
 Alpha virt. eigenvalues --    0.78271   0.79315   0.79481   0.80806   0.82303

 Mulliken charges:
               1
     1  O   -0.511415
     2  H    0.259045
     3  H    0.252268
     4  O   -0.512423
     5  H    0.258505
     6  H    0.254020
 Sum of Mulliken charges =  -0.00000

 Dipole moment (field-independent basis, Debye):
    X=             -2.7378    Y=             -2.7924    Z=             -0.0000  Tot=              3.9107
 Quadrupole moment (field-independent basis, Debye-Ang):
   XX=            -10.0939   YY=             -7.5131   ZZ=            -14.7132
   XY=             -3.4515   XZ=             -0.0000   YZ=             -0.0000

 Normal termination of Gaussian 16 at Sun Aug 28 03:15:33 2022.
