 Gaussian 16, Revision A.03,
 Gaussian 16:  ES64L-G16RevA.03 25-Dec-2016

 ------------------
 #p CCSD(T)/cc-pVTZ
 ------------------

 ------------
 H2O_H2O_4927
 ------------
 Symbolic Z-matrix:
 Charge =  0 Multiplicity = 1

                         Standard orientation:
 ---------------------------------------------------------------------
 Center     Atomic      Atomic             Coordinates (Angstroms)
 Number     Number       Type             X           Y           Z
 ---------------------------------------------------------------------
      1          8           0        0.088229   -3.057610    0.000000
      2          1           0        0.088094   -2.075009    0.000000
      3          1           0       -0.841221   -3.376403    0.000000
      4          8           0        0.088229    2.913283    0.000000
      5          1           0        0.216351    3.887496    0.000000
      6          1           0       -0.874880    2.718534    0.000000
 ---------------------------------------------------------------------

 SCF Done:  E(RHF) =  -152.107707716     A.U. after   10 cycles
 E2 =    -0.5258561095D+00 EUMP2 =    -0.15263356382527D+03
 CCSD(T)
 CCSD(T)= -0.15266077781D+03

 The electronic state is 1-A'.
 Alpha  occ. eigenvalues --  -20.56138 -20.55304  -1.33440  -1.32605  -0.70852
 Alpha  occ. eigenvalues --   -0.70004  -0.56902  -0.56059  -0.50552  -0.49719
 Alpha virt. eigenvalues --    0.13231   0.14578   0.19235   0.21120   0.53499
 Alpha virt. eigenvalues --    0.54700   0.56629   0.57587   0.67101   0.68303
 Alpha virt. eigenvalues --    0.78335   0.79153   0.79723   0.80867   0.81703

 Mulliken charges:
               1
     1  O   -0.510087
     2  H    0.257490
     3  H    0.252576
     4  O   -0.510905
     5  H    0.257694
     6  H    0.253233
 Sum of Mulliken charges =  -0.00000

 Dipole moment (field-independent basis, Debye):
    X=             -3.0288    Y=              2.5249    Z=              0.0000  Tot=              3.9432
 Quadrupole moment (field-independent basis, Debye-Ang):
   XX=            -10.5484   YY=             -8.4184   ZZ=            -14.7122
   XY=              2.7110   XZ=              0.0000   YZ=              0.0000

 Normal termination of Gaussian 16 at Sun Aug 28 06:58:36 2022.
