 Gaussian 16, Revision A.03,
 Gaussian 16:  ES64L-G16RevA.03 25-Dec-2016

 ------------------
 #p CCSD(T)/cc-pVTZ
 ------------------

 ------------
 H2O_H2O_1335
 ------------
 Symbolic Z-matrix:
 Charge =  0 Multiplicity = 1

                         Standard orientation:
 ---------------------------------------------------------------------
 Center     Atomic      Atomic             Coordinates (Angstroms)
 Number     Number       Type             X           Y           Z
 ---------------------------------------------------------------------
      1          8           0        0.063282    1.638558   -0.000000
      2          1           0        0.061656    0.655958   -0.000000
      3          1           0       -0.865683    1.958762   -0.000000
      4          8           0        0.063282   -1.463116    0.000000
      5          1           0        0.660161   -2.243656    0.000000
      6          1           0       -0.868643   -1.774600    0.000000
 ---------------------------------------------------------------------

 SCF Done:  E(RHF) =  -152.113342096     A.U. after   10 cycles
 E2 =    -0.5276157484D+00 EUMP2 =    -0.15264095784407D+03
 CCSD(T)
 CCSD(T)= -0.15266793037D+03

 The electronic state is 1-A'.
 Alpha  occ. eigenvalues --  -20.58202 -20.52775  -1.35536  -1.30258  -0.72901
 Alpha  occ. eigenvalues --   -0.68040  -0.59273  -0.53531  -0.52641  -0.47390
 Alpha virt. eigenvalues --    0.11879   0.17349   0.19248   0.29804   0.49060
 Alpha virt. eigenvalues --    0.54952   0.56895   0.59224   0.69732   0.72664
 Alpha virt. eigenvalues --    0.73660   0.76604   0.81737   0.82731   0.84635

 Mulliken charges:
               1
     1  O   -0.543575
     2  H    0.282906
     3  H    0.241202
     4  O   -0.497685
     5  H    0.261325
     6  H    0.255826
 Sum of Mulliken charges =  -0.00000

 Dipole moment (field-independent basis, Debye):
    X=             -2.1098    Y=             -3.5039    Z=              0.0000  Tot=              4.0900
 Quadrupole moment (field-independent basis, Debye-Ang):
   XX=             -9.4736   YY=             -8.4560   ZZ=            -14.7309
   XY=             -3.3488   XZ=              0.0000   YZ=             -0.0000

 Normal termination of Gaussian 16 at Fri Aug 26 23:55:56 2022.
