 Gaussian 16, Revision A.03,
 Gaussian 16:  ES64L-G16RevA.03 25-Dec-2016

 ------------------
 #p CCSD(T)/cc-pVTZ
 ------------------

 ------------
 H2O_H2O_2480
 ------------
 Symbolic Z-matrix:
 Charge =  0 Multiplicity = 1

                         Standard orientation:
 ---------------------------------------------------------------------
 Center     Atomic      Atomic             Coordinates (Angstroms)
 Number     Number       Type             X           Y           Z
 ---------------------------------------------------------------------
      1          8           0        0.079857    2.088360   -0.000000
      2          1           0        0.079304    1.105758   -0.000000
      3          1           0       -0.849456    2.407550   -0.000000
      4          8           0        0.079857   -1.929309    0.000000
      5          1           0        0.395179   -2.859941    0.000000
      6          1           0       -0.902739   -1.925776    0.000000
 ---------------------------------------------------------------------

 SCF Done:  E(RHF) =  -152.109678996     A.U. after   10 cycles
 E2 =    -0.5262216045D+00 EUMP2 =    -0.15263590060022D+03
 CCSD(T)
 CCSD(T)= -0.15266303056D+03

 The electronic state is 1-A'.
 Alpha  occ. eigenvalues --  -20.56950 -20.54537  -1.34228  -1.31855  -0.71656
 Alpha  occ. eigenvalues --   -0.69229  -0.57758  -0.55316  -0.51347  -0.48982
 Alpha virt. eigenvalues --    0.11893   0.16113   0.19538   0.23998   0.53456
 Alpha virt. eigenvalues --    0.55523   0.56299   0.58283   0.68730   0.70768
 Alpha virt. eigenvalues --    0.77330   0.79200   0.79911   0.80860   0.83173

 Mulliken charges:
               1
     1  O   -0.517164
     2  H    0.264749
     3  H    0.247661
     4  O   -0.507077
     5  H    0.259439
     6  H    0.252392
 Sum of Mulliken charges =  -0.00000

 Dipole moment (field-independent basis, Debye):
    X=             -2.7100    Y=             -2.9105    Z=              0.0000  Tot=              3.9769
 Quadrupole moment (field-independent basis, Debye-Ang):
   XX=            -10.1114   YY=             -8.1864   ZZ=            -14.7184
   XY=             -3.0819   XZ=              0.0000   YZ=              0.0000

 Normal termination of Gaussian 16 at Sun Aug 28 07:38:29 2022.
