 Gaussian 16, Revision A.03,
 Gaussian 16:  ES64L-G16RevA.03 25-Dec-2016

 ------------------
 #p CCSD(T)/cc-pVTZ
 ------------------

 ------------
 H2O_H2O_3492
 ------------
 Symbolic Z-matrix:
 Charge =  0 Multiplicity = 1

                         Standard orientation:
 ---------------------------------------------------------------------
 Center     Atomic      Atomic             Coordinates (Angstroms)
 Number     Number       Type             X           Y           Z
 ---------------------------------------------------------------------
      1          8           0        0.037435    2.498063    0.000000
      2          1           0        0.035479    1.515463    0.000000
      3          1           0       -0.891422    2.818579   -0.000000
      4          8           0        0.037435   -2.319089    0.000000
      5          1           0        0.917837   -2.755436    0.000000
      6          1           0       -0.660851   -3.010395   -0.000000
 ---------------------------------------------------------------------

 SCF Done:  E(RHF) =  -152.109278666     A.U. after   10 cycles
 E2 =    -0.5258512985D+00 EUMP2 =    -0.15263512996419D+03
 CCSD(T)
 CCSD(T)= -0.15266229569D+03

 The electronic state is 1-A'.
 Alpha  occ. eigenvalues --  -20.56441 -20.54653  -1.33731  -1.31968  -0.71133
 Alpha  occ. eigenvalues --   -0.69367  -0.57255  -0.55452  -0.50857  -0.49099
 Alpha virt. eigenvalues --    0.12758   0.15553   0.19534   0.21862   0.53389
 Alpha virt. eigenvalues --    0.55153   0.56505   0.58021   0.67046   0.69328
 Alpha virt. eigenvalues --    0.78047   0.78971   0.79661   0.79738   0.83049

 Mulliken charges:
               1
     1  O   -0.517241
     2  H    0.262834
     3  H    0.253085
     4  O   -0.515915
     5  H    0.259402
     6  H    0.257835
 Sum of Mulliken charges =   0.00000

 Dipole moment (field-independent basis, Debye):
    X=             -1.2799    Y=             -3.1856    Z=             -0.0000  Tot=              3.4331
 Quadrupole moment (field-independent basis, Debye-Ang):
   XX=             -9.1590   YY=             -6.9256   ZZ=            -14.7179
   XY=             -5.4554   XZ=              0.0000   YZ=             -0.0000

 Normal termination of Gaussian 16 at Fri Aug 26 21:59:42 2022.
