 Gaussian 16, Revision A.03,
 Gaussian 16:  ES64L-G16RevA.03 25-Dec-2016

 ------------------
 #p CCSD(T)/cc-pVTZ
 ------------------

 -----------
 H2O_H2O_298
 -----------
 Symbolic Z-matrix:
 Charge =  0 Multiplicity = 1

                         Standard orientation:
 ---------------------------------------------------------------------
 Center     Atomic      Atomic             Coordinates (Angstroms)
 Number     Number       Type             X           Y           Z
 ---------------------------------------------------------------------
      1          8           0        0.016864   -1.213156    0.000000
      2          1           0        0.011141   -0.230571    0.000000
      3          1           0       -0.910757   -1.537231    0.000000
      4          8           0        0.016864    1.049864    0.000000
      5          1           0        0.996971    1.119838    0.000000
      6          1           0       -0.367186    1.954304    0.000000
 ---------------------------------------------------------------------

 SCF Done:  E(RHF) =  -152.078417424     A.U. after   11 cycles
 E2 =    -0.5339949105D+00 EUMP2 =    -0.15261241233499D+03
 CCSD(T)
 CCSD(T)= -0.15263841557D+03

 The electronic state is 1-A'.
 Alpha  occ. eigenvalues --  -20.60833 -20.47418  -1.40675  -1.26464  -0.78899
 Alpha  occ. eigenvalues --   -0.71036  -0.58012  -0.56531  -0.47742  -0.43323
 Alpha virt. eigenvalues --    0.11162   0.17600   0.20147   0.34058   0.47613
 Alpha virt. eigenvalues --    0.52505   0.59426   0.68682   0.71859   0.72232
 Alpha virt. eigenvalues --    0.76171   0.77670   0.77735   0.84170   0.85001

 Mulliken charges:
               1
     1  O   -0.643695
     2  H    0.288971
     3  H    0.233915
     4  O   -0.370810
     5  H    0.260779
     6  H    0.230841
 Sum of Mulliken charges =  -0.00000

 Dipole moment (field-independent basis, Debye):
    X=             -0.5332    Y=              4.2649    Z=              0.0000  Tot=              4.2981
 Quadrupole moment (field-independent basis, Debye-Ang):
   XX=             -9.4535   YY=             -9.6931   ZZ=            -14.6147
   XY=              3.1088   XZ=              0.0000   YZ=              0.0000

 Normal termination of Gaussian 16 at Fri Aug 26 17:15:34 2022.
