 Gaussian 16, Revision A.03,
 Gaussian 16:  ES64L-G16RevA.03 25-Dec-2016

 ------------------
 #p CCSD(T)/cc-pVTZ
 ------------------

 ------------
 H2O_H2O_4259
 ------------
 Symbolic Z-matrix:
 Charge =  0 Multiplicity = 1

                         Standard orientation:
 ---------------------------------------------------------------------
 Center     Atomic      Atomic             Coordinates (Angstroms)
 Number     Number       Type             X           Y           Z
 ---------------------------------------------------------------------
      1          8           0        0.066746    2.804012   -0.000000
      2          1           0        0.065928    1.821411   -0.000000
      3          1           0       -0.862481    3.123452   -0.000000
      4          8           0        0.066746   -2.630886    0.000000
      5          1           0        0.611970   -3.448343    0.000000
      6          1           0       -0.883351   -2.881531    0.000000
 ---------------------------------------------------------------------

 SCF Done:  E(RHF) =  -152.108337508     A.U. after   10 cycles
 E2 =    -0.5258324682D+00 EUMP2 =    -0.15263416997575D+03
 CCSD(T)
 CCSD(T)= -0.15266136674D+03

 The electronic state is 1-A'.
 Alpha  occ. eigenvalues --  -20.56239 -20.54960  -1.33540  -1.32267  -0.70947
 Alpha  occ. eigenvalues --   -0.69664  -0.57028  -0.55734  -0.50657  -0.49388
 Alpha virt. eigenvalues --    0.13140   0.14996   0.19564   0.21186   0.53483
 Alpha virt. eigenvalues --    0.54909   0.56598   0.57806   0.66744   0.68870
 Alpha virt. eigenvalues --    0.78234   0.79333   0.79469   0.80322   0.82708

 Mulliken charges:
               1
     1  O   -0.513092
     2  H    0.260479
     3  H    0.252388
     4  O   -0.513992
     5  H    0.258907
     6  H    0.255310
 Sum of Mulliken charges =  -0.00000

 Dipole moment (field-independent basis, Debye):
    X=             -2.2872    Y=             -3.0462    Z=              0.0000  Tot=              3.8093
 Quadrupole moment (field-independent basis, Debye-Ang):
   XX=             -9.5605   YY=             -6.7746   ZZ=            -14.7145
   XY=             -4.3458   XZ=              0.0000   YZ=              0.0000

 Normal termination of Gaussian 16 at Sun Aug 28 01:17:34 2022.
