 Gaussian 16, Revision A.03,
 Gaussian 16:  ES64L-G16RevA.03 25-Dec-2016

 ------------------
 #p CCSD(T)/cc-pVTZ
 ------------------

 -----------
 H2O_H2O_646
 -----------
 Symbolic Z-matrix:
 Charge =  0 Multiplicity = 1

                         Standard orientation:
 ---------------------------------------------------------------------
 Center     Atomic      Atomic             Coordinates (Angstroms)
 Number     Number       Type             X           Y           Z
 ---------------------------------------------------------------------
      1          8           0       -0.023386    1.356559    0.000000
      2          1           0       -0.018731    0.373969    0.000000
      3          1           0        0.904587    1.679626    0.000000
      4          8           0       -0.023386   -1.186270    0.000000
      5          1           0       -0.986189   -1.382528    0.000000
      6          1           0        0.474511   -2.033385    0.000000
 ---------------------------------------------------------------------

 SCF Done:  E(RHF) =  -152.105589249     A.U. after   10 cycles
 E2 =    -0.5306810312D+00 EUMP2 =    -0.15263627027988D+03
 CCSD(T)
 CCSD(T)= -0.15266282619D+03

 The electronic state is 1-A'.
 Alpha  occ. eigenvalues --  -20.59676 -20.49996  -1.37821  -1.28149  -0.75289
 Alpha  occ. eigenvalues --   -0.69063  -0.59568  -0.54590  -0.50548  -0.45180
 Alpha virt. eigenvalues --    0.11620   0.18160   0.19281   0.33630   0.47799
 Alpha virt. eigenvalues --    0.53927   0.58061   0.67171   0.68220   0.72266
 Alpha virt. eigenvalues --    0.73647   0.77197   0.80291   0.83767   0.83991

 Mulliken charges:
               1
     1  O   -0.603707
     2  H    0.301999
     3  H    0.240857
     4  O   -0.441145
     5  H    0.261084
     6  H    0.240912
 Sum of Mulliken charges =  -0.00000

 Dipole moment (field-independent basis, Debye):
    X=              0.7657    Y=             -3.9241    Z=              0.0000  Tot=              3.9981
 Quadrupole moment (field-independent basis, Debye-Ang):
   XX=             -9.3286   YY=             -9.2070   ZZ=            -14.6878
   XY=              3.3761   XZ=              0.0000   YZ=              0.0000

 Normal termination of Gaussian 16 at Fri Aug 26 19:36:22 2022.
