 Gaussian 16, Revision A.03,
 Gaussian 16:  ES64L-G16RevA.03 25-Dec-2016

 ------------------
 #p CCSD(T)/cc-pVTZ
 ------------------

 ------------
 H2O_H2O_2886
 ------------
 Symbolic Z-matrix:
 Charge =  0 Multiplicity = 1

                         Standard orientation:
 ---------------------------------------------------------------------
 Center     Atomic      Atomic             Coordinates (Angstroms)
 Number     Number       Type             X           Y           Z
 ---------------------------------------------------------------------
      1          8           0        0.059646    2.257900    0.000000
      2          1           0        0.058342    1.275300    0.000000
      3          1           0       -0.869424    2.577799    0.000000
      4          8           0        0.059646   -2.080462   -0.000000
      5          1           0        0.706539   -2.820080   -0.000000
      6          1           0       -0.849791   -2.452526   -0.000000
 ---------------------------------------------------------------------

 SCF Done:  E(RHF) =  -152.109864486     A.U. after   10 cycles
 E2 =    -0.5259891942D+00 EUMP2 =    -0.15263585367975D+03
 CCSD(T)
 CCSD(T)= -0.15266299200D+03

 The electronic state is 1-A'.
 Alpha  occ. eigenvalues --  -20.56714 -20.54426  -1.33990  -1.31746  -0.71393
 Alpha  occ. eigenvalues --   -0.69135  -0.57533  -0.55229  -0.51118  -0.48880
 Alpha virt. eigenvalues --    0.12384   0.16002   0.19433   0.22919   0.53217
 Alpha virt. eigenvalues --    0.55474   0.56253   0.58714   0.68612   0.69351
 Alpha virt. eigenvalues --    0.77760   0.79077   0.79607   0.79952   0.83260

 Mulliken charges:
               1
     1  O   -0.518595
     2  H    0.264689
     3  H    0.250442
     4  O   -0.512692
     5  H    0.260214
     6  H    0.255942
 Sum of Mulliken charges =  -0.00000

 Dipole moment (field-independent basis, Debye):
    X=             -2.0317    Y=             -3.2070    Z=             -0.0000  Tot=              3.7964
 Quadrupole moment (field-independent basis, Debye-Ang):
   XX=             -9.3655   YY=             -7.3602   ZZ=            -14.7197
   XY=             -4.1514   XZ=             -0.0000   YZ=              0.0000

 CCSD(T)=-152.662992\RMSD=6.864e-09\PG=CS [SG(H4O2)]\\@
 Normal termination of Gaussian 16 at Fri Aug 26 18:04:49 2022.
