 Gaussian 16, Revision A.03,
 Gaussian 16:  ES64L-G16RevA.03 25-Dec-2016

 ------------------
 #p CCSD(T)/cc-pVTZ
 ------------------

 ------------
 H2O_H2O_4314
 ------------
 Symbolic Z-matrix:
 Charge =  0 Multiplicity = 1

                         Standard orientation:
 ---------------------------------------------------------------------
 Center     Atomic      Atomic             Coordinates (Angstroms)
 Number     Number       Type             X           Y           Z
 ---------------------------------------------------------------------
      1          8           0        0.048556    2.827918   -0.000000
      2          1           0        0.047180    1.845317   -0.000000
      3          1           0       -0.880490    3.147885   -0.000000
      4          8           0        0.048556   -2.647501    0.000000
      5          1           0        0.827268   -3.246762    0.000000
      6          1           0       -0.770859   -3.189778    0.000000
 ---------------------------------------------------------------------

 SCF Done:  E(RHF) =  -152.108519664     A.U. after   10 cycles
 E2 =    -0.5258117481D+00 EUMP2 =    -0.15263433141253D+03
 CCSD(T)
 CCSD(T)= -0.15266152491D+03

 The electronic state is 1-A'.
 Alpha  occ. eigenvalues --  -20.56221 -20.54898  -1.33521  -1.32206  -0.70925
 Alpha  occ. eigenvalues --   -0.69606  -0.57019  -0.55679  -0.50641  -0.49330
 Alpha virt. eigenvalues --    0.13270   0.15024   0.19681   0.21128   0.53626
 Alpha virt. eigenvalues --    0.54868   0.56636   0.57808   0.66746   0.68889
 Alpha virt. eigenvalues --    0.78248   0.79523   0.79645   0.79901   0.82777

 Mulliken charges:
               1
     1  O   -0.514259
     2  H    0.260913
     3  H    0.253129
     4  O   -0.514973
     5  H    0.258590
     6  H    0.256599
 Sum of Mulliken charges =  -0.00000

 Dipole moment (field-independent basis, Debye):
    X=             -1.6644    Y=             -3.1729    Z=              0.0000  Tot=              3.5829
 Quadrupole moment (field-independent basis, Debye-Ang):
   XX=             -9.1821   YY=             -6.3380   ZZ=            -14.7152
   XY=             -5.4537   XZ=              0.0000   YZ=             -0.0000

 Normal termination of Gaussian 16 at Sun Aug 28 01:48:28 2022.
