 Gaussian 16, Revision A.03,
 Gaussian 16:  ES64L-G16RevA.03 25-Dec-2016

 ------------------
 #p CCSD(T)/cc-pVTZ
 ------------------

 ------------
 H2O_H2O_1227
 ------------
 Symbolic Z-matrix:
 Charge =  0 Multiplicity = 1

                         Standard orientation:
 ---------------------------------------------------------------------
 Center     Atomic      Atomic             Coordinates (Angstroms)
 Number     Number       Type             X           Y           Z
 ---------------------------------------------------------------------
      1          8           0        0.088238   -1.581752    0.000000
      2          1           0        0.087973   -0.599151    0.000000
      3          1           0       -0.841169   -1.900670    0.000000
      4          8           0        0.088238    1.437449    0.000000
      5          1           0        0.216231    2.411679    0.000000
      6          1           0       -0.874845    1.242572    0.000000
 ---------------------------------------------------------------------

 SCF Done:  E(RHF) =  -152.109399273     A.U. after   10 cycles
 E2 =    -0.5283880737D+00 EUMP2 =    -0.15263778734685D+03
 CCSD(T)
 CCSD(T)= -0.15266480558D+03

 The electronic state is 1-A'.
 Alpha  occ. eigenvalues --  -20.58292 -20.53676  -1.35749  -1.31118  -0.73587
 Alpha  occ. eigenvalues --   -0.68466  -0.59212  -0.54391  -0.52763  -0.48207
 Alpha virt. eigenvalues --    0.11537   0.16507   0.20296   0.29518   0.48932
 Alpha virt. eigenvalues --    0.54072   0.58035   0.59088   0.68387   0.72766
 Alpha virt. eigenvalues --    0.74454   0.77668   0.81113   0.81544   0.83434

 Mulliken charges:
               1
     1  O   -0.531492
     2  H    0.279576
     3  H    0.235856
     4  O   -0.466251
     5  H    0.241380
     6  H    0.240931
 Sum of Mulliken charges =  -0.00000

 Dipole moment (field-independent basis, Debye):
    X=             -2.9266    Y=              2.9183    Z=              0.0000  Tot=              4.1330
 Quadrupole moment (field-independent basis, Debye-Ang):
   XX=            -10.6048   YY=             -8.9454   ZZ=            -14.7083
   XY=              2.4216   XZ=              0.0000   YZ=              0.0000

 CCSD(T)=-152.6648056\RMSD=7.451e-09\PG=CS [SG(H4O2)]\\@
 Normal termination of Gaussian 16 at Fri Aug 26 23:14:52 2022.
