 Gaussian 16, Revision A.03,
 Gaussian 16:  ES64L-G16RevA.03 25-Dec-2016

 ------------------
 #p CCSD(T)/cc-pVTZ
 ------------------

 ------------
 H2O_H2O_1814
 ------------
 Symbolic Z-matrix:
 Charge =  0 Multiplicity = 1

                         Standard orientation:
 ---------------------------------------------------------------------
 Center     Atomic      Atomic             Coordinates (Angstroms)
 Number     Number       Type             X           Y           Z
 ---------------------------------------------------------------------
      1          8           0        0.048629    1.830687    0.000000
      2          1           0        0.046465    0.848088    0.000000
      3          1           0       -0.880160    2.151400    0.000000
      4          8           0        0.048629   -1.650348   -0.000000
      5          1           0        0.826860   -2.250232   -0.000000
      6          1           0       -0.771221   -2.191968   -0.000000
 ---------------------------------------------------------------------

 SCF Done:  E(RHF) =  -152.112925921     A.U. after   10 cycles
 E2 =    -0.5266307560D+00 EUMP2 =    -0.15263955667689D+03
 CCSD(T)
 CCSD(T)= -0.15266659966D+03

 The electronic state is 1-A'.
 Alpha  occ. eigenvalues --  -20.57559 -20.53435  -1.34813  -1.30817  -0.72183
 Alpha  occ. eigenvalues --   -0.68291  -0.58557  -0.54246  -0.51952  -0.47970
 Alpha virt. eigenvalues --    0.12155   0.17206   0.19103   0.27213   0.50957
 Alpha virt. eigenvalues --    0.54848   0.56350   0.59096   0.69065   0.72361
 Alpha virt. eigenvalues --    0.75587   0.77115   0.80997   0.83298   0.84522

 Mulliken charges:
               1
     1  O   -0.532980
     2  H    0.271690
     3  H    0.247653
     4  O   -0.507379
     5  H    0.263276
     6  H    0.257739
 Sum of Mulliken charges =  -0.00000

 Dipole moment (field-independent basis, Debye):
    X=             -1.6395    Y=             -3.4388    Z=             -0.0000  Tot=              3.8096
 Quadrupole moment (field-independent basis, Debye-Ang):
   XX=             -9.1880   YY=             -8.0094   ZZ=            -14.7317
   XY=             -3.9156   XZ=             -0.0000   YZ=              0.0000

 Normal termination of Gaussian 16 at Sun Aug 28 01:52:21 2022.
