 Gaussian 16, Revision A.03,
 Gaussian 16:  ES64L-G16RevA.03 25-Dec-2016

 ------------------
 #p CCSD(T)/cc-pVTZ
 ------------------

 ------------
 H2O_H2O_4646
 ------------
 Symbolic Z-matrix:
 Charge =  0 Multiplicity = 1

                         Standard orientation:
 ---------------------------------------------------------------------
 Center     Atomic      Atomic             Coordinates (Angstroms)
 Number     Number       Type             X           Y           Z
 ---------------------------------------------------------------------
      1          8           0       -0.023162    2.952122    0.000000
      2          1           0       -0.021097    1.969522    0.000000
      3          1           0        0.905660    3.272740    0.000000
      4          8           0       -0.023162   -2.781709    0.000000
      5          1           0       -0.986478   -2.975430    0.000000
      6          1           0        0.472501   -3.630134    0.000000
 ---------------------------------------------------------------------

 SCF Done:  E(RHF) =  -152.108399553     A.U. after   10 cycles
 E2 =    -0.5257986517D+00 EUMP2 =    -0.15263419820463D+03
 CCSD(T)
 CCSD(T)= -0.15266139712D+03

 The electronic state is 1-A'.
 Alpha  occ. eigenvalues --  -20.56155 -20.55036  -1.33458  -1.32343  -0.70863
 Alpha  occ. eigenvalues --   -0.69748  -0.56950  -0.55815  -0.50577  -0.49467
 Alpha virt. eigenvalues --    0.13375   0.14856   0.19595   0.21076   0.53579
 Alpha virt. eigenvalues --    0.54857   0.56691   0.57772   0.66915   0.68609
 Alpha virt. eigenvalues --    0.78308   0.79391   0.79601   0.80567   0.82388

 Mulliken charges:
               1
     1  O   -0.514116
     2  H    0.259577
     3  H    0.254460
     4  O   -0.514664
     5  H    0.257258
     6  H    0.257485
 Sum of Mulliken charges =  -0.00000

 Dipole moment (field-independent basis, Debye):
    X=              0.7956    Y=             -2.9868    Z=              0.0000  Tot=              3.0909
 Quadrupole moment (field-independent basis, Debye-Ang):
   XX=             -9.3624   YY=             -6.7159   ZZ=            -14.7147
   XY=              7.2625   XZ=              0.0000   YZ=              0.0000

 Normal termination of Gaussian 16 at Sun Aug 28 04:36:12 2022.
