 Gaussian 16, Revision A.03,
 Gaussian 16:  ES64L-G16RevA.03 25-Dec-2016

 ------------------
 #p CCSD(T)/cc-pVTZ
 ------------------

 -----------
 H2O_H2O_532
 -----------
 Symbolic Z-matrix:
 Charge =  0 Multiplicity = 1

                         Standard orientation:
 ---------------------------------------------------------------------
 Center     Atomic      Atomic             Coordinates (Angstroms)
 Number     Number       Type             X           Y           Z
 ---------------------------------------------------------------------
      1          8           0        0.073588    1.314790   -0.000000
      2          1           0        0.072250    0.332189   -0.000000
      3          1           0       -0.855471    1.634722    0.000000
      4          8           0        0.073588   -1.147940   -0.000000
      5          1           0        0.506981   -2.029799   -0.000000
      6          1           0       -0.901162   -1.271913    0.000000
 ---------------------------------------------------------------------

 SCF Done:  E(RHF) =  -152.098910498     A.U. after   11 cycles
 E2 =    -0.5321152527D+00 EUMP2 =    -0.15263102575102D+03
 CCSD(T)
 CCSD(T)= -0.15265747392D+03

 The electronic state is 1-A'.
 Alpha  occ. eigenvalues --  -20.60067 -20.49843  -1.38542  -1.28107  -0.76190
 Alpha  occ. eigenvalues --   -0.69833  -0.58865  -0.55110  -0.50480  -0.45065
 Alpha virt. eigenvalues --    0.11197   0.16835   0.20291   0.32990   0.48345
 Alpha virt. eigenvalues --    0.53271   0.59622   0.63237   0.71626   0.72104
 Alpha virt. eigenvalues --    0.73959   0.78435   0.79438   0.83974   0.83996

 Mulliken charges:
               1
     1  O   -0.590969
     2  H    0.301461
     3  H    0.219914
     4  O   -0.410801
     5  H    0.239451
     6  H    0.240944
 Sum of Mulliken charges =  -0.00000

 Dipole moment (field-independent basis, Debye):
    X=             -2.3535    Y=             -3.9528    Z=              0.0000  Tot=              4.6004
 Quadrupole moment (field-independent basis, Debye-Ang):
   XX=             -9.8289   YY=             -9.3136   ZZ=            -14.6620
   XY=             -2.7893   XZ=              0.0000   YZ=              0.0000

 Normal termination of Gaussian 16 at Fri Aug 26 18:52:54 2022.
