 Gaussian 16, Revision A.03,
 Gaussian 16:  ES64L-G16RevA.03 25-Dec-2016

 ------------------
 #p CCSD(T)/cc-pVTZ
 ------------------

 ------------
 H2O_H2O_2952
 ------------
 Symbolic Z-matrix:
 Charge =  0 Multiplicity = 1

                         Standard orientation:
 ---------------------------------------------------------------------
 Center     Atomic      Atomic             Coordinates (Angstroms)
 Number     Number       Type             X           Y           Z
 ---------------------------------------------------------------------
      1          8           0        0.088232   -2.269823    0.000000
      2          1           0        0.088050   -1.287222    0.000000
      3          1           0       -0.841202   -2.588662    0.000000
      4          8           0        0.088232    2.125504    0.000000
      5          1           0        0.216307    3.099724    0.000000
      6          1           0       -0.874867    1.930709    0.000000
 ---------------------------------------------------------------------

 SCF Done:  E(RHF) =  -152.108476931     A.U. after   10 cycles
 E2 =    -0.5260704241D+00 EUMP2 =    -0.15263454735522D+03
 CCSD(T)
 CCSD(T)= -0.15266171960D+03

 The electronic state is 1-A'.
 Alpha  occ. eigenvalues --  -20.56675 -20.54973  -1.33966  -1.32279  -0.71396
 Alpha  occ. eigenvalues --   -0.69658  -0.57447  -0.55735  -0.51078  -0.49396
 Alpha virt. eigenvalues --    0.11721   0.15657   0.19431   0.23091   0.54351
 Alpha virt. eigenvalues --    0.54682   0.56446   0.58195   0.68150   0.69093
 Alpha virt. eigenvalues --    0.77802   0.78565   0.79477   0.80949   0.82729

 Mulliken charges:
               1
     1  O   -0.512243
     2  H    0.261251
     3  H    0.249145
     4  O   -0.508849
     5  H    0.259704
     6  H    0.250992
 Sum of Mulliken charges =  -0.00000

 Dipole moment (field-independent basis, Debye):
    X=             -3.0038    Y=              2.5949    Z=              0.0000  Tot=              3.9694
 Quadrupole moment (field-independent basis, Debye-Ang):
   XX=            -10.5630   YY=             -8.6673   ZZ=            -14.7143
   XY=              2.5728   XZ=              0.0000   YZ=              0.0000

 Normal termination of Gaussian 16 at Fri Aug 26 18:41:39 2022.
