 Gaussian 16, Revision A.03,
 Gaussian 16:  ES64L-G16RevA.03 25-Dec-2016

 ------------------
 #p CCSD(T)/cc-pVTZ
 ------------------

 ------------
 H2O_H2O_2907
 ------------
 Symbolic Z-matrix:
 Charge =  0 Multiplicity = 1

                         Standard orientation:
 ---------------------------------------------------------------------
 Center     Atomic      Atomic             Coordinates (Angstroms)
 Number     Number       Type             X           Y           Z
 ---------------------------------------------------------------------
      1          8           0        0.073538    2.262166   -0.000000
      2          1           0        0.072782    1.279565   -0.000000
      3          1           0       -0.855709    2.581548    0.000000
      4          8           0        0.073538   -2.095229   -0.000000
      5          1           0        0.507454   -2.976832   -0.000000
      6          1           0       -0.901137   -2.219780    0.000000
 ---------------------------------------------------------------------

 SCF Done:  E(RHF) =  -152.109361485     A.U. after   10 cycles
 E2 =    -0.5260220083D+00 EUMP2 =    -0.15263538349315D+03
 CCSD(T)
 CCSD(T)= -0.15266253278D+03

 The electronic state is 1-A'.
 Alpha  occ. eigenvalues --  -20.56701 -20.54608  -1.33983  -1.31923  -0.71397
 Alpha  occ. eigenvalues --   -0.69307  -0.57502  -0.55395  -0.51105  -0.49050
 Alpha virt. eigenvalues --    0.12172   0.15871   0.19435   0.22870   0.53665
 Alpha virt. eigenvalues --    0.55252   0.56289   0.58546   0.68372   0.69336
 Alpha virt. eigenvalues --    0.77774   0.78917   0.79796   0.80223   0.83045

 Mulliken charges:
               1
     1  O   -0.516152
     2  H    0.263597
     3  H    0.249606
     4  O   -0.511214
     5  H    0.259951
     6  H    0.254212
 Sum of Mulliken charges =  -0.00000

 Dipole moment (field-independent basis, Debye):
    X=             -2.5045    Y=             -3.0121    Z=              0.0000  Tot=              3.9173
 Quadrupole moment (field-independent basis, Debye-Ang):
   XX=             -9.8176   YY=             -7.7322   ZZ=            -14.7178
   XY=             -3.5213   XZ=              0.0000   YZ=              0.0000

 CCSD(T)=-152.6625328\RMSD=6.970e-09\PG=CS [SG(H4O2)]\\@
 Normal termination of Gaussian 16 at Fri Aug 26 18:15:48 2022.
