 Gaussian 16, Revision A.03,
 Gaussian 16:  ES64L-G16RevA.03 25-Dec-2016

 ------------------
 #p CCSD(T)/cc-pVTZ
 ------------------

 -----------
 H2O_H2O_727
 -----------
 Symbolic Z-matrix:
 Charge =  0 Multiplicity = 1

                         Standard orientation:
 ---------------------------------------------------------------------
 Center     Atomic      Atomic             Coordinates (Angstroms)
 Number     Number       Type             X           Y           Z
 ---------------------------------------------------------------------
      1          8           0        0.088241   -1.382310    0.000000
      2          1           0        0.087935   -0.399709    0.000000
      3          1           0       -0.841153   -1.701266    0.000000
      4          8           0        0.088241    1.238014    0.000000
      5          1           0        0.216194    2.212248    0.000000
      6          1           0       -0.874834    1.043096    0.000000
 ---------------------------------------------------------------------

 SCF Done:  E(RHF) =  -152.102002152     A.U. after   10 cycles
 E2 =    -0.5311801774D+00 EUMP2 =    -0.15263318232993D+03
 CCSD(T)
 CCSD(T)= -0.15265993469D+03

 The electronic state is 1-A'.
 Alpha  occ. eigenvalues --  -20.59369 -20.52126  -1.37463  -1.29918  -0.75944
 Alpha  occ. eigenvalues --   -0.68061  -0.59744  -0.54146  -0.52838  -0.46935
 Alpha virt. eigenvalues --    0.11358   0.16513   0.20631   0.31997   0.48284
 Alpha virt. eigenvalues --    0.52737   0.58692   0.62846   0.69264   0.71555
 Alpha virt. eigenvalues --    0.74055   0.78195   0.79138   0.82918   0.83117

 Mulliken charges:
               1
     1  O   -0.554887
     2  H    0.290106
     3  H    0.223551
     4  O   -0.423737
     5  H    0.233659
     6  H    0.231308
 Sum of Mulliken charges =  -0.00000

 Dipole moment (field-independent basis, Debye):
    X=             -2.8682    Y=              3.2489    Z=              0.0000  Tot=              4.3339
 Quadrupole moment (field-independent basis, Debye-Ang):
   XX=            -10.5994   YY=             -9.2071   ZZ=            -14.6711
   XY=              2.3400   XZ=              0.0000   YZ=              0.0000

 Normal termination of Gaussian 16 at Fri Aug 26 20:08:15 2022.
