 Gaussian 16, Revision A.03,
 Gaussian 16:  ES64L-G16RevA.03 25-Dec-2016

 ------------------
 #p CCSD(T)/cc-pVTZ
 ------------------

 ------------
 H2O_H2O_4937
 ------------
 Symbolic Z-matrix:
 Charge =  0 Multiplicity = 1

                         Standard orientation:
 ---------------------------------------------------------------------
 Center     Atomic      Atomic             Coordinates (Angstroms)
 Number     Number       Type             X           Y           Z
 ---------------------------------------------------------------------
      1          8           0        0.055959    3.076416    0.000000
      2          1           0        0.054909    2.093815    0.000000
      3          1           0       -0.873193    3.396075   -0.000000
      4          8           0        0.055959   -2.897469    0.000000
      5          1           0        0.750020   -3.593015    0.000000
      6          1           0       -0.827085   -3.328445   -0.000000
 ---------------------------------------------------------------------

 SCF Done:  E(RHF) =  -152.108180275     A.U. after   10 cycles
 E2 =    -0.5258138657D+00 EUMP2 =    -0.15263399414068D+03
 CCSD(T)
 CCSD(T)= -0.15266119798D+03

 The electronic state is 1-A'.
 Alpha  occ. eigenvalues --  -20.56119 -20.55043  -1.33421  -1.32349  -0.70826
 Alpha  occ. eigenvalues --   -0.69750  -0.56904  -0.55815  -0.50538  -0.49469
 Alpha virt. eigenvalues --    0.13522   0.14754   0.19727   0.20885   0.53716
 Alpha virt. eigenvalues --    0.54796   0.56711   0.57751   0.67068   0.68504
 Alpha virt. eigenvalues --    0.78346   0.79392   0.79743   0.80527   0.82202

 Mulliken charges:
               1
     1  O   -0.512760
     2  H    0.259474
     3  H    0.253251
     4  O   -0.513456
     5  H    0.257796
     6  H    0.255695
 Sum of Mulliken charges =  -0.00000

 Dipole moment (field-independent basis, Debye):
    X=             -1.9210    Y=             -3.1311    Z=              0.0000  Tot=              3.6734
 Quadrupole moment (field-independent basis, Debye-Ang):
   XX=             -9.2849   YY=             -6.0249   ZZ=            -14.7140
   XY=             -5.3464   XZ=              0.0000   YZ=              0.0000

 Normal termination of Gaussian 16 at Sun Aug 28 07:07:01 2022.
