 Gaussian 16, Revision A.03,
 Gaussian 16:  ES64L-G16RevA.03 25-Dec-2016

 ------------------
 #p CCSD(T)/cc-pVTZ
 ------------------

 ------------
 H2O_H2O_1368
 ------------
 Symbolic Z-matrix:
 Charge =  0 Multiplicity = 1

                         Standard orientation:
 ---------------------------------------------------------------------
 Center     Atomic      Atomic             Coordinates (Angstroms)
 Number     Number       Type             X           Y           Z
 ---------------------------------------------------------------------
      1          8           0        0.033881    1.649630   -0.000000
      2          1           0        0.030664    0.667034   -0.000000
      3          1           0       -0.894564    1.971338   -0.000000
      4          8           0        0.033881   -1.472176    0.000000
      5          1           0        0.940451   -1.851171    0.000000
      6          1           0       -0.618639   -2.206834    0.000000
 ---------------------------------------------------------------------

 SCF Done:  E(RHF) =  -152.114166702     A.U. after   10 cycles
 E2 =    -0.5273959159D+00 EUMP2 =    -0.15264156261816D+03
 CCSD(T)
 CCSD(T)= -0.15266853190D+03

 The electronic state is 1-A'.
 Alpha  occ. eigenvalues --  -20.58137 -20.52665  -1.35459  -1.30155  -0.72800
 Alpha  occ. eigenvalues --   -0.67948  -0.59293  -0.53435  -0.52579  -0.47305
 Alpha virt. eigenvalues --    0.12077   0.17906   0.18847   0.29845   0.49869
 Alpha virt. eigenvalues --    0.54432   0.55899   0.60575   0.68723   0.72312
 Alpha virt. eigenvalues --    0.73783   0.77044   0.81784   0.82861   0.84766

 Mulliken charges:
               1
     1  O   -0.549394
     2  H    0.281472
     3  H    0.247693
     4  O   -0.503363
     5  H    0.265582
     6  H    0.258010
 Sum of Mulliken charges =  -0.00000

 Dipole moment (field-independent basis, Debye):
    X=             -1.1349    Y=             -3.5361    Z=              0.0000  Tot=              3.7138
 Quadrupole moment (field-independent basis, Debye-Ang):
   XX=             -9.1854   YY=             -8.4160   ZZ=            -14.7347
   XY=             -3.8779   XZ=              0.0000   YZ=             -0.0000

 Normal termination of Gaussian 16 at Sat Aug 27 00:09:35 2022.
