 Gaussian 16, Revision A.03,
 Gaussian 16:  ES64L-G16RevA.03 25-Dec-2016

 ------------------
 #p CCSD(T)/cc-pVTZ
 ------------------

 -----------
 H2O_H2O_328
 -----------
 Symbolic Z-matrix:
 Charge =  0 Multiplicity = 1

                         Standard orientation:
 ---------------------------------------------------------------------
 Center     Atomic      Atomic             Coordinates (Angstroms)
 Number     Number       Type             X           Y           Z
 ---------------------------------------------------------------------
      1          8           0        0.085621   -1.225614    0.000000
      2          1           0        0.085079   -0.243013    0.000000
      3          1           0       -0.843696   -1.544793    0.000000
      4          8           0        0.085621    1.076064    0.000000
      5          1           0        0.276785    2.039891    0.000000
      6          1           0       -0.888109    0.944318    0.000000
 ---------------------------------------------------------------------

 SCF Done:  E(RHF) =  -152.077374755     A.U. after   11 cycles
 E2 =    -0.5349992283D+00 EUMP2 =    -0.15261237398363D+03
 CCSD(T)
 CCSD(T)= -0.15263853229D+03

 The electronic state is 1-A'.
 Alpha  occ. eigenvalues --  -20.60692 -20.49234  -1.40441  -1.27841  -0.79393
 Alpha  occ. eigenvalues --   -0.69759  -0.58220  -0.56213  -0.49931  -0.44727
 Alpha virt. eigenvalues --    0.10961   0.16287   0.21086   0.32471   0.49052
 Alpha virt. eigenvalues --    0.51857   0.59452   0.65417   0.71652   0.72811
 Alpha virt. eigenvalues --    0.75475   0.76838   0.79370   0.83405   0.85111

 Mulliken charges:
               1
     1  O   -0.589740
     2  H    0.282216
     3  H    0.206115
     4  O   -0.359984
     5  H    0.228319
     6  H    0.233075
 Sum of Mulliken charges =  -0.00000

 Dipole moment (field-independent basis, Debye):
    X=             -2.7037    Y=              3.8509    Z=              0.0000  Tot=              4.7052
 Quadrupole moment (field-independent basis, Debye-Ang):
   XX=            -10.4058   YY=             -9.5823   ZZ=            -14.6016
   XY=              2.3523   XZ=              0.0000   YZ=              0.0000

 Normal termination of Gaussian 16 at Fri Aug 26 17:28:03 2022.
