 Gaussian 16, Revision A.03,
 Gaussian 16:  ES64L-G16RevA.03 25-Dec-2016

 ------------------
 #p CCSD(T)/cc-pVTZ
 ------------------

 ----------
 H2O_H2O_17
 ----------
 Symbolic Z-matrix:
 Charge =  0 Multiplicity = 1

                         Standard orientation:
 ---------------------------------------------------------------------
 Center     Atomic      Atomic             Coordinates (Angstroms)
 Number     Number       Type             X           Y           Z
 ---------------------------------------------------------------------
      1          8           0        0.037676    1.111869   -0.000000
      2          1           0        0.033069    0.129279   -0.000000
      3          1           0       -0.890312    1.434890   -0.000000
      4          8           0        0.037676   -0.933098    0.000000
      5          1           0        0.916898   -1.371819    0.000000
      6          1           0       -0.662472   -1.622517    0.000000
 ---------------------------------------------------------------------

 SCF Done:  E(RHF) =  -152.027104651     A.U. after   11 cycles
 E2 =    -0.5361114394D+00 EUMP2 =    -0.15256321609026D+03
 CCSD(T)
 CCSD(T)= -0.15258866518D+03

 The electronic state is 1-A'.
 Alpha  occ. eigenvalues --  -20.62271 -20.43247  -1.44740  -1.23964  -0.80964
 Alpha  occ. eigenvalues --   -0.77743  -0.59162  -0.54141  -0.43292  -0.40337
 Alpha virt. eigenvalues --    0.10236   0.16392   0.21289   0.33007   0.46603
 Alpha virt. eigenvalues --    0.51693   0.62274   0.66684   0.70138   0.70396
 Alpha virt. eigenvalues --    0.77550   0.78891   0.81764   0.83040   0.89462

 Mulliken charges:
               1
     1  O   -0.689707
     2  H    0.275786
     3  H    0.203563
     4  O   -0.285956
     5  H    0.259793
     6  H    0.236520
 Sum of Mulliken charges =  -0.00000

 Dipole moment (field-independent basis, Debye):
    X=             -1.1245    Y=             -5.1833    Z=              0.0000  Tot=              5.3039
 Quadrupole moment (field-independent basis, Debye-Ang):
   XX=             -9.0780   YY=            -10.3420   ZZ=            -14.5366
   XY=             -2.6222   XZ=              0.0000   YZ=             -0.0000

 Normal termination of Gaussian 16 at Fri Aug 26 15:18:04 2022.
