 Gaussian 16, Revision A.03,
 Gaussian 16:  ES64L-G16RevA.03 25-Dec-2016

 ------------------
 #p CCSD(T)/cc-pVTZ
 ------------------

 ------------
 H2O_H2O_4801
 ------------
 Symbolic Z-matrix:
 Charge =  0 Multiplicity = 1

                         Standard orientation:
 ---------------------------------------------------------------------
 Center     Atomic      Atomic             Coordinates (Angstroms)
 Number     Number       Type             X           Y           Z
 ---------------------------------------------------------------------
      1          8           0        0.090683   -3.004701    0.000000
      2          1           0        0.090618   -2.022099    0.000000
      3          1           0       -0.838789   -3.323429    0.000000
      4          8           0        0.090683    2.865989    0.000000
      5          1           0        0.154884    3.846491    0.000000
      6          1           0       -0.857644    2.608732    0.000000
 ---------------------------------------------------------------------

 SCF Done:  E(RHF) =  -152.107657645     A.U. after   10 cycles
 E2 =    -0.5258638371D+00 EUMP2 =    -0.15263352148248D+03
 CCSD(T)
 CCSD(T)= -0.15266073638D+03

 The electronic state is 1-A'.
 Alpha  occ. eigenvalues --  -20.56159 -20.55333  -1.33461  -1.32635  -0.70874
 Alpha  occ. eigenvalues --   -0.70033  -0.56921  -0.56087  -0.50572  -0.49748
 Alpha virt. eigenvalues --    0.13074   0.14610   0.19082   0.21309   0.53412
 Alpha virt. eigenvalues --    0.54721   0.56597   0.57597   0.67050   0.68325
 Alpha virt. eigenvalues --    0.78316   0.79126   0.79700   0.80978   0.81661

 Mulliken charges:
               1
     1  O   -0.509770
     2  H    0.257285
     3  H    0.252457
     4  O   -0.510639
     5  H    0.257795
     6  H    0.252871
 Sum of Mulliken charges =  -0.00000

 Dipole moment (field-independent basis, Debye):
    X=             -3.1123    Y=              2.4284    Z=              0.0000  Tot=              3.9476
 Quadrupole moment (field-independent basis, Debye-Ang):
   XX=            -10.6989   YY=             -8.8486   ZZ=            -14.7120
   XY=              2.4302   XZ=              0.0000   YZ=              0.0000

 Normal termination of Gaussian 16 at Sun Aug 28 05:58:44 2022.
