 Gaussian 16, Revision A.03,
 Gaussian 16:  ES64L-G16RevA.03 25-Dec-2016

 ------------------
 #p CCSD(T)/cc-pVTZ
 ------------------

 ------------
 H2O_H2O_4248
 ------------
 Symbolic Z-matrix:
 Charge =  0 Multiplicity = 1

                         Standard orientation:
 ---------------------------------------------------------------------
 Center     Atomic      Atomic             Coordinates (Angstroms)
 Number     Number       Type             X           Y           Z
 ---------------------------------------------------------------------
      1          8           0       -0.016587    2.788767    0.000000
      2          1           0       -0.014195    1.806169    0.000000
      3          1           0        0.912127    3.109696    0.000000
      4          8           0       -0.016587   -2.625361    0.000000
      5          1           0       -0.996927   -2.692014    0.000000
      6          1           0        0.364395   -3.531098    0.000000
 ---------------------------------------------------------------------

 SCF Done:  E(RHF) =  -152.108566926     A.U. after   10 cycles
 E2 =    -0.5258026228D+00 EUMP2 =    -0.15263436954839D+03
 CCSD(T)
 CCSD(T)= -0.15266156286D+03

 The electronic state is 1-A'.
 Alpha  occ. eigenvalues --  -20.56227 -20.55010  -1.33529  -1.32318  -0.70935
 Alpha  occ. eigenvalues --   -0.69725  -0.57027  -0.55794  -0.50649  -0.49444
 Alpha virt. eigenvalues --    0.13061   0.15030   0.19370   0.21456   0.53339
 Alpha virt. eigenvalues --    0.55011   0.56645   0.57809   0.66735   0.68820
 Alpha virt. eigenvalues --    0.78240   0.79298   0.79411   0.80707   0.82634

 Mulliken charges:
               1
     1  O   -0.514900
     2  H    0.259864
     3  H    0.254823
     4  O   -0.515345
     5  H    0.257282
     6  H    0.258276
 Sum of Mulliken charges =  -0.00000

 Dipole moment (field-independent basis, Debye):
    X=              0.5703    Y=             -2.8736    Z=              0.0000  Tot=              2.9296
 Quadrupole moment (field-independent basis, Debye-Ang):
   XX=             -9.5433   YY=             -7.3169   ZZ=            -14.7152
   XY=              7.3219   XZ=              0.0000   YZ=              0.0000

 Normal termination of Gaussian 16 at Sun Aug 28 01:10:56 2022.
