 Gaussian 16, Revision A.03,
 Gaussian 16:  ES64L-G16RevA.03 25-Dec-2016

 ------------------
 #p CCSD(T)/cc-pVTZ
 ------------------

 ------------
 H2O_H2O_1125
 ------------
 Symbolic Z-matrix:
 Charge =  0 Multiplicity = 1

                         Standard orientation:
 ---------------------------------------------------------------------
 Center     Atomic      Atomic             Coordinates (Angstroms)
 Number     Number       Type             X           Y           Z
 ---------------------------------------------------------------------
      1          8           0        0.092949   -1.535609    0.000000
      2          1           0        0.092949   -0.553007    0.000000
      3          1           0       -0.836544   -1.854275    0.000000
      4          8           0        0.092949    1.402821    0.000000
      5          1           0        0.092950    2.385424    0.000000
      6          1           0       -0.836544    1.084155    0.000000
 ---------------------------------------------------------------------

 SCF Done:  E(RHF) =  -152.107047866     A.U. after   10 cycles
 E2 =    -0.5290316909D+00 EUMP2 =    -0.15263607955712D+03
 CCSD(T)
 CCSD(T)= -0.15266310329D+03

 The electronic state is 1-A'.
 Alpha  occ. eigenvalues --  -20.58445 -20.53892  -1.36007  -1.31346  -0.74191
 Alpha  occ. eigenvalues --   -0.68449  -0.59308  -0.54602  -0.52948  -0.48412
 Alpha virt. eigenvalues --    0.11463   0.16362   0.20720   0.29821   0.48507
 Alpha virt. eigenvalues --    0.53280   0.58086   0.59976   0.68020   0.71976
 Alpha virt. eigenvalues --    0.73897   0.78285   0.80421   0.81387   0.83049

 Mulliken charges:
               1
     1  O   -0.528564
     2  H    0.279710
     3  H    0.233300
     4  O   -0.456401
     5  H    0.239242
     6  H    0.232714
 Sum of Mulliken charges =  -0.00000

 Dipole moment (field-independent basis, Debye):
    X=             -3.0728    Y=              2.7333    Z=              0.0000  Tot=              4.1125
 Quadrupole moment (field-independent basis, Debye-Ang):
   XX=            -10.9039   YY=             -9.1961   ZZ=            -14.6964
   XY=              2.0929   XZ=              0.0000   YZ=              0.0000

 Normal termination of Gaussian 16 at Fri Aug 26 22:36:46 2022.
