 Gaussian 16, Revision A.03,
 Gaussian 16:  ES64L-G16RevA.03 25-Dec-2016

 ------------------
 #p CCSD(T)/cc-pVTZ
 ------------------

 ------------
 H2O_H2O_3315
 ------------
 Symbolic Z-matrix:
 Charge =  0 Multiplicity = 1

                         Standard orientation:
 ---------------------------------------------------------------------
 Center     Atomic      Atomic             Coordinates (Angstroms)
 Number     Number       Type             X           Y           Z
 ---------------------------------------------------------------------
      1          8           0        0.044853    2.429036    0.000000
      2          1           0        0.043107    1.446436    0.000000
      3          1           0       -0.884073    2.749353    0.000000
      4          8           0        0.044853   -2.248631   -0.000000
      5          1           0        0.860886   -2.795985   -0.000000
      6          1           0       -0.737564   -2.843045   -0.000000
 ---------------------------------------------------------------------

 SCF Done:  E(RHF) =  -152.109454643     A.U. after   10 cycles
 E2 =    -0.5258797694D+00 EUMP2 =    -0.15263533441194D+03
 CCSD(T)
 CCSD(T)= -0.15266249237D+03

 The electronic state is 1-A'.
 Alpha  occ. eigenvalues --  -20.56511 -20.54572  -1.33797  -1.31889  -0.71198
 Alpha  occ. eigenvalues --   -0.69285  -0.57326  -0.55374  -0.50924  -0.49021
 Alpha virt. eigenvalues --    0.12668   0.15686   0.19524   0.22084   0.53336
 Alpha virt. eigenvalues --    0.55223   0.56446   0.58190   0.67386   0.69358
 Alpha virt. eigenvalues --    0.77982   0.79050   0.79396   0.79812   0.83122

 Mulliken charges:
               1
     1  O   -0.517651
     2  H    0.263466
     3  H    0.252355
     4  O   -0.515334
     5  H    0.259825
     6  H    0.257340
 Sum of Mulliken charges =  -0.00000

 Dipole moment (field-independent basis, Debye):
    X=             -1.5318    Y=             -3.2238    Z=             -0.0000  Tot=              3.5692
 Quadrupole moment (field-independent basis, Debye-Ang):
   XX=             -9.1569   YY=             -6.9798   ZZ=            -14.7185
   XY=             -5.0006   XZ=             -0.0000   YZ=              0.0000

 Normal termination of Gaussian 16 at Fri Aug 26 20:59:52 2022.
