 Gaussian 16, Revision A.03,
 Gaussian 16:  ES64L-G16RevA.03 25-Dec-2016

 ------------------
 #p CCSD(T)/cc-pVTZ
 ------------------

 ------------
 H2O_H2O_3359
 ------------
 Symbolic Z-matrix:
 Charge =  0 Multiplicity = 1

                         Standard orientation:
 ---------------------------------------------------------------------
 Center     Atomic      Atomic             Coordinates (Angstroms)
 Number     Number       Type             X           Y           Z
 ---------------------------------------------------------------------
      1          8           0        0.066757    2.445014    0.000000
      2          1           0        0.065814    1.462413    0.000000
      3          1           0       -0.862430    2.764572    0.000000
      4          8           0        0.066757   -2.271904   -0.000000
      5          1           0        0.611878   -3.089432   -0.000000
      6          1           0       -0.883371   -2.522430   -0.000000
 ---------------------------------------------------------------------

 SCF Done:  E(RHF) =  -152.109025785     A.U. after   10 cycles
 E2 =    -0.5259072609D+00 EUMP2 =    -0.15263493304555D+03
 CCSD(T)
 CCSD(T)= -0.15266210066D+03

 The electronic state is 1-A'.
 Alpha  occ. eigenvalues --  -20.56500 -20.54700  -1.33789  -1.32013  -0.71197
 Alpha  occ. eigenvalues --   -0.69404  -0.57299  -0.55488  -0.50911  -0.49140
 Alpha virt. eigenvalues --    0.12526   0.15572   0.19472   0.22008   0.53407
 Alpha virt. eigenvalues --    0.55133   0.56405   0.58188   0.67229   0.69315
 Alpha virt. eigenvalues --    0.77996   0.78781   0.79702   0.79985   0.82983

 Mulliken charges:
               1
     1  O   -0.515240
     2  H    0.262591
     3  H    0.251101
     4  O   -0.513843
     5  H    0.260012
     6  H    0.255379
 Sum of Mulliken charges =  -0.00000

 Dipole moment (field-independent basis, Debye):
    X=             -2.2796    Y=             -3.0891    Z=             -0.0000  Tot=              3.8392
 Quadrupole moment (field-independent basis, Debye-Ang):
   XX=             -9.5635   YY=             -7.2593   ZZ=            -14.7169
   XY=             -4.0181   XZ=             -0.0000   YZ=             -0.0000

 Normal termination of Gaussian 16 at Fri Aug 26 21:15:56 2022.
