 Gaussian 16, Revision A.03,
 Gaussian 16:  ES64L-G16RevA.03 25-Dec-2016

 ------------------
 #p CCSD(T)/cc-pVTZ
 ------------------

 ------------
 H2O_H2O_4571
 ------------
 Symbolic Z-matrix:
 Charge =  0 Multiplicity = 1

                         Standard orientation:
 ---------------------------------------------------------------------
 Center     Atomic      Atomic             Coordinates (Angstroms)
 Number     Number       Type             X           Y           Z
 ---------------------------------------------------------------------
      1          8           0       -0.023164    2.922206    0.000000
      2          1           0       -0.021077    1.939606    0.000000
      3          1           0        0.905651    3.242845    0.000000
      4          8           0       -0.023164   -2.751794    0.000000
      5          1           0       -0.986475   -2.945536    0.000000
      6          1           0        0.472518   -3.600208    0.000000
 ---------------------------------------------------------------------

 SCF Done:  E(RHF) =  -152.108434481     A.U. after   10 cycles
 E2 =    -0.5257986499D+00 EUMP2 =    -0.15263423313089D+03
 CCSD(T)
 CCSD(T)= -0.15266143096D+03

 The electronic state is 1-A'.
 Alpha  occ. eigenvalues --  -20.56168 -20.55021  -1.33470  -1.32329  -0.70875
 Alpha  occ. eigenvalues --   -0.69734  -0.56964  -0.55802  -0.50589  -0.49453
 Alpha virt. eigenvalues --    0.13336   0.14889   0.19579   0.21117   0.53553
 Alpha virt. eigenvalues --    0.54877   0.56682   0.57781   0.66876   0.68655
 Alpha virt. eigenvalues --    0.78296   0.79404   0.79556   0.80544   0.82477

 Mulliken charges:
               1
     1  O   -0.514271
     2  H    0.259722
     3  H    0.254451
     4  O   -0.514826
     5  H    0.257342
     6  H    0.257581
 Sum of Mulliken charges =  -0.00000

 Dipole moment (field-independent basis, Debye):
    X=              0.7955    Y=             -2.9885    Z=              0.0000  Tot=              3.0926
 Quadrupole moment (field-independent basis, Debye-Ang):
   XX=             -9.3623   YY=             -6.7544   ZZ=            -14.7148
   XY=              7.1906   XZ=              0.0000   YZ=              0.0000

 Normal termination of Gaussian 16 at Sun Aug 28 03:59:13 2022.
