 Gaussian 16, Revision A.03,
 Gaussian 16:  ES64L-G16RevA.03 25-Dec-2016

 ------------------
 #p CCSD(T)/cc-pVTZ
 ------------------

 ------------
 H2O_H2O_1468
 ------------
 Symbolic Z-matrix:
 Charge =  0 Multiplicity = 1

                         Standard orientation:
 ---------------------------------------------------------------------
 Center     Atomic      Atomic             Coordinates (Angstroms)
 Number     Number       Type             X           Y           Z
 ---------------------------------------------------------------------
      1          8           0        0.033873    1.689520   -0.000000
      2          1           0        0.030737    0.706924   -0.000000
      3          1           0       -0.894598    2.011153   -0.000000
      4          8           0        0.033873   -1.512061    0.000000
      5          1           0        0.940474   -1.890982    0.000000
      6          1           0       -0.618587   -2.246773    0.000000
 ---------------------------------------------------------------------

 SCF Done:  E(RHF) =  -152.114006720     A.U. after   10 cycles
 E2 =    -0.5271655897D+00 EUMP2 =    -0.15264117231008D+03
 CCSD(T)
 CCSD(T)= -0.15266816289D+03

 The electronic state is 1-A'.
 Alpha  occ. eigenvalues --  -20.57984 -20.52883  -1.35282  -1.30340  -0.72635
 Alpha  occ. eigenvalues --   -0.68015  -0.59117  -0.53668  -0.52409  -0.47494
 Alpha virt. eigenvalues --    0.12112   0.17755   0.18907   0.29229   0.50227
 Alpha virt. eigenvalues --    0.54359   0.55967   0.60201   0.68826   0.72388
 Alpha virt. eigenvalues --    0.74170   0.77016   0.81577   0.82982   0.84725

 Mulliken charges:
               1
     1  O   -0.545160
     2  H    0.278321
     3  H    0.248411
     4  O   -0.505286
     5  H    0.265133
     6  H    0.258580
 Sum of Mulliken charges =  -0.00000

 Dipole moment (field-independent basis, Debye):
    X=             -1.1374    Y=             -3.4945    Z=              0.0000  Tot=              3.6749
 Quadrupole moment (field-independent basis, Debye-Ang):
   XX=             -9.1865   YY=             -8.3295   ZZ=            -14.7350
   XY=             -3.9622   XZ=              0.0000   YZ=              0.0000

 Normal termination of Gaussian 16 at Sat Aug 27 00:46:02 2022.
