 Gaussian 16, Revision A.03,
 Gaussian 16:  ES64L-G16RevA.03 25-Dec-2016

 ------------------
 #p CCSD(T)/cc-pVTZ
 ------------------

 ------------
 H2O_H2O_2866
 ------------
 Symbolic Z-matrix:
 Charge =  0 Multiplicity = 1

                         Standard orientation:
 ---------------------------------------------------------------------
 Center     Atomic      Atomic             Coordinates (Angstroms)
 Number     Number       Type             X           Y           Z
 ---------------------------------------------------------------------
      1          8           0        0.041149    2.249277   -0.000000
      2          1           0        0.039113    1.266678   -0.000000
      3          1           0       -0.887681    2.569869   -0.000000
      4          8           0        0.041149   -2.069361    0.000000
      5          1           0        0.891088   -2.562425    0.000000
      6          1           0       -0.700907   -2.713455    0.000000
 ---------------------------------------------------------------------

 SCF Done:  E(RHF) =  -152.110197561     A.U. after   10 cycles
 E2 =    -0.5259629243D+00 EUMP2 =    -0.15263616048497D+03
 CCSD(T)
 CCSD(T)= -0.15266329231D+03

 The electronic state is 1-A'.
 Alpha  occ. eigenvalues --  -20.56719 -20.54354  -1.33992  -1.31678  -0.71390
 Alpha  occ. eigenvalues --   -0.69074  -0.57551  -0.55168  -0.51124  -0.48817
 Alpha virt. eigenvalues --    0.12466   0.16088   0.19415   0.23044   0.53090
 Alpha virt. eigenvalues --    0.55546   0.56360   0.58695   0.68784   0.69347
 Alpha virt. eigenvalues --    0.77748   0.79086   0.79548   0.80010   0.83355

 Mulliken charges:
               1
     1  O   -0.520629
     2  H    0.265018
     3  H    0.251918
     4  O   -0.513884
     5  H    0.260171
     6  H    0.257406
 Sum of Mulliken charges =   0.00000

 Dipole moment (field-independent basis, Debye):
    X=             -1.4021    Y=             -3.2546    Z=              0.0000  Tot=              3.5437
 Quadrupole moment (field-independent basis, Debye-Ang):
   XX=             -9.1493   YY=             -7.2856   ZZ=            -14.7209
   XY=             -4.8384   XZ=              0.0000   YZ=             -0.0000

 Normal termination of Gaussian 16 at Fri Aug 26 17:52:03 2022.
