 Gaussian 16, Revision A.03,
 Gaussian 16:  ES64L-G16RevA.03 25-Dec-2016

 ------------------
 #p CCSD(T)/cc-pVTZ
 ------------------

 ------------
 H2O_H2O_1552
 ------------
 Symbolic Z-matrix:
 Charge =  0 Multiplicity = 1

                         Standard orientation:
 ---------------------------------------------------------------------
 Center     Atomic      Atomic             Coordinates (Angstroms)
 Number     Number       Type             X           Y           Z
 ---------------------------------------------------------------------
      1          8           0        0.088237   -1.711389    0.000000
      2          1           0        0.087992   -0.728788    0.000000
      3          1           0       -0.841177   -2.030287    0.000000
      4          8           0        0.088237    1.567082    0.000000
      5          1           0        0.216250    2.541310    0.000000
      6          1           0       -0.874851    1.372225    0.000000
 ---------------------------------------------------------------------

 SCF Done:  E(RHF) =  -152.109985049     A.U. after   10 cycles
 E2 =    -0.5274139773D+00 EUMP2 =    -0.15263739902645D+03
 CCSD(T)
 CCSD(T)= -0.15266447548D+03

 The electronic state is 1-A'.
 Alpha  occ. eigenvalues --  -20.57808 -20.54177  -1.35147  -1.31539  -0.72781
 Alpha  occ. eigenvalues --   -0.68849  -0.58695  -0.54908  -0.52219  -0.48647
 Alpha virt. eigenvalues --    0.11578   0.16423   0.20161   0.27679   0.50086
 Alpha virt. eigenvalues --    0.54846   0.57706   0.57849   0.68367   0.74200
 Alpha virt. eigenvalues --    0.74654   0.77658   0.80652   0.82269   0.83501

 Mulliken charges:
               1
     1  O   -0.523599
     2  H    0.272710
     3  H    0.240457
     4  O   -0.486950
     5  H    0.251734
     6  H    0.245648
 Sum of Mulliken charges =   0.00000

 Dipole moment (field-independent basis, Debye):
    X=             -2.9517    Y=              2.7997    Z=              0.0000  Tot=              4.0682
 Quadrupole moment (field-independent basis, Debye-Ang):
   XX=            -10.5974   YY=             -8.8542   ZZ=            -14.7159
   XY=              2.4587   XZ=              0.0000   YZ=              0.0000

 Normal termination of Gaussian 16 at Sat Aug 27 23:05:43 2022.
