 Gaussian 16, Revision A.03,
 Gaussian 16:  ES64L-G16RevA.03 25-Dec-2016

 ------------------
 #p CCSD(T)/cc-pVTZ
 ------------------

 ------------
 H2O_H2O_1000
 ------------
 Symbolic Z-matrix:
 Charge =  0 Multiplicity = 1

                         Standard orientation:
 ---------------------------------------------------------------------
 Center     Atomic      Atomic             Coordinates (Angstroms)
 Number     Number       Type             X           Y           Z
 ---------------------------------------------------------------------
      1          8           0        0.092949   -1.485749    0.000000
      2          1           0        0.092949   -0.503148    0.000000
      3          1           0       -0.836544   -1.804416    0.000000
      4          8           0        0.092949    1.352962    0.000000
      5          1           0        0.092949    2.335564    0.000000
      6          1           0       -0.836544    1.034296    0.000000
 ---------------------------------------------------------------------

 SCF Done:  E(RHF) =  -152.105600358     A.U. after   10 cycles
 E2 =    -0.5296716509D+00 EUMP2 =    -0.15263527200892D+03
 CCSD(T)
 CCSD(T)= -0.15266224680D+03

 The electronic state is 1-A'.
 Alpha  occ. eigenvalues --  -20.58687 -20.53594  -1.36378  -1.31111  -0.74757
 Alpha  occ. eigenvalues --   -0.68223  -0.59517  -0.54307  -0.53249  -0.48163
 Alpha virt. eigenvalues --    0.11450   0.16379   0.20790   0.30497   0.48256
 Alpha virt. eigenvalues --    0.52953   0.58273   0.60827   0.68186   0.71563
 Alpha virt. eigenvalues --    0.73821   0.78353   0.79974   0.81690   0.82923

 Mulliken charges:
               1
     1  O   -0.533070
     2  H    0.282504
     3  H    0.230494
     4  O   -0.447004
     5  H    0.236989
     6  H    0.230088
 Sum of Mulliken charges =  -0.00000

 Dipole moment (field-independent basis, Debye):
    X=             -3.0599    Y=              2.8026    Z=              0.0000  Tot=              4.1494
 Quadrupole moment (field-independent basis, Debye-Ang):
   XX=            -10.9038   YY=             -9.2303   ZZ=            -14.6886
   XY=              2.0815   XZ=              0.0000   YZ=              0.0000

 Normal termination of Gaussian 16 at Fri Aug 26 21:49:51 2022.
