 Gaussian 16, Revision A.03,
 Gaussian 16:  ES64L-G16RevA.03 25-Dec-2016

 ------------------
 #p CCSD(T)/cc-pVTZ
 ------------------

 ------------
 H2O_H2O_1353
 ------------
 Symbolic Z-matrix:
 Charge =  0 Multiplicity = 1

                         Standard orientation:
 ---------------------------------------------------------------------
 Center     Atomic      Atomic             Coordinates (Angstroms)
 Number     Number       Type             X           Y           Z
 ---------------------------------------------------------------------
      1          8           0        0.085610   -1.634476    0.000000
      2          1           0        0.085210   -0.651874    0.000000
      3          1           0       -0.843753   -1.953520    0.000000
      4          8           0        0.085610    1.484901    0.000000
      5          1           0        0.276914    2.448700    0.000000
      6          1           0       -0.888139    1.353296    0.000000
 ---------------------------------------------------------------------

 SCF Done:  E(RHF) =  -152.110399081     A.U. after   10 cycles
 E2 =    -0.5278782361D+00 EUMP2 =    -0.15263827731733D+03
 CCSD(T)
 CCSD(T)= -0.15266531001D+03

 The electronic state is 1-A'.
 Alpha  occ. eigenvalues --  -20.58100 -20.53723  -1.35487  -1.31137  -0.73160
 Alpha  occ. eigenvalues --   -0.68531  -0.59041  -0.54449  -0.52541  -0.48241
 Alpha virt. eigenvalues --    0.11603   0.16573   0.20078   0.28912   0.49314
 Alpha virt. eigenvalues --    0.54614   0.58016   0.58349   0.68713   0.73404
 Alpha virt. eigenvalues --    0.74695   0.77377   0.81109   0.81976   0.83622

 Mulliken charges:
               1
     1  O   -0.530365
     2  H    0.277643
     3  H    0.238165
     4  O   -0.477372
     5  H    0.246373
     6  H    0.245557
 Sum of Mulliken charges =  -0.00000

 Dipole moment (field-independent basis, Debye):
    X=             -2.8506    Y=              2.9718    Z=              0.0000  Tot=              4.1179
 Quadrupole moment (field-independent basis, Debye-Ang):
   XX=            -10.4469   YY=             -8.8031   ZZ=            -14.7152
   XY=              2.5873   XZ=              0.0000   YZ=              0.0000

 CCSD(T)=-152.66531\RMSD=7.328e-09\PG=CS [SG(H4O2)]\\@
 Normal termination of Gaussian 16 at Sat Aug 27 00:03:50 2022.
