 Gaussian 16, Revision A.03,
 Gaussian 16:  ES64L-G16RevA.03 25-Dec-2016

 ------------------
 #p CCSD(T)/cc-pVTZ
 ------------------

 ------------
 H2O_H2O_2351
 ------------
 Symbolic Z-matrix:
 Charge =  0 Multiplicity = 1

                         Standard orientation:
 ---------------------------------------------------------------------
 Center     Atomic      Atomic             Coordinates (Angstroms)
 Number     Number       Type             X           Y           Z
 ---------------------------------------------------------------------
      1          8           0        0.090686   -2.027448    0.000000
      2          1           0        0.090587   -1.044847    0.000000
      3          1           0       -0.838776   -2.346207    0.000000
      4          8           0        0.090686    1.888742    0.000000
      5          1           0        0.154853    2.869247    0.000000
      6          1           0       -0.857633    1.631455    0.000000
 ---------------------------------------------------------------------

 SCF Done:  E(RHF) =  -152.108833016     A.U. after   10 cycles
 E2 =    -0.5263842811D+00 EUMP2 =    -0.15263521729695D+03
 CCSD(T)
 CCSD(T)= -0.15266236425D+03

 The electronic state is 1-A'.
 Alpha  occ. eigenvalues --  -20.57026 -20.54875  -1.34315  -1.32181  -0.71785
 Alpha  occ. eigenvalues --   -0.69533  -0.57806  -0.55624  -0.51419  -0.49296
 Alpha virt. eigenvalues --    0.11517   0.15967   0.19876   0.24440   0.53208
 Alpha virt. eigenvalues --    0.55790   0.56577   0.57677   0.68366   0.71816
 Alpha virt. eigenvalues --    0.77067   0.79541   0.79680   0.79867   0.83383

 Mulliken charges:
               1
     1  O   -0.513827
     2  H    0.263638
     3  H    0.246552
     4  O   -0.503413
     5  H    0.259111
     6  H    0.247939
 Sum of Mulliken charges =  -0.00000

 Dipole moment (field-independent basis, Debye):
    X=             -3.0704    Y=              2.5448    Z=              0.0000  Tot=              3.9880
 Quadrupole moment (field-independent basis, Debye-Ang):
   XX=            -10.7263   YY=             -8.9434   ZZ=            -14.7147
   XY=              2.3382   XZ=              0.0000   YZ=              0.0000

 Normal termination of Gaussian 16 at Sun Aug 28 06:35:34 2022.
