 Gaussian 16, Revision A.03,
 Gaussian 16:  ES64L-G16RevA.03 25-Dec-2016

 ------------------
 #p CCSD(T)/cc-pVTZ
 ------------------

 ----------
 H2O_H2O_13
 ----------
 Symbolic Z-matrix:
 Charge =  0 Multiplicity = 1

                         Standard orientation:
 ---------------------------------------------------------------------
 Center     Atomic      Atomic             Coordinates (Angstroms)
 Number     Number       Type             X           Y           Z
 ---------------------------------------------------------------------
      1          8           0        0.052468    1.112365    0.000000
      2          1           0        0.049093    0.129770    0.000000
      3          1           0       -0.875925    1.434222    0.000000
      4          8           0        0.052468   -0.932672   -0.000000
      5          1           0        0.788998   -1.583080   -0.000000
      6          1           0       -0.801649   -1.418460   -0.000000
 ---------------------------------------------------------------------

 SCF Done:  E(RHF) =  -152.027083437     A.U. after   11 cycles
 E2 =    -0.5363459087D+00 EUMP2 =    -0.15256342934547D+03
 CCSD(T)
 CCSD(T)= -0.15258887987D+03

 The electronic state is 1-A'.
 Alpha  occ. eigenvalues --  -20.62330 -20.43371  -1.44770  -1.24053  -0.80559
 Alpha  occ. eigenvalues --   -0.78349  -0.59199  -0.53919  -0.43487  -0.40417
 Alpha virt. eigenvalues --    0.10172   0.16121   0.21451   0.32568   0.47246
 Alpha virt. eigenvalues --    0.51638   0.63140   0.63890   0.70127   0.70873
 Alpha virt. eigenvalues --    0.78925   0.79153   0.81890   0.82585   0.89374

 Mulliken charges:
               1
     1  O   -0.680450
     2  H    0.276975
     3  H    0.195595
     4  O   -0.281888
     5  H    0.247111
     6  H    0.242656
 Sum of Mulliken charges =  -0.00000

 Dipole moment (field-independent basis, Debye):
    X=             -1.5680    Y=             -5.1916    Z=             -0.0000  Tot=              5.4232
 Quadrupole moment (field-independent basis, Debye-Ang):
   XX=             -9.1717   YY=            -10.3480   ZZ=            -14.5348
   XY=             -2.6161   XZ=             -0.0000   YZ=             -0.0000

 Normal termination of Gaussian 16 at Fri Aug 26 15:16:26 2022.
