 Gaussian 16, Revision A.03,
 Gaussian 16:  ES64L-G16RevA.03 25-Dec-2016

 ------------------
 #p CCSD(T)/cc-pVTZ
 ------------------

 ------------
 H2O_H2O_3963
 ------------
 Symbolic Z-matrix:
 Charge =  0 Multiplicity = 1

                         Standard orientation:
 ---------------------------------------------------------------------
 Center     Atomic      Atomic             Coordinates (Angstroms)
 Number     Number       Type             X           Y           Z
 ---------------------------------------------------------------------
      1          8           0        0.052281    2.688036    0.000000
      2          1           0        0.050952    1.705436    0.000000
      3          1           0       -0.876781    3.007959    0.000000
      4          8           0        0.052281   -2.508124   -0.000000
      5          1           0        0.790163   -3.156997   -0.000000
      6          1           0       -0.800823   -2.995690   -0.000000
 ---------------------------------------------------------------------

 SCF Done:  E(RHF) =  -152.108721413     A.U. after   10 cycles
 E2 =    -0.5258274863D+00 EUMP2 =    -0.15263454889908D+03
 CCSD(T)
 CCSD(T)= -0.15266173409D+03

 The electronic state is 1-A'.
 Alpha  occ. eigenvalues --  -20.56303 -20.54811  -1.33600  -1.32122  -0.71004
 Alpha  occ. eigenvalues --   -0.69520  -0.57105  -0.55597  -0.50721  -0.49247
 Alpha virt. eigenvalues --    0.13050   0.15211   0.19628   0.21338   0.53538
 Alpha virt. eigenvalues --    0.54918   0.56572   0.57843   0.66682   0.69118
 Alpha virt. eigenvalues --    0.78173   0.79382   0.79601   0.79703   0.82887

 Mulliken charges:
               1
     1  O   -0.514881
     2  H    0.261703
     3  H    0.252674
     4  O   -0.515306
     5  H    0.259200
     6  H    0.256610
 Sum of Mulliken charges =  -0.00000

 Dipole moment (field-independent basis, Debye):
    X=             -1.7900    Y=             -3.1775    Z=             -0.0000  Tot=              3.6470
 Quadrupole moment (field-independent basis, Debye-Ang):
   XX=             -9.2252   YY=             -6.5906   ZZ=            -14.7159
   XY=             -5.0445   XZ=             -0.0000   YZ=              0.0000

 Normal termination of Gaussian 16 at Sat Aug 27 00:42:56 2022.
