 Gaussian 16, Revision A.03,
 Gaussian 16:  ES64L-G16RevA.03 25-Dec-2016

 ------------------
 #p CCSD(T)/cc-pVTZ
 ------------------

 ------------
 H2O_H2O_3898
 ------------
 Symbolic Z-matrix:
 Charge =  0 Multiplicity = 1

                         Standard orientation:
 ---------------------------------------------------------------------
 Center     Atomic      Atomic             Coordinates (Angstroms)
 Number     Number       Type             X           Y           Z
 ---------------------------------------------------------------------
      1          8           0       -0.016598    2.649158    0.000000
      2          1           0       -0.014076    1.666560    0.000000
      3          1           0        0.912074    2.970210    0.000000
      4          8           0       -0.016598   -2.485757    0.000000
      5          1           0       -0.996929   -2.552539    0.000000
      6          1           0        0.364504   -3.391443    0.000000
 ---------------------------------------------------------------------

 SCF Done:  E(RHF) =  -152.108801471     A.U. after   10 cycles
 E2 =    -0.5258147494D+00 EUMP2 =    -0.15263461622008D+03
 CCSD(T)
 CCSD(T)= -0.15266180077D+03

 The electronic state is 1-A'.
 Alpha  occ. eigenvalues --  -20.56308 -20.54928  -1.33608  -1.32238  -0.71014
 Alpha  occ. eigenvalues --   -0.69645  -0.57113  -0.55718  -0.50729  -0.49366
 Alpha virt. eigenvalues --    0.12803   0.15238   0.19301   0.21769   0.53243
 Alpha virt. eigenvalues --    0.55161   0.56605   0.57857   0.66696   0.69049
 Alpha virt. eigenvalues --    0.78165   0.78972   0.79483   0.80680   0.82784

 Mulliken charges:
               1
     1  O   -0.515837
     2  H    0.260534
     3  H    0.254815
     4  O   -0.515878
     5  H    0.257659
     6  H    0.258708
 Sum of Mulliken charges =  -0.00000

 Dipole moment (field-independent basis, Debye):
    X=              0.5704    Y=             -2.8858    Z=              0.0000  Tot=              2.9416
 Quadrupole moment (field-independent basis, Debye-Ang):
   XX=             -9.5429   YY=             -7.4587   ZZ=            -14.7161
   XY=              6.9546   XZ=              0.0000   YZ=              0.0000

 Normal termination of Gaussian 16 at Sat Aug 27 00:21:00 2022.
