 Gaussian 16, Revision A.03,
 Gaussian 16:  ES64L-G16RevA.03 25-Dec-2016

 ------------------
 #p CCSD(T)/cc-pVTZ
 ------------------

 ------------
 H2O_H2O_3065
 ------------
 Symbolic Z-matrix:
 Charge =  0 Multiplicity = 1

                         Standard orientation:
 ---------------------------------------------------------------------
 Center     Atomic      Atomic             Coordinates (Angstroms)
 Number     Number       Type             X           Y           Z
 ---------------------------------------------------------------------
      1          8           0        0.044860    2.329313    0.000000
      2          1           0        0.043037    1.346713    0.000000
      3          1           0       -0.884040    2.649703   -0.000000
      4          8           0        0.044860   -2.148915    0.000000
      5          1           0        0.860849   -2.696334    0.000000
      6          1           0       -0.737604   -2.743268   -0.000000
 ---------------------------------------------------------------------

 SCF Done:  E(RHF) =  -152.109819336     A.U. after   10 cycles
 E2 =    -0.5259220257D+00 EUMP2 =    -0.15263574136216D+03
 CCSD(T)
 CCSD(T)= -0.15266288586D+03

 The electronic state is 1-A'.
 Alpha  occ. eigenvalues --  -20.56620 -20.54457  -1.33899  -1.31777  -0.71299
 Alpha  occ. eigenvalues --   -0.69172  -0.57442  -0.55265  -0.51029  -0.48913
 Alpha virt. eigenvalues --    0.12544   0.15898   0.19470   0.22553   0.53207
 Alpha virt. eigenvalues --    0.55410   0.56381   0.58480   0.68086   0.69338
 Alpha virt. eigenvalues --    0.77870   0.79121   0.79308   0.79915   0.83235

 Mulliken charges:
               1
     1  O   -0.519004
     2  H    0.264294
     3  H    0.251963
     4  O   -0.514583
     5  H    0.260059
     6  H    0.257272
 Sum of Mulliken charges =  -0.00000

 Dipole moment (field-independent basis, Debye):
    X=             -1.5301    Y=             -3.2440    Z=             -0.0000  Tot=              3.5868
 Quadrupole moment (field-independent basis, Debye-Ang):
   XX=             -9.1571   YY=             -7.1409   ZZ=            -14.7197
   XY=             -4.8344   XZ=              0.0000   YZ=             -0.0000

 CCSD(T)=-152.6628859\RMSD=6.866e-09\PG=CS [SG(H4O2)]\\@
 Normal termination of Gaussian 16 at Fri Aug 26 19:34:40 2022.
