 Gaussian 16, Revision A.03,
 Gaussian 16:  ES64L-G16RevA.03 25-Dec-2016

 ------------------
 #p CCSD(T)/cc-pVTZ
 ------------------

 ------------
 H2O_H2O_1180
 ------------
 Symbolic Z-matrix:
 Charge =  0 Multiplicity = 1

                         Standard orientation:
 ---------------------------------------------------------------------
 Center     Atomic      Atomic             Coordinates (Angstroms)
 Number     Number       Type             X           Y           Z
 ---------------------------------------------------------------------
      1          8           0        0.079872   -1.569804    0.000000
      2          1           0        0.079127   -0.587203    0.000000
      3          1           0       -0.849378   -1.889176    0.000000
      4          8           0        0.079872    1.410784    0.000000
      5          1           0        0.395014    2.341479    0.000000
      6          1           0       -0.902722    1.407058    0.000000
 ---------------------------------------------------------------------

 SCF Done:  E(RHF) =  -152.111106883     A.U. after   10 cycles
 E2 =    -0.5283327583D+00 EUMP2 =    -0.15263943964126D+03
 CCSD(T)
 CCSD(T)= -0.15266640358D+03

 The electronic state is 1-A'.
 Alpha  occ. eigenvalues --  -20.58416 -20.53029  -1.35860  -1.30529  -0.73476
 Alpha  occ. eigenvalues --   -0.68224  -0.59388  -0.53748  -0.52900  -0.47630
 Alpha virt. eigenvalues --    0.11637   0.16814   0.19857   0.30197   0.48716
 Alpha virt. eigenvalues --    0.54590   0.58429   0.58803   0.69340   0.72933
 Alpha virt. eigenvalues --    0.74621   0.76904   0.81611   0.81949   0.83897

 Mulliken charges:
               1
     1  O   -0.541168
     2  H    0.284319
     3  H    0.236232
     4  O   -0.470770
     5  H    0.244289
     6  H    0.247098
 Sum of Mulliken charges =   0.00000

 Dipole moment (field-independent basis, Debye):
    X=             -2.6467    Y=              3.2410    Z=              0.0000  Tot=              4.1844
 Quadrupole moment (field-independent basis, Debye-Ang):
   XX=            -10.1388   YY=             -8.7452   ZZ=            -14.7158
   XY=              2.8177   XZ=              0.0000   YZ=              0.0000

 Normal termination of Gaussian 16 at Fri Aug 26 22:56:30 2022.
