 Gaussian 16, Revision A.03,
 Gaussian 16:  ES64L-G16RevA.03 25-Dec-2016

 ------------------
 #p CCSD(T)/cc-pVTZ
 ------------------

 ------------
 H2O_H2O_2911
 ------------
 Symbolic Z-matrix:
 Charge =  0 Multiplicity = 1

                         Standard orientation:
 ---------------------------------------------------------------------
 Center     Atomic      Atomic             Coordinates (Angstroms)
 Number     Number       Type             X           Y           Z
 ---------------------------------------------------------------------
      1          8           0        0.059645    2.267873   -0.000000
      2          1           0        0.058348    1.285272   -0.000000
      3          1           0       -0.869426    2.587766   -0.000000
      4          8           0        0.059645   -2.090434    0.000000
      5          1           0        0.706544   -2.830047    0.000000
      6          1           0       -0.849788   -2.462503    0.000000
 ---------------------------------------------------------------------

 SCF Done:  E(RHF) =  -152.109822014     A.U. after   10 cycles
 E2 =    -0.5259824703D+00 EUMP2 =    -0.15263580448445D+03
 CCSD(T)
 CCSD(T)= -0.15266294436D+03

 The electronic state is 1-A'.
 Alpha  occ. eigenvalues --  -20.56701 -20.54439  -1.33977  -1.31759  -0.71381
 Alpha  occ. eigenvalues --   -0.69148  -0.57519  -0.55241  -0.51105  -0.48893
 Alpha virt. eigenvalues --    0.12394   0.15980   0.19438   0.22858   0.53233
 Alpha virt. eigenvalues --    0.55455   0.56263   0.58687   0.68529   0.69342
 Alpha virt. eigenvalues --    0.77777   0.79072   0.79585   0.79940   0.83245

 Mulliken charges:
               1
     1  O   -0.518433
     2  H    0.264586
     3  H    0.250508
     4  O   -0.512827
     5  H    0.260210
     6  H    0.255956
 Sum of Mulliken charges =   0.00000

 Dipole moment (field-independent basis, Debye):
    X=             -2.0320    Y=             -3.2045    Z=              0.0000  Tot=              3.7944
 Quadrupole moment (field-independent basis, Debye-Ang):
   XX=             -9.3654   YY=             -7.3450   ZZ=            -14.7195
   XY=             -4.1630   XZ=              0.0000   YZ=             -0.0000

 Normal termination of Gaussian 16 at Fri Aug 26 18:17:28 2022.
