 Gaussian 16, Revision A.03,
 Gaussian 16:  ES64L-G16RevA.03 25-Dec-2016

 ------------------
 #p CCSD(T)/cc-pVTZ
 ------------------

 ------------
 H2O_H2O_2505
 ------------
 Symbolic Z-matrix:
 Charge =  0 Multiplicity = 1

                         Standard orientation:
 ---------------------------------------------------------------------
 Center     Atomic      Atomic             Coordinates (Angstroms)
 Number     Number       Type             X           Y           Z
 ---------------------------------------------------------------------
      1          8           0        0.079857    2.098332    0.000000
      2          1           0        0.079306    1.115731    0.000000
      3          1           0       -0.849458    2.417519   -0.000000
      4          8           0        0.079857   -1.939281    0.000000
      5          1           0        0.395182   -2.869912    0.000000
      6          1           0       -0.902739   -1.935751   -0.000000
 ---------------------------------------------------------------------

 SCF Done:  E(RHF) =  -152.109637093     A.U. after   10 cycles
 E2 =    -0.5262083244D+00 EUMP2 =    -0.15263584541697D+03
 CCSD(T)
 CCSD(T)= -0.15266297708D+03

 The electronic state is 1-A'.
 Alpha  occ. eigenvalues --  -20.56934 -20.54550  -1.34211  -1.31868  -0.71639
 Alpha  occ. eigenvalues --   -0.69242  -0.57740  -0.55330  -0.51330  -0.48994
 Alpha virt. eigenvalues --    0.11897   0.16094   0.19533   0.23924   0.53518
 Alpha virt. eigenvalues --    0.55490   0.56304   0.58305   0.68733   0.70637
 Alpha virt. eigenvalues --    0.77367   0.79189   0.79895   0.80797   0.83150

 Mulliken charges:
               1
     1  O   -0.517008
     2  H    0.264638
     3  H    0.247771
     4  O   -0.507285
     5  H    0.259450
     6  H    0.252434
 Sum of Mulliken charges =  -0.00000

 Dipole moment (field-independent basis, Debye):
    X=             -2.7106    Y=             -2.9076    Z=             -0.0000  Tot=              3.9751
 Quadrupole moment (field-independent basis, Debye-Ang):
   XX=            -10.1109   YY=             -8.1779   ZZ=            -14.7183
   XY=             -3.0865   XZ=             -0.0000   YZ=             -0.0000

 CCSD(T)=-152.6629771\RMSD=6.932e-09\PG=CS [SG(H4O2)]\\@
 Normal termination of Gaussian 16 at Fri Aug 26 15:13:56 2022.
