 Gaussian 16, Revision A.03,
 Gaussian 16:  ES64L-G16RevA.03 25-Dec-2016

 ------------------
 #p CCSD(T)/cc-pVTZ
 ------------------

 ------------
 H2O_H2O_2053
 ------------
 Symbolic Z-matrix:
 Charge =  0 Multiplicity = 1

                         Standard orientation:
 ---------------------------------------------------------------------
 Center     Atomic      Atomic             Coordinates (Angstroms)
 Number     Number       Type             X           Y           Z
 ---------------------------------------------------------------------
      1          8           0        0.085606   -1.913695    0.000000
      2          1           0        0.085267   -0.931094    0.000000
      3          1           0       -0.843777   -2.232682    0.000000
      4          8           0        0.085606    1.764110    0.000000
      5          1           0        0.276970    2.727897    0.000000
      6          1           0       -0.888151    1.632564    0.000000
 ---------------------------------------------------------------------

 SCF Done:  E(RHF) =  -152.109866667     A.U. after   10 cycles
 E2 =    -0.5265861578D+00 EUMP2 =    -0.15263645282462D+03
 CCSD(T)
 CCSD(T)= -0.15266356437D+03

 The electronic state is 1-A'.
 Alpha  occ. eigenvalues --  -20.57275 -20.54482  -1.34559  -1.31805  -0.72036
 Alpha  occ. eigenvalues --   -0.69158  -0.58101  -0.55241  -0.51667  -0.48927
 Alpha virt. eigenvalues --    0.11679   0.16270   0.19830   0.25423   0.52054
 Alpha virt. eigenvalues --    0.55719   0.56673   0.57695   0.68602   0.73256
 Alpha virt. eigenvalues --    0.76314   0.78898   0.80113   0.82417   0.83211

 Mulliken charges:
               1
     1  O   -0.518143
     2  H    0.266358
     3  H    0.245014
     4  O   -0.501605
     5  H    0.258775
     6  H    0.249600
 Sum of Mulliken charges =  -0.00000

 Dipole moment (field-independent basis, Debye):
    X=             -2.8899    Y=              2.7919    Z=              0.0000  Tot=              4.0182
 Quadrupole moment (field-independent basis, Debye-Ang):
   XX=            -10.4284   YY=             -8.6085   ZZ=            -14.7186
   XY=              2.6784   XZ=              0.0000   YZ=              0.0000

 Normal termination of Gaussian 16 at Sun Aug 28 03:55:00 2022.
