 Gaussian 16, Revision A.03,
 Gaussian 16:  ES64L-G16RevA.03 25-Dec-2016

 ------------------
 #p CCSD(T)/cc-pVTZ
 ------------------

 ------------
 H2O_H2O_3554
 ------------
 Symbolic Z-matrix:
 Charge =  0 Multiplicity = 1

                         Standard orientation:
 ---------------------------------------------------------------------
 Center     Atomic      Atomic             Coordinates (Angstroms)
 Number     Number       Type             X           Y           Z
 ---------------------------------------------------------------------
      1          8           0        0.082802    2.514692   -0.000000
      2          1           0        0.082448    1.532091   -0.000000
      3          1           0       -0.846577    2.833693    0.000000
      4          8           0        0.082802   -2.360170   -0.000000
      5          1           0        0.336777   -3.309381   -0.000000
      6          1           0       -0.897473   -2.292579    0.000000
 ---------------------------------------------------------------------

 SCF Done:  E(RHF) =  -152.108328350     A.U. after   10 cycles
 E2 =    -0.5259193294D+00 EUMP2 =    -0.15263424767901D+03
 CCSD(T)
 CCSD(T)= -0.15266143554D+03

 The electronic state is 1-A'.
 Alpha  occ. eigenvalues --  -20.56434 -20.54991  -1.33730  -1.32298  -0.71147
 Alpha  occ. eigenvalues --   -0.69688  -0.57212  -0.55760  -0.50845  -0.49416
 Alpha virt. eigenvalues --    0.12274   0.15330   0.19254   0.22067   0.53340
 Alpha virt. eigenvalues --    0.55044   0.56445   0.58044   0.66911   0.69095
 Alpha virt. eigenvalues --    0.78059   0.78688   0.79442   0.80911   0.82678

 Mulliken charges:
               1
     1  O   -0.512040
     2  H    0.260352
     3  H    0.250863
     4  O   -0.512107
     5  H    0.259722
     6  H    0.253211
 Sum of Mulliken charges =  -0.00000

 Dipole moment (field-independent basis, Debye):
    X=             -2.8295    Y=             -2.7440    Z=              0.0000  Tot=              3.9415
 Quadrupole moment (field-independent basis, Debye-Ang):
   XX=            -10.2493   YY=             -8.0583   ZZ=            -14.7143
   XY=             -3.0637   XZ=             -0.0000   YZ=              0.0000

 Normal termination of Gaussian 16 at Fri Aug 26 22:21:34 2022.
