 Gaussian 16, Revision A.03,
 Gaussian 16:  ES64L-G16RevA.03 25-Dec-2016

 ------------------
 #p CCSD(T)/cc-pVTZ
 ------------------

 ------------
 H2O_H2O_1682
 ------------
 Symbolic Z-matrix:
 Charge =  0 Multiplicity = 1

                         Standard orientation:
 ---------------------------------------------------------------------
 Center     Atomic      Atomic             Coordinates (Angstroms)
 Number     Number       Type             X           Y           Z
 ---------------------------------------------------------------------
      1          8           0        0.073557    1.773526    0.000000
      2          1           0        0.072582    0.790925    0.000000
      3          1           0       -0.855620    2.093114   -0.000000
      4          8           0        0.073557   -1.606621    0.000000
      5          1           0        0.507276   -2.488320    0.000000
      6          1           0       -0.901147   -1.730955   -0.000000
 ---------------------------------------------------------------------

 SCF Done:  E(RHF) =  -152.111896573     A.U. after   10 cycles
 E2 =    -0.5269503464D+00 EUMP2 =    -0.15263884691920D+03
 CCSD(T)
 CCSD(T)= -0.15266589591D+03

 The electronic state is 1-A'.
 Alpha  occ. eigenvalues --  -20.57691 -20.53670  -1.34975  -1.31048  -0.72414
 Alpha  occ. eigenvalues --   -0.68492  -0.58649  -0.54442  -0.52090  -0.48182
 Alpha virt. eigenvalues --    0.11873   0.16827   0.19488   0.27475   0.50273
 Alpha virt. eigenvalues --    0.55328   0.56650   0.58483   0.69373   0.73506
 Alpha virt. eigenvalues --    0.75008   0.77434   0.80909   0.83028   0.83979

 Mulliken charges:
               1
     1  O   -0.528588
     2  H    0.272326
     3  H    0.243287
     4  O   -0.500250
     5  H    0.259708
     6  H    0.253517
 Sum of Mulliken charges =  -0.00000

 Dipole moment (field-independent basis, Debye):
    X=             -2.4713    Y=             -3.2089    Z=             -0.0000  Tot=              4.0503
 Quadrupole moment (field-independent basis, Debye-Ang):
   XX=             -9.8371   YY=             -8.3301   ZZ=            -14.7268
   XY=             -3.1835   XZ=              0.0000   YZ=             -0.0000

 Normal termination of Gaussian 16 at Sun Aug 28 00:32:36 2022.
