 Gaussian 16, Revision A.03,
 Gaussian 16:  ES64L-G16RevA.03 25-Dec-2016

 ------------------
 #p CCSD(T)/cc-pVTZ
 ------------------

 -----------
 H2O_H2O_372
 -----------
 Symbolic Z-matrix:
 Charge =  0 Multiplicity = 1

                         Standard orientation:
 ---------------------------------------------------------------------
 Center     Atomic      Atomic             Coordinates (Angstroms)
 Number     Number       Type             X           Y           Z
 ---------------------------------------------------------------------
      1          8           0       -0.020082    1.245083    0.000000
      2          1           0       -0.014743    0.262496    0.000000
      3          1           0        0.907665    1.568796    0.000000
      4          8           0       -0.020082   -1.078085    0.000000
      5          1           0       -0.993566   -1.211632    0.000000
      6          1           0        0.421958   -1.955643    0.000000
 ---------------------------------------------------------------------

 SCF Done:  E(RHF) =  -152.087625777     A.U. after   11 cycles
 E2 =    -0.5331131155D+00 EUMP2 =    -0.15262073889291D+03
 CCSD(T)
 CCSD(T)= -0.15264688713D+03

 The electronic state is 1-A'.
 Alpha  occ. eigenvalues --  -20.60580 -20.47980  -1.39869  -1.26802  -0.77703
 Alpha  occ. eigenvalues --   -0.70834  -0.58345  -0.56048  -0.48373  -0.43699
 Alpha virt. eigenvalues --    0.11247   0.17713   0.19966   0.34054   0.47482
 Alpha virt. eigenvalues --    0.52928   0.59336   0.68504   0.71285   0.72027
 Alpha virt. eigenvalues --    0.75767   0.77147   0.78471   0.83924   0.84581

 Mulliken charges:
               1
     1  O   -0.634472
     2  H    0.295034
     3  H    0.234450
     4  O   -0.388927
     5  H    0.260329
     6  H    0.233587
 Sum of Mulliken charges =  -0.00000

 Dipole moment (field-independent basis, Debye):
    X=              0.6412    Y=             -4.2260    Z=              0.0000  Tot=              4.2744
 Quadrupole moment (field-independent basis, Debye-Ang):
   XX=             -9.3773   YY=             -9.5879   ZZ=            -14.6362
   XY=              3.1345   XZ=              0.0000   YZ=              0.0000

 Normal termination of Gaussian 16 at Fri Aug 26 17:46:25 2022.
