 Gaussian 16, Revision A.03,
 Gaussian 16:  ES64L-G16RevA.03 25-Dec-2016

 ------------------
 #p CCSD(T)/cc-pVTZ
 ------------------

 ------------
 H2O_H2O_2100
 ------------
 Symbolic Z-matrix:
 Charge =  0 Multiplicity = 1

                         Standard orientation:
 ---------------------------------------------------------------------
 Center     Atomic      Atomic             Coordinates (Angstroms)
 Number     Number       Type             X           Y           Z
 ---------------------------------------------------------------------
      1          8           0        0.092949   -1.924514    0.000000
      2          1           0        0.092949   -0.941912    0.000000
      3          1           0       -0.836544   -2.243180    0.000000
      4          8           0        0.092949    1.791727    0.000000
      5          1           0        0.092950    2.774329    0.000000
      6          1           0       -0.836544    1.473060    0.000000
 ---------------------------------------------------------------------

 SCF Done:  E(RHF) =  -152.108737044     A.U. after   10 cycles
 E2 =    -0.5266369771D+00 EUMP2 =    -0.15263537402150D+03
 CCSD(T)
 CCSD(T)= -0.15266251611D+03

 The electronic state is 1-A'.
 Alpha  occ. eigenvalues --  -20.57217 -20.54897  -1.34513  -1.32203  -0.72039
 Alpha  occ. eigenvalues --   -0.69521  -0.57998  -0.55631  -0.51607  -0.49313
 Alpha virt. eigenvalues --    0.11428   0.16038   0.20160   0.25221   0.52429
 Alpha virt. eigenvalues --    0.55618   0.56913   0.57384   0.68048   0.73243
 Alpha virt. eigenvalues --    0.76371   0.78899   0.79779   0.81227   0.82976

 Mulliken charges:
               1
     1  O   -0.514062
     2  H    0.264890
     3  H    0.245010
     4  O   -0.499595
     5  H    0.258523
     6  H    0.245236
 Sum of Mulliken charges =  -0.00000

 Dipole moment (field-independent basis, Debye):
    X=             -3.1367    Y=              2.4647    Z=              0.0000  Tot=              3.9892
 Quadrupole moment (field-independent basis, Debye-Ang):
   XX=            -10.8791   YY=             -9.1583   ZZ=            -14.7134
   XY=              2.1372   XZ=              0.0000   YZ=              0.0000

 726\MP4DQ=-152.6442757\MP4SDQ=-152.647385\CCSD=-152.6467708\CCSD(T)=-1
 Normal termination of Gaussian 16 at Sun Aug 28 04:18:46 2022.
