 Gaussian 16, Revision A.03,
 Gaussian 16:  ES64L-G16RevA.03 25-Dec-2016

 ------------------
 #p CCSD(T)/cc-pVTZ
 ------------------

 ------------
 H2O_H2O_1140
 ------------
 Symbolic Z-matrix:
 Charge =  0 Multiplicity = 1

                         Standard orientation:
 ---------------------------------------------------------------------
 Center     Atomic      Atomic             Coordinates (Angstroms)
 Number     Number       Type             X           Y           Z
 ---------------------------------------------------------------------
      1          8           0        0.044947    1.561433   -0.000000
      2          1           0        0.042173    0.578835   -0.000000
      3          1           0       -0.883642    1.882722   -0.000000
      4          8           0        0.044947   -1.381122    0.000000
      5          1           0        0.860407   -1.929330    0.000000
      6          1           0       -0.738092   -1.974717    0.000000
 ---------------------------------------------------------------------

 SCF Done:  E(RHF) =  -152.114061774     A.U. after   10 cycles
 E2 =    -0.5281053757D+00 EUMP2 =    -0.15264216714948D+03
 CCSD(T)
 CCSD(T)= -0.15266906664D+03

 The electronic state is 1-A'.
 Alpha  occ. eigenvalues --  -20.58560 -20.51998  -1.35967  -1.29602  -0.73214
 Alpha  occ. eigenvalues --   -0.67940  -0.59625  -0.53057  -0.52730  -0.46730
 Alpha virt. eigenvalues --    0.11912   0.18033   0.18874   0.31232   0.48836
 Alpha virt. eigenvalues --    0.54752   0.56263   0.60717   0.69027   0.71567
 Alpha virt. eigenvalues --    0.73064   0.77246   0.82319   0.82619   0.84937

 Mulliken charges:
               1
     1  O   -0.559857
     2  H    0.291805
     3  H    0.242516
     4  O   -0.499127
     5  H    0.266290
     6  H    0.258372
 Sum of Mulliken charges =  -0.00000

 Dipole moment (field-independent basis, Debye):
    X=             -1.4913    Y=             -3.7104    Z=              0.0000  Tot=              3.9988
 Quadrupole moment (field-independent basis, Debye-Ang):
   XX=             -9.1570   YY=             -8.6148   ZZ=            -14.7315
   XY=             -3.5324   XZ=              0.0000   YZ=              0.0000

 Normal termination of Gaussian 16 at Fri Aug 26 22:42:06 2022.
