 Gaussian 16, Revision A.03,
 Gaussian 16:  ES64L-G16RevA.03 25-Dec-2016

 ------------------
 #p CCSD(T)/cc-pVTZ
 ------------------

 ------------
 H2O_H2O_4252
 ------------
 Symbolic Z-matrix:
 Charge =  0 Multiplicity = 1

                         Standard orientation:
 ---------------------------------------------------------------------
 Center     Atomic      Atomic             Coordinates (Angstroms)
 Number     Number       Type             X           Y           Z
 ---------------------------------------------------------------------
      1          8           0        0.088229   -2.788367    0.000000
      2          1           0        0.088082   -1.805765    0.000000
      3          1           0       -0.841216   -3.107173    0.000000
      4          8           0        0.088229    2.644042    0.000000
      5          1           0        0.216339    3.618257    0.000000
      6          1           0       -0.874877    2.449280    0.000000
 ---------------------------------------------------------------------

 SCF Done:  E(RHF) =  -152.107828762     A.U. after   10 cycles
 E2 =    -0.5258747261D+00 EUMP2 =    -0.15263370348797D+03
 CCSD(T)
 CCSD(T)= -0.15266091203D+03

 The electronic state is 1-A'.
 Alpha  occ. eigenvalues --  -20.56255 -20.55225  -1.33556  -1.32528  -0.70970
 Alpha  occ. eigenvalues --   -0.69923  -0.57022  -0.55983  -0.50667  -0.49642
 Alpha virt. eigenvalues --    0.12681   0.14885   0.19039   0.21689   0.53192
 Alpha virt. eigenvalues --    0.54915   0.56533   0.57777   0.66804   0.68652
 Alpha virt. eigenvalues --    0.78226   0.79227   0.79397   0.81266   0.82145

 Mulliken charges:
               1
     1  O   -0.510347
     2  H    0.258321
     3  H    0.251883
     4  O   -0.511420
     5  H    0.258704
     6  H    0.252860
 Sum of Mulliken charges =  -0.00000

 Dipole moment (field-independent basis, Debye):
    X=             -3.0233    Y=              2.5381    Z=              0.0000  Tot=              3.9475
 Quadrupole moment (field-independent basis, Debye-Ang):
   XX=            -10.5508   YY=             -8.5118   ZZ=            -14.7125
   XY=              2.6637   XZ=              0.0000   YZ=              0.0000

 Normal termination of Gaussian 16 at Sun Aug 28 01:14:18 2022.
