 Gaussian 16, Revision A.03,
 Gaussian 16:  ES64L-G16RevA.03 25-Dec-2016

 ------------------
 #p CCSD(T)/cc-pVTZ
 ------------------

 ------------
 H2O_H2O_1475
 ------------
 Symbolic Z-matrix:
 Charge =  0 Multiplicity = 1

                         Standard orientation:
 ---------------------------------------------------------------------
 Center     Atomic      Atomic             Coordinates (Angstroms)
 Number     Number       Type             X           Y           Z
 ---------------------------------------------------------------------
      1          8           0        0.092949   -1.675216    0.000000
      2          1           0        0.092949   -0.692614    0.000000
      3          1           0       -0.836544   -1.993882    0.000000
      4          8           0        0.092949    1.542429    0.000000
      5          1           0        0.092949    2.525030    0.000000
      6          1           0       -0.836544    1.223762    0.000000
 ---------------------------------------------------------------------

 SCF Done:  E(RHF) =  -152.108728644     A.U. after   10 cycles
 E2 =    -0.5277524153D+00 EUMP2 =    -0.15263648105961D+03
 CCSD(T)
 CCSD(T)= -0.15266357703D+03

 The electronic state is 1-A'.
 Alpha  occ. eigenvalues --  -20.57890 -20.54444  -1.35266  -1.31800  -0.73071
 Alpha  occ. eigenvalues --   -0.68983  -0.58737  -0.55159  -0.52309  -0.48893
 Alpha virt. eigenvalues --    0.11467   0.16284   0.20544   0.27888   0.49733
 Alpha virt. eigenvalues --    0.54177   0.57615   0.58364   0.67782   0.73569
 Alpha virt. eigenvalues --    0.74144   0.78076   0.80511   0.81677   0.83288

 Mulliken charges:
               1
     1  O   -0.520362
     2  H    0.272522
     3  H    0.239122
     4  O   -0.480168
     5  H    0.249336
     6  H    0.239550
 Sum of Mulliken charges =  -0.00000

 Dipole moment (field-independent basis, Debye):
    X=             -3.1020    Y=              2.5946    Z=              0.0000  Tot=              4.0441
 Quadrupole moment (field-independent basis, Debye-Ang):
   XX=            -10.8977   YY=             -9.1487   ZZ=            -14.7088
   XY=              2.1157   XZ=              0.0000   YZ=              0.0000

 Normal termination of Gaussian 16 at Sat Aug 27 00:48:42 2022.
