 Gaussian 16, Revision A.03,
 Gaussian 16:  ES64L-G16RevA.03 25-Dec-2016

 ------------------
 #p CCSD(T)/cc-pVTZ
 ------------------

 ------------
 H2O_H2O_3778
 ------------
 Symbolic Z-matrix:
 Charge =  0 Multiplicity = 1

                         Standard orientation:
 ---------------------------------------------------------------------
 Center     Atomic      Atomic             Coordinates (Angstroms)
 Number     Number       Type             X           Y           Z
 ---------------------------------------------------------------------
      1          8           0        0.085599   -2.601766    0.000000
      2          1           0        0.085352   -1.619165    0.000000
      3          1           0       -0.843814   -2.920666    0.000000
      4          8           0        0.085599    2.452165    0.000000
      5          1           0        0.277053    3.415934    0.000000
      6          1           0       -0.888170    2.320711    0.000000
 ---------------------------------------------------------------------

 SCF Done:  E(RHF) =  -152.108091591     A.U. after   10 cycles
 E2 =    -0.5259014990D+00 EUMP2 =    -0.15263399308961D+03
 CCSD(T)
 CCSD(T)= -0.15266119033D+03

 The electronic state is 1-A'.
 Alpha  occ. eigenvalues --  -20.56367 -20.55096  -1.33666  -1.32400  -0.71083
 Alpha  occ. eigenvalues --   -0.69792  -0.57141  -0.55859  -0.50779  -0.49517
 Alpha virt. eigenvalues --    0.12350   0.15170   0.19142   0.21975   0.53199
 Alpha virt. eigenvalues --    0.55023   0.56476   0.57942   0.66766   0.68953
 Alpha virt. eigenvalues --    0.78122   0.78872   0.79347   0.81106   0.82562

 Mulliken charges:
               1
     1  O   -0.511178
     2  H    0.259478
     3  H    0.251219
     4  O   -0.511884
     5  H    0.259446
     6  H    0.252919
 Sum of Mulliken charges =  -0.00000

 Dipole moment (field-independent basis, Debye):
    X=             -2.9279    Y=              2.6465    Z=              0.0000  Tot=              3.9468
 Quadrupole moment (field-independent basis, Debye-Ang):
   XX=            -10.4007   YY=             -8.2710   ZZ=            -14.7134
   XY=              2.8653   XZ=              0.0000   YZ=              0.0000

 Normal termination of Gaussian 16 at Fri Aug 26 23:37:15 2022.
