 Gaussian 16, Revision A.03,
 Gaussian 16:  ES64L-G16RevA.03 25-Dec-2016

 ------------------
 #p CCSD(T)/cc-pVTZ
 ------------------

 ------------
 H2O_H2O_1839
 ------------
 Symbolic Z-matrix:
 Charge =  0 Multiplicity = 1

                         Standard orientation:
 ---------------------------------------------------------------------
 Center     Atomic      Atomic             Coordinates (Angstroms)
 Number     Number       Type             X           Y           Z
 ---------------------------------------------------------------------
      1          8           0        0.048627    1.840660    0.000000
      2          1           0        0.046476    0.858061    0.000000
      3          1           0       -0.880166    2.161360   -0.000000
      4          8           0        0.048627   -1.660319    0.000000
      5          1           0        0.826866   -2.260194    0.000000
      6          1           0       -0.771216   -2.201950   -0.000000
 ---------------------------------------------------------------------

 SCF Done:  E(RHF) =  -152.112844886     A.U. after   10 cycles
 E2 =    -0.5265996141D+00 EUMP2 =    -0.15263944449971D+03
 CCSD(T)
 CCSD(T)= -0.15266649040D+03

 The electronic state is 1-A'.
 Alpha  occ. eigenvalues --  -20.57531 -20.53469  -1.34784  -1.30847  -0.72156
 Alpha  occ. eigenvalues --   -0.68313  -0.58522  -0.54281  -0.51923  -0.48000
 Alpha virt. eigenvalues --    0.12162   0.17176   0.19112   0.27078   0.51038
 Alpha virt. eigenvalues --    0.54875   0.56360   0.59075   0.69065   0.72373
 Alpha virt. eigenvalues --    0.75681   0.77165   0.80960   0.83316   0.84496

 Mulliken charges:
               1
     1  O   -0.532454
     2  H    0.271351
     3  H    0.247784
     4  O   -0.507443
     5  H    0.263112
     6  H    0.257650
 Sum of Mulliken charges =  -0.00000

 Dipole moment (field-independent basis, Debye):
    X=             -1.6401    Y=             -3.4324    Z=             -0.0000  Tot=              3.8041
 Quadrupole moment (field-independent basis, Debye-Ang):
   XX=             -9.1879   YY=             -7.9899   ZZ=            -14.7314
   XY=             -3.9312   XZ=              0.0000   YZ=             -0.0000

 Normal termination of Gaussian 16 at Sun Aug 28 02:03:47 2022.
