 Gaussian 16, Revision A.03,
 Gaussian 16:  ES64L-G16RevA.03 25-Dec-2016

 ------------------
 #p CCSD(T)/cc-pVTZ
 ------------------

 -----------
 H2O_H2O_525
 -----------
 Symbolic Z-matrix:
 Charge =  0 Multiplicity = 1

                         Standard orientation:
 ---------------------------------------------------------------------
 Center     Atomic      Atomic             Coordinates (Angstroms)
 Number     Number       Type             X           Y           Z
 ---------------------------------------------------------------------
      1          8           0        0.092949   -1.296282    0.000000
      2          1           0        0.092949   -0.313681    0.000000
      3          1           0       -0.836544   -1.614949    0.000000
      4          8           0        0.092949    1.163495    0.000000
      5          1           0        0.092949    2.146097    0.000000
      6          1           0       -0.836544    0.844828    0.000000
 ---------------------------------------------------------------------

 SCF Done:  E(RHF) =  -152.088747221     A.U. after   11 cycles
 E2 =    -0.5334581270D+00 EUMP2 =    -0.15262220534803D+03
 CCSD(T)
 CCSD(T)= -0.15264875071D+03

 The electronic state is 1-A'.
 Alpha  occ. eigenvalues --  -20.59898 -20.51599  -1.38811  -1.29628  -0.78211
 Alpha  occ. eigenvalues --   -0.67783  -0.59670  -0.54982  -0.52358  -0.46596
 Alpha virt. eigenvalues --    0.11266   0.16326   0.21197   0.32149   0.48474
 Alpha virt. eigenvalues --    0.51647   0.58994   0.65346   0.70527   0.71048
 Alpha virt. eigenvalues --    0.73827   0.77519   0.78789   0.82435   0.83494

 Mulliken charges:
               1
     1  O   -0.557432
     2  H    0.282524
     3  H    0.213893
     4  O   -0.397017
     5  H    0.230899
     6  H    0.227134
 Sum of Mulliken charges =  -0.00000

 Dipole moment (field-independent basis, Debye):
    X=             -2.9941    Y=              3.2139    Z=              0.0000  Tot=              4.3925
 Quadrupole moment (field-independent basis, Debye-Ang):
   XX=            -10.8784   YY=             -9.4897   ZZ=            -14.6298
   XY=              2.0126   XZ=              0.0000   YZ=              0.0000

 Normal termination of Gaussian 16 at Fri Aug 26 18:50:09 2022.
