 Gaussian 16, Revision A.03,
 Gaussian 16:  ES64L-G16RevA.03 25-Dec-2016

 ------------------
 #p CCSD(T)/cc-pVTZ
 ------------------

 ------------
 H2O_H2O_3415
 ------------
 Symbolic Z-matrix:
 Charge =  0 Multiplicity = 1

                         Standard orientation:
 ---------------------------------------------------------------------
 Center     Atomic      Atomic             Coordinates (Angstroms)
 Number     Number       Type             X           Y           Z
 ---------------------------------------------------------------------
      1          8           0        0.044850    2.468925   -0.000000
      2          1           0        0.043134    1.486325   -0.000000
      3          1           0       -0.884085    2.789214   -0.000000
      4          8           0        0.044850   -2.288517    0.000000
      5          1           0        0.860899   -2.835848    0.000000
      6          1           0       -0.737549   -2.882955    0.000000
 ---------------------------------------------------------------------

 SCF Done:  E(RHF) =  -152.109327976     A.U. after   10 cycles
 E2 =    -0.5258664991D+00 EUMP2 =    -0.15263519447468D+03
 CCSD(T)
 CCSD(T)= -0.15266235726D+03

 The electronic state is 1-A'.
 Alpha  occ. eigenvalues --  -20.56472 -20.54613  -1.33760  -1.31929  -0.71162
 Alpha  occ. eigenvalues --   -0.69325  -0.57285  -0.55412  -0.50886  -0.49060
 Alpha virt. eigenvalues --    0.12724   0.15606   0.19543   0.21930   0.53378
 Alpha virt. eigenvalues --    0.55154   0.56470   0.58096   0.67180   0.69349
 Alpha virt. eigenvalues --    0.78019   0.79069   0.79432   0.79775   0.83083

 Mulliken charges:
               1
     1  O   -0.517198
     2  H    0.263172
     3  H    0.252489
     4  O   -0.515526
     5  H    0.259721
     6  H    0.257343
 Sum of Mulliken charges =   0.00000

 Dipole moment (field-independent basis, Debye):
    X=             -1.5324    Y=             -3.2167    Z=              0.0000  Tot=              3.5631
 Quadrupole moment (field-independent basis, Debye-Ang):
   XX=             -9.1569   YY=             -6.9156   ZZ=            -14.7181
   XY=             -5.0671   XZ=              0.0000   YZ=             -0.0000

 Normal termination of Gaussian 16 at Fri Aug 26 21:34:24 2022.
