 Gaussian 16, Revision A.03,
 Gaussian 16:  ES64L-G16RevA.03 25-Dec-2016

 ------------------
 #p CCSD(T)/cc-pVTZ
 ------------------

 ----------
 H2O_H2O_83
 ----------
 Symbolic Z-matrix:
 Charge =  0 Multiplicity = 1

                         Standard orientation:
 ---------------------------------------------------------------------
 Center     Atomic      Atomic             Coordinates (Angstroms)
 Number     Number       Type             X           Y           Z
 ---------------------------------------------------------------------
      1          8           0        0.070284    1.137065   -0.000000
      2          1           0        0.068448    0.154466   -0.000000
      3          1           0       -0.858613    1.457467   -0.000000
      4          8           0        0.070284   -0.966961    0.000000
      5          1           0        0.559993   -1.818835    0.000000
      6          1           0       -0.894366   -1.153933    0.000000
 ---------------------------------------------------------------------

 SCF Done:  E(RHF) =  -152.043411016     A.U. after   11 cycles
 E2 =    -0.5367147420D+00 EUMP2 =    -0.15258012575783D+03
 CCSD(T)
 CCSD(T)= -0.15260571159D+03

 The electronic state is 1-A'.
 Alpha  occ. eigenvalues --  -20.61909 -20.45229  -1.43565  -1.25166  -0.81126
 Alpha  occ. eigenvalues --   -0.74929  -0.58362  -0.55091  -0.45587  -0.41750
 Alpha virt. eigenvalues --    0.10401   0.16048   0.21404   0.32235   0.48899
 Alpha virt. eigenvalues --    0.51724   0.60561   0.64306   0.70815   0.71740
 Alpha virt. eigenvalues --    0.77593   0.79244   0.81556   0.84221   0.87968

 Mulliken charges:
               1
     1  O   -0.646705
     2  H    0.281038
     3  H    0.194880
     4  O   -0.305530
     5  H    0.234449
     6  H    0.241869
 Sum of Mulliken charges =  -0.00000

 Dipole moment (field-independent basis, Debye):
    X=             -2.1363    Y=             -4.7779    Z=              0.0000  Tot=              5.2337
 Quadrupole moment (field-independent basis, Debye-Ang):
   XX=             -9.6455   YY=            -10.0739   ZZ=            -14.5473
   XY=             -2.5929   XZ=              0.0000   YZ=             -0.0000

 Normal termination of Gaussian 16 at Fri Aug 26 15:44:41 2022.
