 Gaussian 16, Revision A.03,
 Gaussian 16:  ES64L-G16RevA.03 25-Dec-2016

 ------------------
 #p CCSD(T)/cc-pVTZ
 ------------------

 ------------
 H2O_H2O_3469
 ------------
 Symbolic Z-matrix:
 Charge =  0 Multiplicity = 1

                         Standard orientation:
 ---------------------------------------------------------------------
 Center     Atomic      Atomic             Coordinates (Angstroms)
 Number     Number       Type             X           Y           Z
 ---------------------------------------------------------------------
      1          8           0        0.030177    2.486268   -0.000000
      2          1           0        0.027956    1.503669   -0.000000
      3          1           0       -0.898593    2.807034   -0.000000
      4          8           0        0.030177   -2.310652    0.000000
      5          1           0        0.959916   -2.628601    0.000000
      6          1           0       -0.572111   -3.087026    0.000000
 ---------------------------------------------------------------------

 SCF Done:  E(RHF) =  -152.109307865     A.U. after   10 cycles
 E2 =    -0.5258497979D+00 EUMP2 =    -0.15263515766300D+03
 CCSD(T)
 CCSD(T)= -0.15266232277D+03

 The electronic state is 1-A'.
 Alpha  occ. eigenvalues --  -20.56445 -20.54675  -1.33736  -1.31991  -0.71138
 Alpha  occ. eigenvalues --   -0.69392  -0.57260  -0.55476  -0.50862  -0.49123
 Alpha virt. eigenvalues --    0.12701   0.15567   0.19475   0.21962   0.53362
 Alpha virt. eigenvalues --    0.55230   0.56516   0.58022   0.67071   0.69319
 Alpha virt. eigenvalues --    0.78041   0.78840   0.79714   0.79938   0.83032

 Mulliken charges:
               1
     1  O   -0.517529
     2  H    0.262590
     3  H    0.253603
     4  O   -0.516052
     5  H    0.259107
     6  H    0.258280
 Sum of Mulliken charges =  -0.00000

 Dipole moment (field-independent basis, Debye):
    X=             -1.0323    Y=             -3.1265    Z=              0.0000  Tot=              3.2925
 Quadrupole moment (field-independent basis, Debye-Ang):
   XX=             -9.2295   YY=             -7.0820   ZZ=            -14.7180
   XY=             -5.7788   XZ=              0.0000   YZ=             -0.0000

 Normal termination of Gaussian 16 at Fri Aug 26 21:52:13 2022.
