 Gaussian 16, Revision A.03,
 Gaussian 16:  ES64L-G16RevA.03 25-Dec-2016

 ------------------
 #p CCSD(T)/cc-pVTZ
 ------------------

 ------------
 H2O_H2O_2597
 ------------
 Symbolic Z-matrix:
 Charge =  0 Multiplicity = 1

                         Standard orientation:
 ---------------------------------------------------------------------
 Center     Atomic      Atomic             Coordinates (Angstroms)
 Number     Number       Type             X           Y           Z
 ---------------------------------------------------------------------
      1          8           0       -0.019886    2.132625    0.000000
      2          1           0       -0.016858    1.150028    0.000000
      3          1           0        0.908621    2.454153    0.000000
      4          8           0       -0.019886   -1.965533    0.000000
      5          1           0       -0.993681   -2.096789    0.000000
      6          1           0        0.420088   -2.844128    0.000000
 ---------------------------------------------------------------------

 SCF Done:  E(RHF) =  -152.110604151     A.U. after   10 cycles
 E2 =    -0.5260372938D+00 EUMP2 =    -0.15263664144487D+03
 CCSD(T)
 CCSD(T)= -0.15266375988D+03

 The electronic state is 1-A'.
 Alpha  occ. eigenvalues --  -20.56849 -20.54366  -1.34125  -1.31694  -0.71532
 Alpha  occ. eigenvalues --   -0.69101  -0.57702  -0.55185  -0.51257  -0.48838
 Alpha virt. eigenvalues --    0.12261   0.16303   0.19274   0.24033   0.53667
 Alpha virt. eigenvalues --    0.55533   0.56311   0.58535   0.68843   0.70274
 Alpha virt. eigenvalues --    0.77498   0.79156   0.80013   0.80750   0.83507

 Mulliken charges:
               1
     1  O   -0.523613
     2  H    0.264921
     3  H    0.253919
     4  O   -0.512973
     5  H    0.259565
     6  H    0.258180
 Sum of Mulliken charges =   0.00000

 Dipole moment (field-independent basis, Debye):
    X=              0.6805    Y=             -3.0467    Z=              0.0000  Tot=              3.1217
 Quadrupole moment (field-independent basis, Debye-Ang):
   XX=             -9.4471   YY=             -7.8586   ZZ=            -14.7219
   XY=              5.4389   XZ=              0.0000   YZ=              0.0000

 Normal termination of Gaussian 16 at Fri Aug 26 15:53:27 2022.
