 Gaussian 16, Revision A.03,
 Gaussian 16:  ES64L-G16RevA.03 25-Dec-2016

 ------------------
 #p CCSD(T)/cc-pVTZ
 ------------------

 ------------
 H2O_H2O_3314
 ------------
 Symbolic Z-matrix:
 Charge =  0 Multiplicity = 1

                         Standard orientation:
 ---------------------------------------------------------------------
 Center     Atomic      Atomic             Coordinates (Angstroms)
 Number     Number       Type             X           Y           Z
 ---------------------------------------------------------------------
      1          8           0        0.048578    2.429029   -0.000000
      2          1           0        0.046967    1.446429   -0.000000
      3          1           0       -0.880392    2.749219   -0.000000
      4          8           0        0.048578   -2.248636    0.000000
      5          1           0        0.827147   -2.848081    0.000000
      6          1           0       -0.770967   -2.790718    0.000000
 ---------------------------------------------------------------------

 SCF Done:  E(RHF) =  -152.109418074     A.U. after   10 cycles
 E2 =    -0.5258841744D+00 EUMP2 =    -0.15263530224814D+03
 CCSD(T)
 CCSD(T)= -0.15266246082D+03

 The electronic state is 1-A'.
 Alpha  occ. eigenvalues --  -20.56513 -20.54576  -1.33799  -1.31892  -0.71200
 Alpha  occ. eigenvalues --   -0.69287  -0.57326  -0.55376  -0.50925  -0.49024
 Alpha virt. eigenvalues --    0.12660   0.15679   0.19526   0.22072   0.53340
 Alpha virt. eigenvalues --    0.55207   0.56434   0.58201   0.67384   0.69358
 Alpha virt. eigenvalues --    0.77981   0.79066   0.79373   0.79810   0.83117

 Mulliken charges:
               1
     1  O   -0.517388
     2  H    0.263461
     3  H    0.252097
     4  O   -0.515137
     5  H    0.259906
     6  H    0.257061
 Sum of Mulliken charges =  -0.00000

 Dipole moment (field-independent basis, Debye):
    X=             -1.6589    Y=             -3.2237    Z=              0.0000  Tot=              3.6255
 Quadrupole moment (field-independent basis, Debye-Ang):
   XX=             -9.1826   YY=             -6.9817   ZZ=            -14.7184
   XY=             -4.8404   XZ=              0.0000   YZ=             -0.0000

 Normal termination of Gaussian 16 at Fri Aug 26 20:59:32 2022.
