 Gaussian 16, Revision A.03,
 Gaussian 16:  ES64L-G16RevA.03 25-Dec-2016

 ------------------
 #p CCSD(T)/cc-pVTZ
 ------------------

 ------------
 H2O_H2O_4022
 ------------
 Symbolic Z-matrix:
 Charge =  0 Multiplicity = 1

                         Standard orientation:
 ---------------------------------------------------------------------
 Center     Atomic      Atomic             Coordinates (Angstroms)
 Number     Number       Type             X           Y           Z
 ---------------------------------------------------------------------
      1          8           0       -0.019830    2.701036    0.000000
      2          1           0       -0.017460    1.718438    0.000000
      3          1           0        0.908892    3.021943    0.000000
      4          8           0       -0.019830   -2.533918    0.000000
      5          1           0       -0.993714   -2.664521    0.000000
      6          1           0        0.419554   -3.412807    0.000000
 ---------------------------------------------------------------------

 SCF Done:  E(RHF) =  -152.108740363     A.U. after   10 cycles
 E2 =    -0.5258086442D+00 EUMP2 =    -0.15263454900685D+03
 CCSD(T)
 CCSD(T)= -0.15266173606D+03

 The electronic state is 1-A'.
 Alpha  occ. eigenvalues --  -20.56278 -20.54926  -1.33578  -1.32236  -0.70983
 Alpha  occ. eigenvalues --   -0.69641  -0.57082  -0.55714  -0.50699  -0.49363
 Alpha virt. eigenvalues --    0.12949   0.15170   0.19400   0.21561   0.53313
 Alpha virt. eigenvalues --    0.55081   0.56617   0.57840   0.66684   0.68996
 Alpha virt. eigenvalues --    0.78193   0.79090   0.79488   0.80540   0.82774

 Mulliken charges:
               1
     1  O   -0.515564
     2  H    0.260590
     3  H    0.254588
     4  O   -0.515820
     5  H    0.257780
     6  H    0.258425
 Sum of Mulliken charges =   0.00000

 Dipole moment (field-independent basis, Debye):
    X=              0.6808    Y=             -2.9471    Z=              0.0000  Tot=              3.0247
 Quadrupole moment (field-independent basis, Debye-Ang):
   XX=             -9.4469   YY=             -7.2078   ZZ=            -14.7159
   XY=              6.8724   XZ=              0.0000   YZ=              0.0000

 Normal termination of Gaussian 16 at Sat Aug 27 01:03:57 2022.
