 Gaussian 16, Revision A.03,
 Gaussian 16:  ES64L-G16RevA.03 25-Dec-2016

 ------------------
 #p CCSD(T)/cc-pVTZ
 ------------------

 ------------
 H2O_H2O_4048
 ------------
 Symbolic Z-matrix:
 Charge =  0 Multiplicity = 1

                         Standard orientation:
 ---------------------------------------------------------------------
 Center     Atomic      Atomic             Coordinates (Angstroms)
 Number     Number       Type             X           Y           Z
 ---------------------------------------------------------------------
      1          8           0       -0.016594    2.708991    0.000000
      2          1           0       -0.014128    1.726392    0.000000
      3          1           0        0.912097    3.029988    0.000000
      4          8           0       -0.016594   -2.545587    0.000000
      5          1           0       -0.996927   -2.612311    0.000000
      6          1           0        0.364456   -3.451296    0.000000
 ---------------------------------------------------------------------

 SCF Done:  E(RHF) =  -152.108693133     A.U. after   10 cycles
 E2 =    -0.5258081662D+00 EUMP2 =    -0.15263450129951D+03
 CCSD(T)
 CCSD(T)= -0.15266168999D+03

 The electronic state is 1-A'.
 Alpha  occ. eigenvalues --  -20.56271 -20.54965  -1.33572  -1.32274  -0.70978
 Alpha  occ. eigenvalues --   -0.69681  -0.57074  -0.55752  -0.50692  -0.49401
 Alpha virt. eigenvalues --    0.12915   0.15145   0.19327   0.21627   0.53271
 Alpha virt. eigenvalues --    0.55095   0.56623   0.57835   0.66689   0.68954
 Alpha virt. eigenvalues --    0.78199   0.79110   0.79451   0.80693   0.82729

 Mulliken charges:
               1
     1  O   -0.515411
     2  H    0.260244
     3  H    0.254821
     4  O   -0.515686
     5  H    0.257497
     6  H    0.258537
 Sum of Mulliken charges =   0.00000

 Dipole moment (field-independent basis, Debye):
    X=              0.5703    Y=             -2.8801    Z=              0.0000  Tot=              2.9360
 Quadrupole moment (field-independent basis, Debye-Ang):
   XX=             -9.5430   YY=             -7.3982   ZZ=            -14.7157
   XY=              7.1120   XZ=              0.0000   YZ=              0.0000

 Normal termination of Gaussian 16 at Sat Aug 27 22:58:06 2022.
