 Gaussian 16, Revision A.03,
 Gaussian 16:  ES64L-G16RevA.03 25-Dec-2016

 ------------------
 #p CCSD(T)/cc-pVTZ
 ------------------

 -----------
 H2O_H2O_557
 -----------
 Symbolic Z-matrix:
 Charge =  0 Multiplicity = 1

                         Standard orientation:
 ---------------------------------------------------------------------
 Center     Atomic      Atomic             Coordinates (Angstroms)
 Number     Number       Type             X           Y           Z
 ---------------------------------------------------------------------
      1          8           0        0.073587    1.324763   -0.000000
      2          1           0        0.072259    0.342162   -0.000000
      3          1           0       -0.855475    1.644684   -0.000000
      4          8           0        0.073587   -1.157911    0.000000
      5          1           0        0.506990   -2.039765    0.000000
      6          1           0       -0.901162   -1.281895    0.000000
 ---------------------------------------------------------------------

 SCF Done:  E(RHF) =  -152.100219473     A.U. after   11 cycles
 E2 =    -0.5318941973D+00 EUMP2 =    -0.15263211367053D+03
 CCSD(T)
 CCSD(T)= -0.15265859579D+03

 The electronic state is 1-A'.
 Alpha  occ. eigenvalues --  -20.59984 -20.50015  -1.38373  -1.28226  -0.76010
 Alpha  occ. eigenvalues --   -0.69662  -0.58980  -0.54984  -0.50656  -0.45195
 Alpha virt. eigenvalues --    0.11228   0.16860   0.20246   0.32968   0.48310
 Alpha virt. eigenvalues --    0.53347   0.59579   0.63046   0.71400   0.72115
 Alpha virt. eigenvalues --    0.73929   0.78306   0.79578   0.83915   0.83979

 Mulliken charges:
               1
     1  O   -0.588749
     2  H    0.301751
     3  H    0.220926
     4  O   -0.415081
     5  H    0.239918
     6  H    0.241235
 Sum of Mulliken charges =  -0.00000

 Dipole moment (field-independent basis, Debye):
    X=             -2.3582    Y=             -3.9217    Z=              0.0000  Tot=              4.5761
 Quadrupole moment (field-independent basis, Debye-Ang):
   XX=             -9.8306   YY=             -9.2811   ZZ=            -14.6662
   XY=             -2.8004   XZ=              0.0000   YZ=             -0.0000

 Normal termination of Gaussian 16 at Fri Aug 26 19:03:25 2022.
