 Gaussian 16, Revision A.03,
 Gaussian 16:  ES64L-G16RevA.03 25-Dec-2016

 ------------------
 #p CCSD(T)/cc-pVTZ
 ------------------

 ------------
 H2O_H2O_3803
 ------------
 Symbolic Z-matrix:
 Charge =  0 Multiplicity = 1

                         Standard orientation:
 ---------------------------------------------------------------------
 Center     Atomic      Atomic             Coordinates (Angstroms)
 Number     Number       Type             X           Y           Z
 ---------------------------------------------------------------------
      1          8           0        0.085599   -2.611738    0.000000
      2          1           0        0.085353   -1.629137    0.000000
      3          1           0       -0.843815   -2.930637    0.000000
      4          8           0        0.085599    2.462137    0.000000
      5          1           0        0.277054    3.425906    0.000000
      6          1           0       -0.888171    2.330684    0.000000
 ---------------------------------------------------------------------

 SCF Done:  E(RHF) =  -152.108080087     A.U. after   10 cycles
 E2 =    -0.5258990313D+00 EUMP2 =    -0.15263397911844D+03
 CCSD(T)
 CCSD(T)= -0.15266117698D+03

 The electronic state is 1-A'.
 Alpha  occ. eigenvalues --  -20.56360 -20.55100  -1.33659  -1.32405  -0.71076
 Alpha  occ. eigenvalues --   -0.69797  -0.57134  -0.55864  -0.50772  -0.49521
 Alpha virt. eigenvalues --    0.12372   0.15155   0.19138   0.21953   0.53190
 Alpha virt. eigenvalues --    0.55021   0.56480   0.57933   0.66758   0.68941
 Alpha virt. eigenvalues --    0.78128   0.78896   0.79342   0.81109   0.82555

 Mulliken charges:
               1
     1  O   -0.511152
     2  H    0.259435
     3  H    0.251262
     4  O   -0.511901
     5  H    0.259416
     6  H    0.252941
 Sum of Mulliken charges =  -0.00000

 Dipole moment (field-independent basis, Debye):
    X=             -2.9282    Y=              2.6456    Z=              0.0000  Tot=              3.9464
 Quadrupole moment (field-independent basis, Debye-Ang):
   XX=            -10.4005   YY=             -8.2660   ZZ=            -14.7134
   XY=              2.8679   XZ=              0.0000   YZ=              0.0000

 Normal termination of Gaussian 16 at Fri Aug 26 23:45:43 2022.
