 Gaussian 16, Revision A.03,
 Gaussian 16:  ES64L-G16RevA.03 25-Dec-2016

 ------------------
 #p CCSD(T)/cc-pVTZ
 ------------------

 ------------
 H2O_H2O_1263
 ------------
 Symbolic Z-matrix:
 Charge =  0 Multiplicity = 1

                         Standard orientation:
 ---------------------------------------------------------------------
 Center     Atomic      Atomic             Coordinates (Angstroms)
 Number     Number       Type             X           Y           Z
 ---------------------------------------------------------------------
      1          8           0        0.052367    1.611019   -0.000000
      2          1           0        0.050098    0.628420   -0.000000
      3          1           0       -0.876388    1.931830   -0.000000
      4          8           0        0.052367   -1.431208    0.000000
      5          1           0        0.789629   -2.080785    0.000000
      6          1           0       -0.801203   -1.917957    0.000000
 ---------------------------------------------------------------------

 SCF Done:  E(RHF) =  -152.114007083     A.U. after   10 cycles
 E2 =    -0.5277502269D+00 EUMP2 =    -0.15264175730964D+03
 CCSD(T)
 CCSD(T)= -0.15266870147D+03

 The electronic state is 1-A'.
 Alpha  occ. eigenvalues --  -20.58335 -20.52409  -1.35684  -1.29938  -0.72980
 Alpha  occ. eigenvalues --   -0.67929  -0.59436  -0.53163  -0.52792  -0.47074
 Alpha virt. eigenvalues --    0.11931   0.17727   0.19016   0.30436   0.49035
 Alpha virt. eigenvalues --    0.54819   0.56368   0.59876   0.69379   0.71668
 Alpha virt. eigenvalues --    0.73435   0.76916   0.82010   0.82753   0.84926

 Mulliken charges:
               1
     1  O   -0.550825
     2  H    0.286513
     3  H    0.242415
     4  O   -0.501500
     5  H    0.265172
     6  H    0.258225
 Sum of Mulliken charges =  -0.00000

 Dipole moment (field-independent basis, Debye):
    X=             -1.7433    Y=             -3.6297    Z=              0.0000  Tot=              4.0266
 Quadrupole moment (field-independent basis, Debye-Ang):
   XX=             -9.2329   YY=             -8.4900   ZZ=            -14.7333
   XY=             -3.5092   XZ=              0.0000   YZ=             -0.0000

 CCSD(T)=-152.6687015\RMSD=6.897e-09\PG=CS [SG(H4O2)]\\@
 Normal termination of Gaussian 16 at Fri Aug 26 23:28:14 2022.
