 Gaussian 16, Revision A.03,
 Gaussian 16:  ES64L-G16RevA.03 25-Dec-2016

 ------------------
 #p CCSD(T)/cc-pVTZ
 ------------------

 ------------
 H2O_H2O_4685
 ------------
 Symbolic Z-matrix:
 Charge =  0 Multiplicity = 1

                         Standard orientation:
 ---------------------------------------------------------------------
 Center     Atomic      Atomic             Coordinates (Angstroms)
 Number     Number       Type             X           Y           Z
 ---------------------------------------------------------------------
      1          8           0        0.063215    2.974845   -0.000000
      2          1           0        0.062341    1.992244   -0.000000
      3          1           0       -0.865995    3.294338   -0.000000
      4          8           0        0.063215   -2.799306    0.000000
      5          1           0        0.660691   -3.579389    0.000000
      6          1           0       -0.868472   -3.111502    0.000000
 ---------------------------------------------------------------------

 SCF Done:  E(RHF) =  -152.108198457     A.U. after   10 cycles
 E2 =    -0.5258207460D+00 EUMP2 =    -0.15263401920345D+03
 CCSD(T)
 CCSD(T)= -0.15266122175D+03

 The electronic state is 1-A'.
 Alpha  occ. eigenvalues --  -20.56159 -20.55026  -1.33461  -1.32332  -0.70867
 Alpha  occ. eigenvalues --   -0.69731  -0.56945  -0.55797  -0.50578  -0.49452
 Alpha virt. eigenvalues --    0.13400   0.14817   0.19658   0.20972   0.53635
 Alpha virt. eigenvalues --    0.54827   0.56669   0.57761   0.66947   0.68614
 Alpha virt. eigenvalues --    0.78308   0.79409   0.79636   0.80450   0.82435

 Mulliken charges:
               1
     1  O   -0.512699
     2  H    0.259759
     3  H    0.252868
     4  O   -0.513536
     5  H    0.258218
     6  H    0.255391
 Sum of Mulliken charges =  -0.00000

 Dipole moment (field-independent basis, Debye):
    X=             -2.1688    Y=             -3.0768    Z=              0.0000  Tot=              3.7644
 Quadrupole moment (field-independent basis, Debye-Ang):
   XX=             -9.4536   YY=             -6.3926   ZZ=            -14.7141
   XY=             -4.7434   XZ=              0.0000   YZ=             -0.0000

 Normal termination of Gaussian 16 at Sun Aug 28 05:04:32 2022.
