 Gaussian 16, Revision A.03,
 Gaussian 16:  ES64L-G16RevA.03 25-Dec-2016

 ------------------
 #p CCSD(T)/cc-pVTZ
 ------------------

 ------------
 H2O_H2O_1148
 ------------
 Symbolic Z-matrix:
 Charge =  0 Multiplicity = 1

                         Standard orientation:
 ---------------------------------------------------------------------
 Center     Atomic      Atomic             Coordinates (Angstroms)
 Number     Number       Type             X           Y           Z
 ---------------------------------------------------------------------
      1          8           0       -0.016755    1.552220    0.000000
      2          1           0       -0.012351    0.569628    0.000000
      3          1           0        0.911301    1.875049    0.000000
      4          8           0       -0.016755   -1.388882    0.000000
      5          1           0       -0.996955   -1.457541    0.000000
      6          1           0        0.366081   -2.293837    0.000000
 ---------------------------------------------------------------------

 SCF Done:  E(RHF) =  -152.112968206     A.U. after   10 cycles
 E2 =    -0.5280768903D+00 EUMP2 =    -0.15264104509581D+03
 CCSD(T)
 CCSD(T)= -0.15266796781D+03

 The electronic state is 1-A'.
 Alpha  occ. eigenvalues --  -20.58439 -20.52475  -1.35906  -1.30049  -0.73468
 Alpha  occ. eigenvalues --   -0.67934  -0.59667  -0.53181  -0.52962  -0.47185
 Alpha virt. eigenvalues --    0.12056   0.18001   0.18996   0.31135   0.49472
 Alpha virt. eigenvalues --    0.54648   0.55699   0.62486   0.68538   0.72906
 Alpha virt. eigenvalues --    0.74119   0.76651   0.81794   0.82272   0.84298

 Mulliken charges:
               1
     1  O   -0.561179
     2  H    0.284599
     3  H    0.251259
     4  O   -0.480406
     5  H    0.262354
     6  H    0.243372
 Sum of Mulliken charges =  -0.00000

 Dipole moment (field-independent basis, Debye):
    X=              0.5691    Y=             -3.3625    Z=              0.0000  Tot=              3.4103
 Quadrupole moment (field-independent basis, Debye-Ang):
   XX=             -9.5365   YY=             -8.7359   ZZ=            -14.7232
   XY=              4.0558   XZ=              0.0000   YZ=              0.0000

 Normal termination of Gaussian 16 at Fri Aug 26 22:44:57 2022.
