 Gaussian 16, Revision A.03,
 Gaussian 16:  ES64L-G16RevA.03 25-Dec-2016

 ------------------
 #p CCSD(T)/cc-pVTZ
 ------------------

 ------------
 H2O_H2O_2800
 ------------
 Symbolic Z-matrix:
 Charge =  0 Multiplicity = 1

                         Standard orientation:
 ---------------------------------------------------------------------
 Center     Atomic      Atomic             Coordinates (Angstroms)
 Number     Number       Type             X           Y           Z
 ---------------------------------------------------------------------
      1          8           0        0.092949   -2.203728    0.000000
      2          1           0        0.092949   -1.221127    0.000000
      3          1           0       -0.836544   -2.522395    0.000000
      4          8           0        0.092949    2.070941    0.000000
      5          1           0        0.092949    3.053543    0.000000
      6          1           0       -0.836544    1.752274    0.000000
 ---------------------------------------------------------------------

 SCF Done:  E(RHF) =  -152.108174815     A.U. after   10 cycles
 E2 =    -0.5261574640D+00 EUMP2 =    -0.15263433227929D+03
 CCSD(T)
 CCSD(T)= -0.15266150957D+03

 The electronic state is 1-A'.
 Alpha  occ. eigenvalues --  -20.56749 -20.55117  -1.34042  -1.32417  -0.71488
 Alpha  occ. eigenvalues --   -0.69788  -0.57511  -0.55864  -0.51148  -0.49529
 Alpha virt. eigenvalues --    0.11448   0.15667   0.19559   0.23627   0.54148
 Alpha virt. eigenvalues --    0.55024   0.56465   0.58040   0.68358   0.69287
 Alpha virt. eigenvalues --    0.77687   0.78467   0.79371   0.80765   0.82822

 Mulliken charges:
               1
     1  O   -0.511044
     2  H    0.260863
     3  H    0.248534
     4  O   -0.506720
     5  H    0.259645
     6  H    0.248722
 Sum of Mulliken charges =  -0.00000

 Dipole moment (field-independent basis, Debye):
    X=             -3.1599    Y=              2.3948    Z=              0.0000  Tot=              3.9649
 Quadrupole moment (field-independent basis, Debye-Ang):
   XX=            -10.8622   YY=             -9.2038   ZZ=            -14.7128
   XY=              2.1474   XZ=              0.0000   YZ=              0.0000

 Normal termination of Gaussian 16 at Fri Aug 26 17:24:32 2022.
