 Gaussian 16, Revision A.03,
 Gaussian 16:  ES64L-G16RevA.03 25-Dec-2016

 ------------------
 #p CCSD(T)/cc-pVTZ
 ------------------

 -----------
 H2O_H2O_657
 -----------
 Symbolic Z-matrix:
 Charge =  0 Multiplicity = 1

                         Standard orientation:
 ---------------------------------------------------------------------
 Center     Atomic      Atomic             Coordinates (Angstroms)
 Number     Number       Type             X           Y           Z
 ---------------------------------------------------------------------
      1          8           0        0.073583    1.364653    0.000000
      2          1           0        0.072297    0.382053    0.000000
      3          1           0       -0.855492    1.684536   -0.000000
      4          8           0        0.073583   -1.197795    0.000000
      5          1           0        0.507024   -2.079631    0.000000
      6          1           0       -0.901159   -1.321821   -0.000000
 ---------------------------------------------------------------------

 SCF Done:  E(RHF) =  -152.104448358     A.U. after   11 cycles
 E2 =    -0.5310733991D+00 EUMP2 =    -0.15263552175686D+03
 CCSD(T)
 CCSD(T)= -0.15266212565D+03

 The electronic state is 1-A'.
 Alpha  occ. eigenvalues --  -20.59672 -20.50642  -1.37771  -1.28669  -0.75369
 Alpha  occ. eigenvalues --   -0.69079  -0.59346  -0.54525  -0.51297  -0.45676
 Alpha virt. eigenvalues --    0.11341   0.16945   0.20083   0.32808   0.48199
 Alpha virt. eigenvalues --    0.53641   0.59413   0.62201   0.70604   0.72164
 Alpha virt. eigenvalues --    0.73960   0.77843   0.80113   0.83572   0.84008

 Mulliken charges:
               1
     1  O   -0.580166
     2  H    0.301801
     3  H    0.224621
     4  O   -0.430498
     5  H    0.241682
     6  H    0.242561
 Sum of Mulliken charges =  -0.00000

 Dipole moment (field-independent basis, Debye):
    X=             -2.3757    Y=             -3.8066    Z=             -0.0000  Tot=              4.4871
 Quadrupole moment (field-independent basis, Debye-Ang):
   XX=             -9.8361   YY=             -9.1582   ZZ=            -14.6810
   XY=             -2.8430   XZ=             -0.0000   YZ=             -0.0000

 Normal termination of Gaussian 16 at Fri Aug 26 19:40:19 2022.
