 Gaussian 16, Revision A.03,
 Gaussian 16:  ES64L-G16RevA.03 25-Dec-2016

 ------------------
 #p CCSD(T)/cc-pVTZ
 ------------------

 ------------
 H2O_H2O_4304
 ------------
 Symbolic Z-matrix:
 Charge =  0 Multiplicity = 1

                         Standard orientation:
 ---------------------------------------------------------------------
 Center     Atomic      Atomic             Coordinates (Angstroms)
 Number     Number       Type             X           Y           Z
 ---------------------------------------------------------------------
      1          8           0        0.082798    2.813853   -0.000000
      2          1           0        0.082484    1.831252   -0.000000
      3          1           0       -0.846592    3.132817    0.000000
      4          8           0        0.082798   -2.659325   -0.000000
      5          1           0        0.336811   -3.608526   -0.000000
      6          1           0       -0.897478   -2.591773    0.000000
 ---------------------------------------------------------------------

 SCF Done:  E(RHF) =  -152.107979418     A.U. after   10 cycles
 E2 =    -0.5258587841D+00 EUMP2 =    -0.15263383820223D+03
 CCSD(T)
 CCSD(T)= -0.15266104347D+03

 The electronic state is 1-A'.
 Alpha  occ. eigenvalues --  -20.56239 -20.55140  -1.33540  -1.32444  -0.70953
 Alpha  occ. eigenvalues --   -0.69840  -0.57013  -0.55903  -0.50654  -0.49561
 Alpha virt. eigenvalues --    0.12902   0.14890   0.19241   0.21423   0.53280
 Alpha virt. eigenvalues --    0.54920   0.56559   0.57782   0.66801   0.68701
 Alpha virt. eigenvalues --    0.78238   0.79305   0.79360   0.80946   0.82380

 Mulliken charges:
               1
     1  O   -0.511180
     2  H    0.259008
     3  H    0.252020
     4  O   -0.512232
     5  H    0.258744
     6  H    0.253640
 Sum of Mulliken charges =  -0.00000

 Dipole moment (field-independent basis, Debye):
    X=             -2.8377    Y=             -2.7168    Z=              0.0000  Tot=              3.9285
 Quadrupole moment (field-independent basis, Debye-Ang):
   XX=            -10.2450   YY=             -7.8538   ZZ=            -14.7131
   XY=             -3.1718   XZ=              0.0000   YZ=              0.0000

 Normal termination of Gaussian 16 at Sun Aug 28 01:44:10 2022.
