 Gaussian 16, Revision A.03,
 Gaussian 16:  ES64L-G16RevA.03 25-Dec-2016

 ------------------
 #p CCSD(T)/cc-pVTZ
 ------------------

 ------------
 H2O_H2O_2309
 ------------
 Symbolic Z-matrix:
 Charge =  0 Multiplicity = 1

                         Standard orientation:
 ---------------------------------------------------------------------
 Center     Atomic      Atomic             Coordinates (Angstroms)
 Number     Number       Type             X           Y           Z
 ---------------------------------------------------------------------
      1          8           0        0.066775    2.026179   -0.000000
      2          1           0        0.065629    1.043579   -0.000000
      3          1           0       -0.862346    2.345930    0.000000
      4          8           0        0.066775   -1.853098   -0.000000
      5          1           0        0.611726   -2.670737   -0.000000
      6          1           0       -0.883405   -2.103426    0.000000
 ---------------------------------------------------------------------

 SCF Done:  E(RHF) =  -152.110804324     A.U. after   10 cycles
 E2 =    -0.5262560782D+00 EUMP2 =    -0.15263706040229D+03
 CCSD(T)
 CCSD(T)= -0.15266416199D+03

 The electronic state is 1-A'.
 Alpha  occ. eigenvalues --  -20.57087 -20.54144  -1.34350  -1.31477  -0.71757
 Alpha  occ. eigenvalues --   -0.68864  -0.57941  -0.54945  -0.51480  -0.48615
 Alpha virt. eigenvalues --    0.12118   0.16464   0.19370   0.24699   0.52567
 Alpha virt. eigenvalues --    0.55792   0.55964   0.58720   0.68869   0.71462
 Alpha virt. eigenvalues --    0.77038   0.78616   0.80271   0.82310   0.83565

 Mulliken charges:
               1
     1  O   -0.521949
     2  H    0.266874
     3  H    0.247867
     4  O   -0.507790
     5  H    0.260257
     6  H    0.254741
 Sum of Mulliken charges =  -0.00000

 Dipole moment (field-independent basis, Debye):
    X=             -2.2639    Y=             -3.1982    Z=              0.0000  Tot=              3.9184
 Quadrupole moment (field-independent basis, Debye-Ang):
   XX=             -9.5719   YY=             -7.8356   ZZ=            -14.7226
   XY=             -3.6353   XZ=             -0.0000   YZ=              0.0000

 Normal termination of Gaussian 16 at Sun Aug 28 06:12:42 2022.
