 Gaussian 16, Revision A.03,
 Gaussian 16:  ES64L-G16RevA.03 25-Dec-2016

 ------------------
 #p CCSD(T)/cc-pVTZ
 ------------------

 ------------
 H2O_H2O_2020
 ------------
 Symbolic Z-matrix:
 Charge =  0 Multiplicity = 1

                         Standard orientation:
 ---------------------------------------------------------------------
 Center     Atomic      Atomic             Coordinates (Angstroms)
 Number     Number       Type             X           Y           Z
 ---------------------------------------------------------------------
      1          8           0        0.026710    1.906584   -0.000000
      2          1           0        0.023619    0.923988   -0.000000
      3          1           0       -0.901776    2.228173   -0.000000
      4          8           0        0.026710   -1.733392    0.000000
      5          1           0        0.975026   -1.990692    0.000000
      6          1           0       -0.524231   -2.547007    0.000000
 ---------------------------------------------------------------------

 SCF Done:  E(RHF) =  -152.112269994     A.U. after   10 cycles
 E2 =    -0.5263738370D+00 EUMP2 =    -0.15263864383083D+03
 CCSD(T)
 CCSD(T)= -0.15266571053D+03

 The electronic state is 1-A'.
 Alpha  occ. eigenvalues --  -20.57312 -20.53792  -1.34574  -1.31151  -0.71971
 Alpha  occ. eigenvalues --   -0.68586  -0.58263  -0.54614  -0.51711  -0.48306
 Alpha virt. eigenvalues --    0.12243   0.16988   0.19168   0.26193   0.52340
 Alpha virt. eigenvalues --    0.54753   0.56231   0.58932   0.69007   0.72551
 Alpha virt. eigenvalues --    0.76274   0.78102   0.80635   0.83454   0.84160

 Mulliken charges:
               1
     1  O   -0.530898
     2  H    0.268338
     3  H    0.252029
     4  O   -0.509444
     5  H    0.261681
     6  H    0.258295
 Sum of Mulliken charges =  -0.00000

 Dipole moment (field-independent basis, Debye):
    X=             -0.9069    Y=             -3.2535    Z=              0.0000  Tot=              3.3776
 Quadrupole moment (field-independent basis, Debye-Ang):
   XX=             -9.2895   YY=             -8.0028   ZZ=            -14.7285
   XY=             -4.6274   XZ=              0.0000   YZ=              0.0000

 Normal termination of Gaussian 16 at Sun Aug 28 03:40:19 2022.
