 Gaussian 16, Revision A.03,
 Gaussian 16:  ES64L-G16RevA.03 25-Dec-2016

 ------------------
 #p CCSD(T)/cc-pVTZ
 ------------------

 -----------
 H2O_H2O_619
 -----------
 Symbolic Z-matrix:
 Charge =  0 Multiplicity = 1

                         Standard orientation:
 ---------------------------------------------------------------------
 Center     Atomic      Atomic             Coordinates (Angstroms)
 Number     Number       Type             X           Y           Z
 ---------------------------------------------------------------------
      1          8           0        0.030356    1.349412    0.000000
      2          1           0        0.026134    0.366819    0.000000
      3          1           0       -0.897759    1.672069    0.000000
      4          8           0        0.030356   -1.173919   -0.000000
      5          1           0        0.959445   -1.493761   -0.000000
      6          1           0       -0.573512   -1.949065   -0.000000
 ---------------------------------------------------------------------

 SCF Done:  E(RHF) =  -152.105262550     A.U. after   11 cycles
 E2 =    -0.5308009651D+00 EUMP2 =    -0.15263606351470D+03
 CCSD(T)
 CCSD(T)= -0.15266258026D+03

 The electronic state is 1-A'.
 Alpha  occ. eigenvalues --  -20.59804 -20.49626  -1.37975  -1.27858  -0.75115
 Alpha  occ. eigenvalues --   -0.69669  -0.59271  -0.54744  -0.50188  -0.44869
 Alpha virt. eigenvalues --    0.11528   0.18060   0.19381   0.33616   0.47594
 Alpha virt. eigenvalues --    0.53945   0.58730   0.66235   0.68597   0.72311
 Alpha virt. eigenvalues --    0.73315   0.77872   0.80711   0.83530   0.84022

 Mulliken charges:
               1
     1  O   -0.606829
     2  H    0.307024
     3  H    0.236822
     4  O   -0.445757
     5  H    0.262501
     6  H    0.246239
 Sum of Mulliken charges =  -0.00000

 Dipole moment (field-independent basis, Debye):
    X=             -0.9852    Y=             -4.0677    Z=             -0.0000  Tot=              4.1853
 Quadrupole moment (field-independent basis, Debye-Ang):
   XX=             -9.1994   YY=             -9.2523   ZZ=            -14.6883
   XY=             -3.2562   XZ=             -0.0000   YZ=              0.0000

 Normal termination of Gaussian 16 at Fri Aug 26 19:26:27 2022.
