 Gaussian 16, Revision A.03,
 Gaussian 16:  ES64L-G16RevA.03 25-Dec-2016

 ------------------
 #p CCSD(T)/cc-pVTZ
 ------------------

 ------------
 H2O_H2O_3995
 ------------
 Symbolic Z-matrix:
 Charge =  0 Multiplicity = 1

                         Standard orientation:
 ---------------------------------------------------------------------
 Center     Atomic      Atomic             Coordinates (Angstroms)
 Number     Number       Type             X           Y           Z
 ---------------------------------------------------------------------
      1          8           0        0.026628    2.694390   -0.000000
      2          1           0        0.024470    1.711791   -0.000000
      3          1           0       -0.902163    3.015096    0.000000
      4          8           0        0.026628   -2.521147   -0.000000
      5          1           0        0.975187   -2.777545   -0.000000
      6          1           0       -0.523540   -3.335285    0.000000
 ---------------------------------------------------------------------

 SCF Done:  E(RHF) =  -152.108797301     A.U. after   10 cycles
 E2 =    -0.5258101356D+00 EUMP2 =    -0.15263460743703D+03
 CCSD(T)
 CCSD(T)= -0.15266179240D+03

 The electronic state is 1-A'.
 Alpha  occ. eigenvalues --  -20.56287 -20.54865  -1.33586  -1.32176  -0.70989
 Alpha  occ. eigenvalues --   -0.69580  -0.57093  -0.55655  -0.50707  -0.49303
 Alpha virt. eigenvalues --    0.13011   0.15201   0.19517   0.21454   0.53404
 Alpha virt. eigenvalues --    0.55033   0.56607   0.57842   0.66680   0.69055
 Alpha virt. eigenvalues --    0.78185   0.79120   0.79545   0.80250   0.82837

 Mulliken charges:
               1
     1  O   -0.515698
     2  H    0.261132
     3  H    0.254125
     4  O   -0.515943
     5  H    0.258252
     6  H    0.258131
 Sum of Mulliken charges =  -0.00000

 Dipole moment (field-independent basis, Debye):
    X=             -0.9128    Y=             -3.0571    Z=              0.0000  Tot=              3.1905
 Quadrupole moment (field-independent basis, Debye-Ang):
   XX=             -9.2887   YY=             -6.9007   ZZ=            -14.7161
   XY=             -6.4342   XZ=             -0.0000   YZ=              0.0000

 Normal termination of Gaussian 16 at Sat Aug 27 00:53:50 2022.
