 Gaussian 16, Revision A.03,
 Gaussian 16:  ES64L-G16RevA.03 25-Dec-2016

 ------------------
 #p CCSD(T)/cc-pVTZ
 ------------------

 ------------
 H2O_H2O_2585
 ------------
 Symbolic Z-matrix:
 Charge =  0 Multiplicity = 1

                         Standard orientation:
 ---------------------------------------------------------------------
 Center     Atomic      Atomic             Coordinates (Angstroms)
 Number     Number       Type             X           Y           Z
 ---------------------------------------------------------------------
      1          8           0        0.063247    2.137180   -0.000000
      2          1           0        0.062016    1.154579   -0.000000
      3          1           0       -0.865847    2.457011   -0.000000
      4          8           0        0.063247   -1.961688    0.000000
      5          1           0        0.660440   -2.741986    0.000000
      6          1           0       -0.868554   -2.273545    0.000000
 ---------------------------------------------------------------------

 SCF Done:  E(RHF) =  -152.110328445     A.U. after   10 cycles
 E2 =    -0.5261011600D+00 EUMP2 =    -0.15263642960450D+03
 CCSD(T)
 CCSD(T)= -0.15266354960D+03

 The electronic state is 1-A'.
 Alpha  occ. eigenvalues --  -20.56891 -20.54287  -1.34159  -1.31613  -0.71564
 Alpha  occ. eigenvalues --   -0.68999  -0.57723  -0.55091  -0.51289  -0.48749
 Alpha virt. eigenvalues --    0.12239   0.16250   0.19386   0.23758   0.53020
 Alpha virt. eigenvalues --    0.55667   0.56100   0.58879   0.68948   0.70213
 Alpha virt. eigenvalues --    0.77481   0.78910   0.80098   0.80514   0.83427

 Mulliken charges:
               1
     1  O   -0.520259
     2  H    0.265837
     3  H    0.249249
     4  O   -0.510338
     5  H    0.260153
     6  H    0.255358
 Sum of Mulliken charges =  -0.00000

 Dipole moment (field-independent basis, Debye):
    X=             -2.1497    Y=             -3.2049    Z=              0.0000  Tot=              3.8591
 Quadrupole moment (field-independent basis, Debye-Ang):
   XX=             -9.4608   YY=             -7.6046   ZZ=            -14.7210
   XY=             -3.8771   XZ=              0.0000   YZ=             -0.0000

 Normal termination of Gaussian 16 at Fri Aug 26 15:48:14 2022.
