 Gaussian 16, Revision A.03,
 Gaussian 16:  ES64L-G16RevA.03 25-Dec-2016

 ------------------
 #p CCSD(T)/cc-pVTZ
 ------------------

 -----------
 H2O_H2O_957
 -----------
 Symbolic Z-matrix:
 Charge =  0 Multiplicity = 1

                         Standard orientation:
 ---------------------------------------------------------------------
 Center     Atomic      Atomic             Coordinates (Angstroms)
 Number     Number       Type             X           Y           Z
 ---------------------------------------------------------------------
      1          8           0        0.073574    1.484325   -0.000000
      2          1           0        0.072398    0.501724   -0.000000
      3          1           0       -0.855537    1.804103   -0.000000
      4          8           0        0.073574   -1.317450    0.000000
      5          1           0        0.507113   -2.199238    0.000000
      6          1           0       -0.901155   -1.441585    0.000000
 ---------------------------------------------------------------------

 SCF Done:  E(RHF) =  -152.110722282     A.U. after   10 cycles
 E2 =    -0.5291778330D+00 EUMP2 =    -0.15263990011536D+03
 CCSD(T)
 CCSD(T)= -0.15266674641D+03

 The electronic state is 1-A'.
 Alpha  occ. eigenvalues --  -20.58895 -20.52035  -1.36490  -1.29703  -0.74010
 Alpha  occ. eigenvalues --   -0.68205  -0.59668  -0.53476  -0.52730  -0.46784
 Alpha virt. eigenvalues --    0.11590   0.17059   0.19745   0.31689   0.48242
 Alpha virt. eigenvalues --    0.54378   0.58972   0.59715   0.69678   0.72499
 Alpha virt. eigenvalues --    0.74221   0.76870   0.81417   0.82576   0.84125

 Mulliken charges:
               1
     1  O   -0.558029
     2  H    0.294493
     3  H    0.232964
     4  O   -0.462779
     5  H    0.245940
     6  H    0.247410
 Sum of Mulliken charges =  -0.00000

 Dipole moment (field-independent basis, Debye):
    X=             -2.4169    Y=             -3.5408    Z=              0.0000  Tot=              4.2871
 Quadrupole moment (field-independent basis, Debye-Ang):
   XX=             -9.8441   YY=             -8.8474   ZZ=            -14.7104
   XY=             -2.9569   XZ=              0.0000   YZ=             -0.0000

 Normal termination of Gaussian 16 at Fri Aug 26 21:34:10 2022.
