 Gaussian 16, Revision A.03,
 Gaussian 16:  ES64L-G16RevA.03 25-Dec-2016

 ------------------
 #p CCSD(T)/cc-pVTZ
 ------------------

 ------------
 H2O_H2O_2447
 ------------
 Symbolic Z-matrix:
 Charge =  0 Multiplicity = 1

                         Standard orientation:
 ---------------------------------------------------------------------
 Center     Atomic      Atomic             Coordinates (Angstroms)
 Number     Number       Type             X           Y           Z
 ---------------------------------------------------------------------
      1          8           0       -0.019893    2.072792    0.000000
      2          1           0       -0.016775    1.090195    0.000000
      3          1           0        0.908584    2.394406    0.000000
      4          8           0       -0.019893   -1.905703    0.000000
      5          1           0       -0.993677   -2.037049    0.000000
      6          1           0        0.420161   -2.784259    0.000000
 ---------------------------------------------------------------------

 SCF Done:  E(RHF) =  -152.110940011     A.U. after   10 cycles
 E2 =    -0.5261002627D+00 EUMP2 =    -0.15263704027335D+03
 CCSD(T)
 CCSD(T)= -0.15266414769D+03

 The electronic state is 1-A'.
 Alpha  occ. eigenvalues --  -20.56948 -20.54269  -1.34221  -1.31601  -0.71629
 Alpha  occ. eigenvalues --   -0.69011  -0.57817  -0.55089  -0.51354  -0.48748
 Alpha virt. eigenvalues --    0.12245   0.16456   0.19260   0.24516   0.53569
 Alpha virt. eigenvalues --    0.55392   0.56255   0.58579   0.68826   0.71004
 Alpha virt. eigenvalues --    0.77283   0.79116   0.80121   0.81342   0.83694

 Mulliken charges:
               1
     1  O   -0.525142
     2  H    0.265512
     3  H    0.253780
     4  O   -0.512055
     5  H    0.259853
     6  H    0.258052
 Sum of Mulliken charges =  -0.00000

 Dipole moment (field-independent basis, Debye):
    X=              0.6804    Y=             -3.0656    Z=              0.0000  Tot=              3.1402
 Quadrupole moment (field-independent basis, Debye-Ang):
   XX=             -9.4473   YY=             -7.9300   ZZ=            -14.7230
   XY=              5.2879   XZ=              0.0000   YZ=              0.0000

 Normal termination of Gaussian 16 at Sun Aug 28 07:20:49 2022.
