 Gaussian 16, Revision A.03,
 Gaussian 16:  ES64L-G16RevA.03 25-Dec-2016

 ------------------
 #p CCSD(T)/cc-pVTZ
 ------------------

 ------------
 H2O_H2O_3729
 ------------
 Symbolic Z-matrix:
 Charge =  0 Multiplicity = 1

                         Standard orientation:
 ---------------------------------------------------------------------
 Center     Atomic      Atomic             Coordinates (Angstroms)
 Number     Number       Type             X           Y           Z
 ---------------------------------------------------------------------
      1          8           0        0.082801    2.584496   -0.000000
      2          1           0        0.082457    1.601895   -0.000000
      3          1           0       -0.846581    2.903488   -0.000000
      4          8           0        0.082801   -2.429972    0.000000
      5          1           0        0.336785   -3.379181    0.000000
      6          1           0       -0.897475   -2.362392    0.000000
 ---------------------------------------------------------------------

 SCF Done:  E(RHF) =  -152.108224482     A.U. after   10 cycles
 E2 =    -0.5258983772D+00 EUMP2 =    -0.15263412285901D+03
 CCSD(T)
 CCSD(T)= -0.15266131605D+03

 The electronic state is 1-A'.
 Alpha  occ. eigenvalues --  -20.56380 -20.55031  -1.33678  -1.32337  -0.71093
 Alpha  occ. eigenvalues --   -0.69729  -0.57157  -0.55799  -0.50792  -0.49455
 Alpha virt. eigenvalues --    0.12411   0.15219   0.19225   0.21895   0.53232
 Alpha virt. eigenvalues --    0.55042   0.56471   0.57968   0.66779   0.69026
 Alpha virt. eigenvalues --    0.78109   0.78810   0.79405   0.80937   0.82638

 Mulliken charges:
               1
     1  O   -0.511772
     2  H    0.259996
     3  H    0.251193
     4  O   -0.512328
     5  H    0.259556
     6  H    0.253354
 Sum of Mulliken charges =  -0.00000

 Dipole moment (field-independent basis, Debye):
    X=             -2.8317    Y=             -2.7362    Z=              0.0000  Tot=              3.9377
 Quadrupole moment (field-independent basis, Debye-Ang):
   XX=            -10.2480   YY=             -8.0114   ZZ=            -14.7139
   XY=             -3.0889   XZ=              0.0000   YZ=             -0.0000

 Normal termination of Gaussian 16 at Fri Aug 26 23:20:55 2022.
