 Gaussian 16, Revision A.03,
 Gaussian 16:  ES64L-G16RevA.03 25-Dec-2016

 ------------------
 #p CCSD(T)/cc-pVTZ
 ------------------

 ------------
 H2O_H2O_4110
 ------------
 Symbolic Z-matrix:
 Charge =  0 Multiplicity = 1

                         Standard orientation:
 ---------------------------------------------------------------------
 Center     Atomic      Atomic             Coordinates (Angstroms)
 Number     Number       Type             X           Y           Z
 ---------------------------------------------------------------------
      1          8           0        0.063221    2.745486   -0.000000
      2          1           0        0.062272    1.762885   -0.000000
      3          1           0       -0.865963    3.065050   -0.000000
      4          8           0        0.063221   -2.569956    0.000000
      5          1           0        0.660638   -3.350085    0.000000
      6          1           0       -0.868489   -2.882082    0.000000
 ---------------------------------------------------------------------

 SCF Done:  E(RHF) =  -152.108477075     A.U. after   10 cycles
 E2 =    -0.5258333053D+00 EUMP2 =    -0.15263431038048D+03
 CCSD(T)
 CCSD(T)= -0.15266150259D+03

 The electronic state is 1-A'.
 Alpha  occ. eigenvalues --  -20.56271 -20.54900  -1.33570  -1.32209  -0.70976
 Alpha  occ. eigenvalues --   -0.69606  -0.57064  -0.55678  -0.50689  -0.49331
 Alpha virt. eigenvalues --    0.13076   0.15091   0.19582   0.21256   0.53483
 Alpha virt. eigenvalues --    0.54924   0.56579   0.57827   0.66696   0.68988
 Alpha virt. eigenvalues --    0.78204   0.79259   0.79522   0.80140   0.82788

 Mulliken charges:
               1
     1  O   -0.513687
     2  H    0.260993
     3  H    0.252357
     4  O   -0.514457
     5  H    0.259122
     6  H    0.255672
 Sum of Mulliken charges =  -0.00000

 Dipole moment (field-independent basis, Debye):
    X=             -2.1655    Y=             -3.0939    Z=              0.0000  Tot=              3.7764
 Quadrupole moment (field-independent basis, Debye-Ang):
   XX=             -9.4544   YY=             -6.7272   ZZ=            -14.7150
   XY=             -4.5063   XZ=              0.0000   YZ=             -0.0000

 Normal termination of Gaussian 16 at Sat Aug 27 23:47:35 2022.
