 Gaussian 16, Revision A.03,
 Gaussian 16:  ES64L-G16RevA.03 25-Dec-2016

 ------------------
 #p CCSD(T)/cc-pVTZ
 ------------------

 ------------
 H2O_H2O_4994
 ------------
 Symbolic Z-matrix:
 Charge =  0 Multiplicity = 1

                         Standard orientation:
 ---------------------------------------------------------------------
 Center     Atomic      Atomic             Coordinates (Angstroms)
 Number     Number       Type             X           Y           Z
 ---------------------------------------------------------------------
      1          8           0        0.030137    3.094568   -0.000000
      2          1           0        0.028365    2.111968   -0.000000
      3          1           0       -0.898780    3.414910    0.000000
      4          8           0        0.030137   -2.918925   -0.000000
      5          1           0        0.960021   -3.236449   -0.000000
      6          1           0       -0.571796   -3.695574    0.000000
 ---------------------------------------------------------------------

 SCF Done:  E(RHF) =  -152.108268510     A.U. after   10 cycles
 E2 =    -0.5258015342D+00 EUMP2 =    -0.15263407004446D+03
 CCSD(T)
 CCSD(T)= -0.15266127258D+03

 The electronic state is 1-A'.
 Alpha  occ. eigenvalues --  -20.56105 -20.55064  -1.33408  -1.32370  -0.70812
 Alpha  occ. eigenvalues --   -0.69775  -0.56894  -0.55839  -0.50526  -0.49492
 Alpha virt. eigenvalues --    0.13542   0.14746   0.19721   0.20891   0.53712
 Alpha virt. eigenvalues --    0.54787   0.56731   0.57746   0.67087   0.68460
 Alpha virt. eigenvalues --    0.78356   0.79369   0.79748   0.80603   0.82095

 Mulliken charges:
               1
     1  O   -0.513448
     2  H    0.259224
     3  H    0.254195
     4  O   -0.513961
     5  H    0.257170
     6  H    0.256820
 Sum of Mulliken charges =   0.00000

 Dipole moment (field-independent basis, Debye):
    X=             -1.0352    Y=             -3.0716    Z=             -0.0000  Tot=              3.2414
 Quadrupole moment (field-independent basis, Debye-Ang):
   XX=             -9.2309   YY=             -6.1943   ZZ=            -14.7143
   XY=             -7.0972   XZ=             -0.0000   YZ=              0.0000

 Normal termination of Gaussian 16 at Sun Aug 28 07:31:42 2022.
