 Gaussian 16, Revision A.03,
 Gaussian 16:  ES64L-G16RevA.03 25-Dec-2016

 ------------------
 #p CCSD(T)/cc-pVTZ
 ------------------

 ------------
 H2O_H2O_4530
 ------------
 Symbolic Z-matrix:
 Charge =  0 Multiplicity = 1

                         Standard orientation:
 ---------------------------------------------------------------------
 Center     Atomic      Atomic             Coordinates (Angstroms)
 Number     Number       Type             X           Y           Z
 ---------------------------------------------------------------------
      1          8           0        0.079844    2.906071    0.000000
      2          1           0        0.079451    1.923470    0.000000
      3          1           0       -0.849521    3.225109    0.000000
      4          8           0        0.079844   -2.746994   -0.000000
      5          1           0        0.395319   -3.677575   -0.000000
      6          1           0       -0.902752   -2.743622   -0.000000
 ---------------------------------------------------------------------

 SCF Done:  E(RHF) =  -152.107981338     A.U. after   10 cycles
 E2 =    -0.5258460609D+00 EUMP2 =    -0.15263382739885D+03
 CCSD(T)
 CCSD(T)= -0.15266103395D+03

 The electronic state is 1-A'.
 Alpha  occ. eigenvalues --  -20.56194 -20.55137  -1.33496  -1.32441  -0.70906
 Alpha  occ. eigenvalues --   -0.69838  -0.56969  -0.55901  -0.50610  -0.49558
 Alpha virt. eigenvalues --    0.13139   0.14797   0.19371   0.21191   0.53418
 Alpha virt. eigenvalues --    0.54855   0.56605   0.57734   0.66896   0.68596
 Alpha virt. eigenvalues --    0.78279   0.79307   0.79518   0.80803   0.82243

 Mulliken charges:
               1
     1  O   -0.511370
     2  H    0.258963
     3  H    0.252318
     4  O   -0.512363
     5  H    0.258427
     6  H    0.254025
 Sum of Mulliken charges =   0.00000

 Dipole moment (field-independent basis, Debye):
    X=             -2.7382    Y=             -2.7912    Z=             -0.0000  Tot=              3.9101
 Quadrupole moment (field-independent basis, Debye-Ang):
   XX=            -10.0937   YY=             -7.4957   ZZ=            -14.7132
   XY=             -3.4607   XZ=             -0.0000   YZ=              0.0000

 Normal termination of Gaussian 16 at Sun Aug 28 03:39:33 2022.
