 Gaussian 16, Revision A.03,
 Gaussian 16:  ES64L-G16RevA.03 25-Dec-2016

 ------------------
 #p CCSD(T)/cc-pVTZ
 ------------------

 ------------
 H2O_H2O_3930
 ------------
 Symbolic Z-matrix:
 Charge =  0 Multiplicity = 1

                         Standard orientation:
 ---------------------------------------------------------------------
 Center     Atomic      Atomic             Coordinates (Angstroms)
 Number     Number       Type             X           Y           Z
 ---------------------------------------------------------------------
      1          8           0        0.079847    2.666742   -0.000000
      2          1           0        0.079417    1.684141   -0.000000
      3          1           0       -0.849507    2.985815   -0.000000
      4          8           0        0.079847   -2.507671    0.000000
      5          1           0        0.395287   -3.438263    0.000000
      6          1           0       -0.902749   -2.504262    0.000000
 ---------------------------------------------------------------------

 SCF Done:  E(RHF) =  -152.108216611     A.U. after   10 cycles
 E2 =    -0.5258728534D+00 EUMP2 =    -0.15263408946468D+03
 CCSD(T)
 CCSD(T)= -0.15266128552D+03

 The electronic state is 1-A'.
 Alpha  occ. eigenvalues --  -20.56323 -20.55026  -1.33622  -1.32332  -0.71034
 Alpha  occ. eigenvalues --   -0.69726  -0.57103  -0.55795  -0.50737  -0.49451
 Alpha virt. eigenvalues --    0.12668   0.15115   0.19291   0.21620   0.53226
 Alpha virt. eigenvalues --    0.55018   0.56508   0.57894   0.66715   0.68965
 Alpha virt. eigenvalues --    0.78160   0.78975   0.79409   0.80793   0.82644

 Mulliken charges:
               1
     1  O   -0.512009
     2  H    0.260012
     3  H    0.251591
     4  O   -0.512849
     5  H    0.259352
     6  H    0.253904
 Sum of Mulliken charges =  -0.00000

 Dipole moment (field-independent basis, Debye):
    X=             -2.7330    Y=             -2.8090    Z=              0.0000  Tot=              3.9192
 Quadrupole moment (field-independent basis, Debye-Ang):
   XX=            -10.0961   YY=             -7.7018   ZZ=            -14.7140
   XY=             -3.3499   XZ=              0.0000   YZ=             -0.0000

 Normal termination of Gaussian 16 at Sat Aug 27 00:31:54 2022.
