 Gaussian 16, Revision A.03,
 Gaussian 16:  ES64L-G16RevA.03 25-Dec-2016

 ------------------
 #p CCSD(T)/cc-pVTZ
 ------------------

 ------------
 H2O_H2O_1096
 ------------
 Symbolic Z-matrix:
 Charge =  0 Multiplicity = 1

                         Standard orientation:
 ---------------------------------------------------------------------
 Center     Atomic      Atomic             Coordinates (Angstroms)
 Number     Number       Type             X           Y           Z
 ---------------------------------------------------------------------
      1          8           0       -0.023336    1.536066    0.000000
      2          1           0       -0.019257    0.553473    0.000000
      3          1           0        0.904826    1.858588    0.000000
      4          8           0       -0.023336   -1.365749    0.000000
      5          1           0       -0.986254   -1.561443    0.000000
      6          1           0        0.474065   -2.213156    0.000000
 ---------------------------------------------------------------------

 SCF Done:  E(RHF) =  -152.113354394     A.U. after   10 cycles
 E2 =    -0.5282359866D+00 EUMP2 =    -0.15264159038018D+03
 CCSD(T)
 CCSD(T)= -0.15266848020D+03

 The electronic state is 1-A'.
 Alpha  occ. eigenvalues --  -20.58577 -20.52099  -1.36053  -1.29720  -0.73485
 Alpha  occ. eigenvalues --   -0.67919  -0.59741  -0.53113  -0.52802  -0.46850
 Alpha virt. eigenvalues --    0.12000   0.18245   0.18782   0.31481   0.49142
 Alpha virt. eigenvalues --    0.54649   0.55955   0.62591   0.68453   0.72860
 Alpha virt. eigenvalues --    0.73296   0.76973   0.81970   0.82490   0.84423

 Mulliken charges:
               1
     1  O   -0.565093
     2  H    0.288993
     3  H    0.248387
     4  O   -0.484311
     5  H    0.263914
     6  H    0.248109
 Sum of Mulliken charges =  -0.00000

 Dipole moment (field-independent basis, Debye):
    X=              0.7814    Y=             -3.5365    Z=              0.0000  Tot=              3.6218
 Quadrupole moment (field-independent basis, Debye-Ang):
   XX=             -9.3536   YY=             -8.7192   ZZ=            -14.7251
   XY=              3.8340   XZ=              0.0000   YZ=              0.0000

 CCSD(T)=-152.6684802\RMSD=6.780e-09\PG=CS [SG(H4O2)]\\@
 Normal termination of Gaussian 16 at Fri Aug 26 22:26:13 2022.
