 Gaussian 16, Revision A.03,
 Gaussian 16:  ES64L-G16RevA.03 25-Dec-2016

 ------------------
 #p CCSD(T)/cc-pVTZ
 ------------------

 -----------
 H2O_H2O_154
 -----------
 Symbolic Z-matrix:
 Charge =  0 Multiplicity = 1

                         Standard orientation:
 ---------------------------------------------------------------------
 Center     Atomic      Atomic             Coordinates (Angstroms)
 Number     Number       Type             X           Y           Z
 ---------------------------------------------------------------------
      1          8           0        0.082836   -1.158472    0.000000
      2          1           0        0.082040   -0.175871    0.000000
      3          1           0       -0.846398   -1.477891    0.000000
      4          8           0        0.082836    1.004024    0.000000
      5          1           0        0.336384    1.953351    0.000000
      6          1           0       -0.897407    0.935993    0.000000
 ---------------------------------------------------------------------

 SCF Done:  E(RHF) =  -152.052812420     A.U. after   11 cycles
 E2 =    -0.5369859966D+00 EUMP2 =    -0.15258979841708D+03
 CCSD(T)
 CCSD(T)= -0.15261556181D+03

 The electronic state is 1-A'.
 Alpha  occ. eigenvalues --  -20.61439 -20.47185  -1.42639  -1.26473  -0.81484
 Alpha  occ. eigenvalues --   -0.71794  -0.57575  -0.56534  -0.47772  -0.43235
 Alpha virt. eigenvalues --    0.10651   0.16025   0.21422   0.32103   0.49382
 Alpha virt. eigenvalues --    0.51487   0.59903   0.65373   0.71305   0.72497
 Alpha virt. eigenvalues --    0.76178   0.78288   0.80485   0.85360   0.85995

 Mulliken charges:
               1
     1  O   -0.613828
     2  H    0.273704
     3  H    0.195605
     4  O   -0.321369
     5  H    0.228870
     6  H    0.237017
 Sum of Mulliken charges =  -0.00000

 Dipole moment (field-independent basis, Debye):
    X=             -2.5638    Y=              4.2613    Z=              0.0000  Tot=              4.9731
 Quadrupole moment (field-independent basis, Debye-Ang):
   XX=            -10.2215   YY=             -9.8465   ZZ=            -14.5539
   XY=              2.3805   XZ=              0.0000   YZ=              0.0000

 Normal termination of Gaussian 16 at Fri Aug 26 16:14:18 2022.
