 Gaussian 16, Revision A.03,
 Gaussian 16:  ES64L-G16RevA.03 25-Dec-2016

 ------------------
 #p CCSD(T)/cc-pVTZ
 ------------------

 ------------
 H2O_H2O_1842
 ------------
 Symbolic Z-matrix:
 Charge =  0 Multiplicity = 1

                         Standard orientation:
 ---------------------------------------------------------------------
 Center     Atomic      Atomic             Coordinates (Angstroms)
 Number     Number       Type             X           Y           Z
 ---------------------------------------------------------------------
      1          8           0        0.037502    1.839889    0.000000
      2          1           0        0.034810    0.857291    0.000000
      3          1           0       -0.891115    2.161100   -0.000000
      4          8           0        0.037502   -1.660971    0.000000
      5          1           0        0.917576   -2.097978    0.000000
      6          1           0       -0.661301   -2.351754   -0.000000
 ---------------------------------------------------------------------

 SCF Done:  E(RHF) =  -152.112961525     A.U. after   10 cycles
 E2 =    -0.5265676699D+00 EUMP2 =    -0.15263952919485D+03
 CCSD(T)
 CCSD(T)= -0.15266657396D+03

 The electronic state is 1-A'.
 Alpha  occ. eigenvalues --  -20.57517 -20.53476  -1.34772  -1.30856  -0.72147
 Alpha  occ. eigenvalues --   -0.68327  -0.58519  -0.54292  -0.51913  -0.48012
 Alpha virt. eigenvalues --    0.12207   0.17238   0.19081   0.27096   0.51369
 Alpha virt. eigenvalues --    0.54641   0.56319   0.59152   0.69078   0.72474
 Alpha virt. eigenvalues --    0.75680   0.77295   0.80952   0.83332   0.84549

 Mulliken charges:
               1
     1  O   -0.533874
     2  H    0.271005
     3  H    0.249601
     4  O   -0.508260
     5  H    0.262981
     6  H    0.258547
 Sum of Mulliken charges =   0.00000

 Dipole moment (field-independent basis, Debye):
    X=             -1.2665    Y=             -3.4048    Z=             -0.0000  Tot=              3.6327
 Quadrupole moment (field-independent basis, Debye-Ang):
   XX=             -9.1612   YY=             -8.0124   ZZ=            -14.7317
   XY=             -4.1862   XZ=              0.0000   YZ=             -0.0000

 Normal termination of Gaussian 16 at Sun Aug 28 02:07:17 2022.
