 Gaussian 16, Revision A.03,
 Gaussian 16:  ES64L-G16RevA.03 25-Dec-2016

 ------------------
 #p CCSD(T)/cc-pVTZ
 ------------------

 -----------
 H2O_H2O_939
 -----------
 Symbolic Z-matrix:
 Charge =  0 Multiplicity = 1

                         Standard orientation:
 ---------------------------------------------------------------------
 Center     Atomic      Atomic             Coordinates (Angstroms)
 Number     Number       Type             X           Y           Z
 ---------------------------------------------------------------------
      1          8           0        0.048678    1.481644    0.000000
      2          1           0        0.045972    0.499046    0.000000
      3          1           0       -0.879934    1.802869    0.000000
      4          8           0        0.048678   -1.301358    0.000000
      5          1           0        0.826579   -1.901673    0.000000
      6          1           0       -0.771470   -1.842525    0.000000
 ---------------------------------------------------------------------

 SCF Done:  E(RHF) =  -152.112769081     A.U. after   10 cycles
 E2 =    -0.5289377119D+00 EUMP2 =    -0.15264170679289D+03
 CCSD(T)
 CCSD(T)= -0.15266850768D+03

 The electronic state is 1-A'.
 Alpha  occ. eigenvalues --  -20.58990 -20.51279  -1.36555  -1.29043  -0.73700
 Alpha  occ. eigenvalues --   -0.68301  -0.59715  -0.53585  -0.51969  -0.46138
 Alpha virt. eigenvalues --    0.11751   0.17973   0.19079   0.32286   0.48237
 Alpha virt. eigenvalues --    0.54566   0.57500   0.61090   0.69507   0.71592
 Alpha virt. eigenvalues --    0.72637   0.77572   0.82290   0.82743   0.84766

 Mulliken charges:
               1
     1  O   -0.573042
     2  H    0.301660
     3  H    0.238205
     4  O   -0.488707
     5  H    0.265062
     6  H    0.256823
 Sum of Mulliken charges =  -0.00000

 Dipole moment (field-independent basis, Debye):
    X=             -1.6006    Y=             -3.8476    Z=              0.0000  Tot=              4.1672
 Quadrupole moment (field-independent basis, Debye-Ang):
   XX=             -9.1807   YY=             -8.8386   ZZ=            -14.7223
   XY=             -3.3489   XZ=              0.0000   YZ=              0.0000

 Normal termination of Gaussian 16 at Fri Aug 26 21:27:25 2022.
