 Gaussian 16, Revision A.03,
 Gaussian 16:  ES64L-G16RevA.03 25-Dec-2016

 ------------------
 #p CCSD(T)/cc-pVTZ
 ------------------

 ------------
 H2O_H2O_1502
 ------------
 Symbolic Z-matrix:
 Charge =  0 Multiplicity = 1

                         Standard orientation:
 ---------------------------------------------------------------------
 Center     Atomic      Atomic             Coordinates (Angstroms)
 Number     Number       Type             X           Y           Z
 ---------------------------------------------------------------------
      1          8           0        0.088237   -1.691445    0.000000
      2          1           0        0.087990   -0.708844    0.000000
      3          1           0       -0.841176   -2.010345    0.000000
      4          8           0        0.088237    1.547138    0.000000
      5          1           0        0.216247    2.521366    0.000000
      6          1           0       -0.874850    1.352279    0.000000
 ---------------------------------------------------------------------

 SCF Done:  E(RHF) =  -152.109973361     A.U. after   10 cycles
 E2 =    -0.5275336411D+00 EUMP2 =    -0.15263750700240D+03
 CCSD(T)
 CCSD(T)= -0.15266457711D+03

 The electronic state is 1-A'.
 Alpha  occ. eigenvalues --  -20.57874 -20.54115  -1.35225  -1.31486  -0.72882
 Alpha  occ. eigenvalues --   -0.68796  -0.58769  -0.54844  -0.52291  -0.48592
 Alpha virt. eigenvalues --    0.11574   0.16440   0.20181   0.27949   0.49891
 Alpha virt. eigenvalues --    0.54738   0.57762   0.57983   0.68363   0.73967
 Alpha virt. eigenvalues --    0.74657   0.77623   0.80732   0.82155   0.83503

 Mulliken charges:
               1
     1  O   -0.524570
     2  H    0.273653
     3  H    0.239864
     4  O   -0.484436
     5  H    0.250346
     6  H    0.245143
 Sum of Mulliken charges =   0.00000

 Dipole moment (field-independent basis, Debye):
    X=             -2.9483    Y=              2.8147    Z=              0.0000  Tot=              4.0761
 Quadrupole moment (field-independent basis, Debye-Ang):
   XX=            -10.5987   YY=             -8.8656   ZZ=            -14.7152
   XY=              2.4535   XZ=              0.0000   YZ=              0.0000

 Normal termination of Gaussian 16 at Sat Aug 27 00:58:29 2022.
