 Gaussian 16, Revision A.03,
 Gaussian 16:  ES64L-G16RevA.03 25-Dec-2016

 ------------------
 #p CCSD(T)/cc-pVTZ
 ------------------

 ------------
 H2O_H2O_2594
 ------------
 Symbolic Z-matrix:
 Charge =  0 Multiplicity = 1

                         Standard orientation:
 ---------------------------------------------------------------------
 Center     Atomic      Atomic             Coordinates (Angstroms)
 Number     Number       Type             X           Y           Z
 ---------------------------------------------------------------------
      1          8           0        0.030211    2.137240    0.000000
      2          1           0        0.027612    1.154642    0.000000
      3          1           0       -0.898436    2.458364    0.000000
      4          8           0        0.030211   -1.961648   -0.000000
      5          1           0        0.959827   -2.279955   -0.000000
      6          1           0       -0.572375   -2.737789   -0.000000
 ---------------------------------------------------------------------

 SCF Done:  E(RHF) =  -152.110768963     A.U. after   10 cycles
 E2 =    -0.5260387787D+00 EUMP2 =    -0.15263680774188D+03
 CCSD(T)
 CCSD(T)= -0.15266392131D+03

 The electronic state is 1-A'.
 Alpha  occ. eigenvalues --  -20.56868 -20.54238  -1.34137  -1.31568  -0.71535
 Alpha  occ. eigenvalues --   -0.68971  -0.57724  -0.55060  -0.51272  -0.48713
 Alpha virt. eigenvalues --    0.12353   0.16354   0.19313   0.23914   0.53144
 Alpha virt. eigenvalues --    0.55564   0.56407   0.58721   0.69016   0.70248
 Alpha virt. eigenvalues --    0.77494   0.78970   0.80126   0.80606   0.83562

 Mulliken charges:
               1
     1  O   -0.523588
     2  H    0.265780
     3  H    0.252582
     4  O   -0.512728
     5  H    0.260216
     6  H    0.257739
 Sum of Mulliken charges =  -0.00000

 Dipole moment (field-independent basis, Debye):
    X=             -1.0290    Y=             -3.2057    Z=             -0.0000  Tot=              3.3668
 Quadrupole moment (field-independent basis, Debye-Ang):
   XX=             -9.2295   YY=             -7.5915   ZZ=            -14.7226
   XY=             -5.0213   XZ=             -0.0000   YZ=              0.0000

 Normal termination of Gaussian 16 at Fri Aug 26 15:52:04 2022.
