 Gaussian 16, Revision A.03,
 Gaussian 16:  ES64L-G16RevA.03 25-Dec-2016

 ------------------
 #p CCSD(T)/cc-pVTZ
 ------------------

 ------------
 H2O_H2O_4392
 ------------
 Symbolic Z-matrix:
 Charge =  0 Multiplicity = 1

                         Standard orientation:
 ---------------------------------------------------------------------
 Center     Atomic      Atomic             Coordinates (Angstroms)
 Number     Number       Type             X           Y           Z
 ---------------------------------------------------------------------
      1          8           0        0.037412    2.857061   -0.000000
      2          1           0        0.035709    1.874461   -0.000000
      3          1           0       -0.891528    3.177337   -0.000000
      4          8           0        0.037412   -2.678068    0.000000
      5          1           0        0.917926   -3.114188    0.000000
      6          1           0       -0.660695   -3.369554    0.000000
 ---------------------------------------------------------------------

 SCF Done:  E(RHF) =  -152.108532036     A.U. after   10 cycles
 E2 =    -0.5258034801D+00 EUMP2 =    -0.15263433551622D+03
 CCSD(T)
 CCSD(T)= -0.15266152965D+03

 The electronic state is 1-A'.
 Alpha  occ. eigenvalues --  -20.56203 -20.54921  -1.33504  -1.32230  -0.70907
 Alpha  occ. eigenvalues --   -0.69632  -0.57002  -0.55704  -0.50623  -0.49354
 Alpha virt. eigenvalues --    0.13309   0.14993   0.19675   0.21113   0.53618
 Alpha virt. eigenvalues --    0.54877   0.56656   0.57808   0.66778   0.68827
 Alpha virt. eigenvalues --    0.78264   0.79499   0.79580   0.80108   0.82735

 Mulliken charges:
               1
     1  O   -0.514508
     2  H    0.260653
     3  H    0.253680
     4  O   -0.515149
     5  H    0.258173
     6  H    0.257151
 Sum of Mulliken charges =  -0.00000

 Dipole moment (field-independent basis, Debye):
    X=             -1.2830    Y=             -3.1450    Z=              0.0000  Tot=              3.3967
 Quadrupole moment (field-independent basis, Debye-Ang):
   XX=             -9.1595   YY=             -6.3630   ZZ=            -14.7152
   XY=             -6.1444   XZ=              0.0000   YZ=             -0.0000

 Normal termination of Gaussian 16 at Sun Aug 28 02:27:24 2022.
