 Gaussian 16, Revision A.03,
 Gaussian 16:  ES64L-G16RevA.03 25-Dec-2016

 ------------------
 #p CCSD(T)/cc-pVTZ
 ------------------

 -----------
 H2O_H2O_616
 -----------
 Symbolic Z-matrix:
 Charge =  0 Multiplicity = 1

                         Standard orientation:
 ---------------------------------------------------------------------
 Center     Atomic      Atomic             Coordinates (Angstroms)
 Number     Number       Type             X           Y           Z
 ---------------------------------------------------------------------
      1          8           0        0.041282    1.351746   -0.000000
      2          1           0        0.037797    0.369151   -0.000000
      3          1           0       -0.887075    1.673707   -0.000000
      4          8           0        0.041282   -1.171951    0.000000
      5          1           0        0.890492   -1.666267    0.000000
      6          1           0       -0.701723   -1.814951    0.000000
 ---------------------------------------------------------------------

 SCF Done:  E(RHF) =  -152.105638805     A.U. after   11 cycles
 E2 =    -0.5307957493D+00 EUMP2 =    -0.15263643455398D+03
 CCSD(T)
 CCSD(T)= -0.15266294448D+03

 The electronic state is 1-A'.
 Alpha  occ. eigenvalues --  -20.59857 -20.49489  -1.37995  -1.27742  -0.74821
 Alpha  occ. eigenvalues --   -0.70114  -0.59059  -0.54785  -0.50079  -0.44740
 Alpha virt. eigenvalues --    0.11448   0.17879   0.19506   0.33482   0.47514
 Alpha virt. eigenvalues --    0.53926   0.59674   0.64042   0.69444   0.72340
 Alpha virt. eigenvalues --    0.72997   0.78359   0.81417   0.82872   0.84180

 Mulliken charges:
               1
     1  O   -0.605531
     2  H    0.312399
     3  H    0.232310
     4  O   -0.453694
     5  H    0.262911
     6  H    0.251604
 Sum of Mulliken charges =  -0.00000

 Dipole moment (field-independent basis, Debye):
    X=             -1.3325    Y=             -4.1605    Z=              0.0000  Tot=              4.3687
 Quadrupole moment (field-independent basis, Debye-Ang):
   XX=             -9.1273   YY=             -9.2693   ZZ=            -14.6913
   XY=             -3.1644   XZ=              0.0000   YZ=             -0.0000

 Normal termination of Gaussian 16 at Fri Aug 26 19:25:19 2022.
