 Gaussian 16, Revision A.03,
 Gaussian 16:  ES64L-G16RevA.03 25-Dec-2016

 ------------------
 #p CCSD(T)/cc-pVTZ
 ------------------

 ------------
 H2O_H2O_1773
 ------------
 Symbolic Z-matrix:
 Charge =  0 Multiplicity = 1

                         Standard orientation:
 ---------------------------------------------------------------------
 Center     Atomic      Atomic             Coordinates (Angstroms)
 Number     Number       Type             X           Y           Z
 ---------------------------------------------------------------------
      1          8           0       -0.016702    1.801527    0.000000
      2          1           0       -0.012936    0.818933    0.000000
      3          1           0        0.911563    2.123753    0.000000
      4          8           0       -0.016702   -1.638168    0.000000
      5          1           0       -0.996946   -1.706189    0.000000
      6          1           0        0.365546   -2.543371    0.000000
 ---------------------------------------------------------------------

 SCF Done:  E(RHF) =  -152.112581225     A.U. after   10 cycles
 E2 =    -0.5266439313D+00 EUMP2 =    -0.15263922515598D+03
 CCSD(T)
 CCSD(T)= -0.15266627634D+03

 The electronic state is 1-A'.
 Alpha  occ. eigenvalues --  -20.57534 -20.53707  -1.34821  -1.31088  -0.72263
 Alpha  occ. eigenvalues --   -0.68543  -0.58552  -0.54511  -0.51946  -0.48243
 Alpha virt. eigenvalues --    0.12186   0.17187   0.19202   0.27409   0.51879
 Alpha virt. eigenvalues --    0.54380   0.55889   0.59669   0.68871   0.73606
 Alpha virt. eigenvalues --    0.75325   0.77933   0.80825   0.83174   0.84222

 Mulliken charges:
               1
     1  O   -0.535649
     2  H    0.269607
     3  H    0.253640
     4  O   -0.506916
     5  H    0.262131
     6  H    0.257188
 Sum of Mulliken charges =  -0.00000

 Dipole moment (field-independent basis, Debye):
    X=              0.5721    Y=             -3.1200    Z=              0.0000  Tot=              3.1720
 Quadrupole moment (field-independent basis, Debye-Ang):
   XX=             -9.5448   YY=             -8.3522   ZZ=            -14.7292
   XY=              4.7215   XZ=              0.0000   YZ=              0.0000

 Normal termination of Gaussian 16 at Sun Aug 28 01:27:37 2022.
