 Gaussian 16, Revision A.03,
 Gaussian 16:  ES64L-G16RevA.03 25-Dec-2016

 ------------------
 #p CCSD(T)/cc-pVTZ
 ------------------

 ------------
 H2O_H2O_1286
 ------------
 Symbolic Z-matrix:
 Charge =  0 Multiplicity = 1

                         Standard orientation:
 ---------------------------------------------------------------------
 Center     Atomic      Atomic             Coordinates (Angstroms)
 Number     Number       Type             X           Y           Z
 ---------------------------------------------------------------------
      1          8           0        0.059695    1.619664   -0.000000
      2          1           0        0.057848    0.637064   -0.000000
      3          1           0       -0.869198    1.940077    0.000000
      4          8           0        0.059695   -1.442292   -0.000000
      5          1           0        0.706179   -2.182267   -0.000000
      6          1           0       -0.849947   -1.813854    0.000000
 ---------------------------------------------------------------------

 SCF Done:  E(RHF) =  -152.113611424     A.U. after   10 cycles
 E2 =    -0.5277280978D+00 EUMP2 =    -0.15264133952182D+03
 CCSD(T)
 CCSD(T)= -0.15266829549D+03

 The electronic state is 1-A'.
 Alpha  occ. eigenvalues --  -20.58289 -20.52581  -1.35635  -1.30089  -0.72969
 Alpha  occ. eigenvalues --   -0.67985  -0.59370  -0.53333  -0.52739  -0.47222
 Alpha virt. eigenvalues --    0.11888   0.17491   0.19171   0.30182   0.48962
 Alpha virt. eigenvalues --    0.54896   0.56778   0.59456   0.69676   0.72216
 Alpha virt. eigenvalues --    0.73499   0.76709   0.81891   0.82712   0.84763

 Mulliken charges:
               1
     1  O   -0.547180
     2  H    0.285136
     3  H    0.241240
     4  O   -0.498619
     5  H    0.262736
     6  H    0.256687
 Sum of Mulliken charges =  -0.00000

 Dipole moment (field-independent basis, Debye):
    X=             -1.9877    Y=             -3.5667    Z=              0.0000  Tot=              4.0832
 Quadrupole moment (field-independent basis, Debye-Ang):
   XX=             -9.3773   YY=             -8.4835   ZZ=            -14.7317
   XY=             -3.3978   XZ=             -0.0000   YZ=              0.0000

 Normal termination of Gaussian 16 at Fri Aug 26 23:36:46 2022.
