 Gaussian 16, Revision A.03,
 Gaussian 16:  ES64L-G16RevA.03 25-Dec-2016

 ------------------
 #p CCSD(T)/cc-pVTZ
 ------------------

 -----------
 H2O_H2O_847
 -----------
 Symbolic Z-matrix:
 Charge =  0 Multiplicity = 1

                         Standard orientation:
 ---------------------------------------------------------------------
 Center     Atomic      Atomic             Coordinates (Angstroms)
 Number     Number       Type             X           Y           Z
 ---------------------------------------------------------------------
      1          8           0       -0.020019    1.434563    0.000000
      2          1           0       -0.015428    0.451972    0.000000
      3          1           0        0.907976    1.757568    0.000000
      4          8           0       -0.020019   -1.267534    0.000000
      5          1           0       -0.993604   -1.400340    0.000000
      6          1           0        0.421352   -2.145428    0.000000
 ---------------------------------------------------------------------

 SCF Done:  E(RHF) =  -152.110480834     A.U. after   10 cycles
 E2 =    -0.5294258336D+00 EUMP2 =    -0.15263990666748D+03
 CCSD(T)
 CCSD(T)= -0.15266665869D+03

 The electronic state is 1-A'.
 Alpha  occ. eigenvalues --  -20.59107 -20.51225  -1.36866  -1.29063  -0.74434
 Alpha  occ. eigenvalues --   -0.68120  -0.59961  -0.53803  -0.51846  -0.46155
 Alpha virt. eigenvalues --    0.11852   0.18329   0.18938   0.32866   0.48395
 Alpha virt. eigenvalues --    0.54336   0.56778   0.64923   0.68246   0.72368
 Alpha virt. eigenvalues --    0.73758   0.76769   0.80973   0.83161   0.84174

 Mulliken charges:
               1
     1  O   -0.583935
     2  H    0.295770
     3  H    0.246515
     4  O   -0.460414
     5  H    0.261172
     6  H    0.240892
 Sum of Mulliken charges =  -0.00000

 Dipole moment (field-independent basis, Debye):
    X=              0.6673    Y=             -3.6529    Z=              0.0000  Tot=              3.7133
 Quadrupole moment (field-independent basis, Debye-Ang):
   XX=             -9.4273   YY=             -8.9792   ZZ=            -14.7074
   XY=              3.6514   XZ=              0.0000   YZ=              0.0000

 Normal termination of Gaussian 16 at Fri Aug 26 20:52:40 2022.
