 Gaussian 16, Revision A.03,
 Gaussian 16:  ES64L-G16RevA.03 25-Dec-2016

 ------------------
 #p CCSD(T)/cc-pVTZ
 ------------------

 ------------
 H2O_H2O_2350
 ------------
 Symbolic Z-matrix:
 Charge =  0 Multiplicity = 1

                         Standard orientation:
 ---------------------------------------------------------------------
 Center     Atomic      Atomic             Coordinates (Angstroms)
 Number     Number       Type             X           Y           Z
 ---------------------------------------------------------------------
      1          8           0        0.092949   -2.024233    0.000000
      2          1           0        0.092949   -1.041632    0.000000
      3          1           0       -0.836544   -2.342900    0.000000
      4          8           0        0.092949    1.891446    0.000000
      5          1           0        0.092950    2.874048    0.000000
      6          1           0       -0.836544    1.572780    0.000000
 ---------------------------------------------------------------------

 SCF Done:  E(RHF) =  -152.108524685     A.U. after   10 cycles
 E2 =    -0.5264116805D+00 EUMP2 =    -0.15263493636511D+03
 CCSD(T)
 CCSD(T)= -0.15266209186D+03

 The electronic state is 1-A'.
 Alpha  occ. eigenvalues --  -20.57023 -20.54994  -1.34315  -1.32296  -0.71798
 Alpha  occ. eigenvalues --   -0.69641  -0.57793  -0.55734  -0.51416  -0.49408
 Alpha virt. eigenvalues --    0.11418   0.15911   0.19962   0.24510   0.53211
 Alpha virt. eigenvalues --    0.55842   0.56562   0.57612   0.68213   0.71839
 Alpha virt. eigenvalues --    0.77047   0.79347   0.79588   0.79756   0.83309

 Mulliken charges:
               1
     1  O   -0.512735
     2  H    0.263210
     3  H    0.246501
     4  O   -0.502733
     5  H    0.259160
     6  H    0.246597
 Sum of Mulliken charges =  -0.00000

 Dipole moment (field-independent basis, Debye):
    X=             -3.1463    Y=              2.4342    Z=              0.0000  Tot=              3.9780
 Quadrupole moment (field-independent basis, Debye-Ang):
   XX=            -10.8722   YY=             -9.1738   ZZ=            -14.7133
   XY=              2.1420   XZ=              0.0000   YZ=              0.0000

 Normal termination of Gaussian 16 at Sun Aug 28 06:32:26 2022.
