 Gaussian 16, Revision A.03,
 Gaussian 16:  ES64L-G16RevA.03 25-Dec-2016

 ------------------
 #p CCSD(T)/cc-pVTZ
 ------------------

 ------------
 H2O_H2O_2609
 ------------
 Symbolic Z-matrix:
 Charge =  0 Multiplicity = 1

                         Standard orientation:
 ---------------------------------------------------------------------
 Center     Atomic      Atomic             Coordinates (Angstroms)
 Number     Number       Type             X           Y           Z
 ---------------------------------------------------------------------
      1          8           0        0.066769    2.145847   -0.000000
      2          1           0        0.065689    1.163246   -0.000000
      3          1           0       -0.862373    2.465534   -0.000000
      4          8           0        0.066769   -1.972756    0.000000
      5          1           0        0.611776   -2.790359    0.000000
      6          1           0       -0.883394   -2.223149    0.000000
 ---------------------------------------------------------------------

 SCF Done:  E(RHF) =  -152.110146865     A.U. after   10 cycles
 E2 =    -0.5261029708D+00 EUMP2 =    -0.15263624983572D+03
 CCSD(T)
 CCSD(T)= -0.15266337406D+03

 The electronic state is 1-A'.
 Alpha  occ. eigenvalues --  -20.56875 -20.54348  -1.34145  -1.31671  -0.71553
 Alpha  occ. eigenvalues --   -0.69055  -0.57700  -0.55147  -0.51273  -0.48805
 Alpha virt. eigenvalues --    0.12197   0.16193   0.19404   0.23663   0.53178
 Alpha virt. eigenvalues --    0.55622   0.56112   0.58804   0.68908   0.70096
 Alpha virt. eigenvalues --    0.77509   0.78988   0.80044   0.80464   0.83340

 Mulliken charges:
               1
     1  O   -0.519431
     2  H    0.265508
     3  H    0.249058
     4  O   -0.510100
     5  H    0.260025
     6  H    0.254940
 Sum of Mulliken charges =  -0.00000

 Dipole moment (field-independent basis, Debye):
    X=             -2.2696    Y=             -3.1572    Z=              0.0000  Tot=              3.8883
 Quadrupole moment (field-independent basis, Debye-Ang):
   XX=             -9.5686   YY=             -7.6660   ZZ=            -14.7203
   XY=             -3.7449   XZ=              0.0000   YZ=             -0.0000

 Normal termination of Gaussian 16 at Fri Aug 26 15:58:56 2022.
