 Gaussian 16, Revision A.03,
 Gaussian 16:  ES64L-G16RevA.03 25-Dec-2016

 ------------------
 #p CCSD(T)/cc-pVTZ
 ------------------

 ------------
 H2O_H2O_4439
 ------------
 Symbolic Z-matrix:
 Charge =  0 Multiplicity = 1

                         Standard orientation:
 ---------------------------------------------------------------------
 Center     Atomic      Atomic             Coordinates (Angstroms)
 Number     Number       Type             X           Y           Z
 ---------------------------------------------------------------------
      1          8           0        0.048554    2.877779    0.000000
      2          1           0        0.047203    1.895178    0.000000
      3          1           0       -0.880500    3.197723    0.000000
      4          8           0        0.048554   -2.697359    0.000000
      5          1           0        0.827282   -3.296600    0.000000
      6          1           0       -0.770847   -3.239657    0.000000
 ---------------------------------------------------------------------

 SCF Done:  E(RHF) =  -152.108450125     A.U. after   10 cycles
 E2 =    -0.5258096636D+00 EUMP2 =    -0.15263425978896D+03
 CCSD(T)
 CCSD(T)= -0.15266145575D+03

 The electronic state is 1-A'.
 Alpha  occ. eigenvalues --  -20.56197 -20.54927  -1.33498  -1.32235  -0.70902
 Alpha  occ. eigenvalues --   -0.69636  -0.56992  -0.55707  -0.50617  -0.49359
 Alpha virt. eigenvalues --    0.13335   0.14963   0.19695   0.21069   0.53649
 Alpha virt. eigenvalues --    0.54855   0.56654   0.57802   0.66803   0.68804
 Alpha virt. eigenvalues --    0.78270   0.79496   0.79672   0.80039   0.82720

 Mulliken charges:
               1
     1  O   -0.513992
     2  H    0.260625
     3  H    0.253212
     4  O   -0.514734
     5  H    0.258398
     6  H    0.256491
 Sum of Mulliken charges =  -0.00000

 Dipole moment (field-independent basis, Debye):
    X=             -1.6649    Y=             -3.1690    Z=             -0.0000  Tot=              3.5797
 Quadrupole moment (field-independent basis, Debye-Ang):
   XX=             -9.1821   YY=             -6.2566   ZZ=            -14.7149
   XY=             -5.5303   XZ=             -0.0000   YZ=             -0.0000

 Normal termination of Gaussian 16 at Sun Aug 28 02:51:13 2022.
