 Gaussian 16, Revision A.03,
 Gaussian 16:  ES64L-G16RevA.03 25-Dec-2016

 ------------------
 #p CCSD(T)/cc-pVTZ
 ------------------

 ------------
 H2O_H2O_3220
 ------------
 Symbolic Z-matrix:
 Charge =  0 Multiplicity = 1

                         Standard orientation:
 ---------------------------------------------------------------------
 Center     Atomic      Atomic             Coordinates (Angstroms)
 Number     Number       Type             X           Y           Z
 ---------------------------------------------------------------------
      1          8           0        0.026653    2.385253   -0.000000
      2          1           0        0.024206    1.402654   -0.000000
      3          1           0       -0.902043    2.706233   -0.000000
      4          8           0        0.026653   -2.212025    0.000000
      5          1           0        0.975137   -2.468704    0.000000
      6          1           0       -0.523754   -3.026001    0.000000
 ---------------------------------------------------------------------

 SCF Done:  E(RHF) =  -152.109610206     A.U. after   10 cycles
 E2 =    -0.5258813848D+00 EUMP2 =    -0.15263549159100D+03
 CCSD(T)
 CCSD(T)= -0.15266264534D+03

 The electronic state is 1-A'.
 Alpha  occ. eigenvalues --  -20.56539 -20.54602  -1.33825  -1.31920  -0.71228
 Alpha  occ. eigenvalues --   -0.69322  -0.57360  -0.55409  -0.50953  -0.49055
 Alpha virt. eigenvalues --    0.12533   0.15760   0.19400   0.22409   0.53387
 Alpha virt. eigenvalues --    0.55406   0.56477   0.58196   0.67573   0.69348
 Alpha virt. eigenvalues --    0.77949   0.78799   0.79778   0.80030   0.83108

 Mulliken charges:
               1
     1  O   -0.518807
     2  H    0.263092
     3  H    0.253708
     4  O   -0.515665
     5  H    0.259205
     6  H    0.258468
 Sum of Mulliken charges =  -0.00000

 Dipole moment (field-independent basis, Debye):
    X=             -0.9114    Y=             -3.1004    Z=              0.0000  Tot=              3.2316
 Quadrupole moment (field-independent basis, Debye-Ang):
   XX=             -9.2883   YY=             -7.3199   ZZ=            -14.7190
   XY=             -5.7264   XZ=              0.0000   YZ=              0.0000

 Normal termination of Gaussian 16 at Fri Aug 26 20:28:17 2022.
