 Gaussian 16, Revision A.03,
 Gaussian 16:  ES64L-G16RevA.03 25-Dec-2016

 ------------------
 #p CCSD(T)/cc-pVTZ
 ------------------

 ------------
 H2O_H2O_3742
 ------------
 Symbolic Z-matrix:
 Charge =  0 Multiplicity = 1

                         Standard orientation:
 ---------------------------------------------------------------------
 Center     Atomic      Atomic             Coordinates (Angstroms)
 Number     Number       Type             X           Y           Z
 ---------------------------------------------------------------------
      1          8           0        0.037428    2.597785   -0.000000
      2          1           0        0.035549    1.615185   -0.000000
      3          1           0       -0.891454    2.918227    0.000000
      4          8           0        0.037428   -2.418805   -0.000000
      5          1           0        0.917864   -2.855083   -0.000000
      6          1           0       -0.660803   -3.110166    0.000000
 ---------------------------------------------------------------------

 SCF Done:  E(RHF) =  -152.109015971     A.U. after   10 cycles
 E2 =    -0.5258288885D+00 EUMP2 =    -0.15263484485926D+03
 CCSD(T)
 CCSD(T)= -0.15266202079D+03

 The electronic state is 1-A'.
 Alpha  occ. eigenvalues --  -20.56360 -20.54741  -1.33654  -1.32054  -0.71057
 Alpha  occ. eigenvalues --   -0.69454  -0.57169  -0.55535  -0.50778  -0.49183
 Alpha virt. eigenvalues --    0.12914   0.15373   0.19577   0.21572   0.53455
 Alpha virt. eigenvalues --    0.55030   0.56553   0.57895   0.66769   0.69236
 Alpha virt. eigenvalues --    0.78121   0.79113   0.79660   0.79752   0.82964

 Mulliken charges:
               1
     1  O   -0.516302
     2  H    0.262191
     3  H    0.253300
     4  O   -0.516018
     5  H    0.259093
     6  H    0.257736
 Sum of Mulliken charges =  -0.00000

 Dipole moment (field-independent basis, Debye):
    X=             -1.2809    Y=             -3.1713    Z=              0.0000  Tot=              3.4202
 Quadrupole moment (field-independent basis, Debye-Ang):
   XX=             -9.1591   YY=             -6.7703   ZZ=            -14.7170
   XY=             -5.6468   XZ=             -0.0000   YZ=              0.0000

 Normal termination of Gaussian 16 at Fri Aug 26 23:25:20 2022.
