 Gaussian 16, Revision A.03,
 Gaussian 16:  ES64L-G16RevA.03 25-Dec-2016

 ------------------
 #p CCSD(T)/cc-pVTZ
 ------------------

 ------------
 H2O_H2O_1446
 ------------
 Symbolic Z-matrix:
 Charge =  0 Multiplicity = 1

                         Standard orientation:
 ---------------------------------------------------------------------
 Center     Atomic      Atomic             Coordinates (Angstroms)
 Number     Number       Type             X           Y           Z
 ---------------------------------------------------------------------
      1          8           0       -0.023305    1.675680    0.000000
      2          1           0       -0.019584    0.693086    0.000000
      3          1           0        0.904974    1.997864    0.000000
      4          8           0       -0.023305   -1.505346    0.000000
      5          1           0       -0.986294   -1.700691    0.000000
      6          1           0        0.473786   -2.352935    0.000000
 ---------------------------------------------------------------------

 SCF Done:  E(RHF) =  -152.113691671     A.U. after   10 cycles
 E2 =    -0.5272007198D+00 EUMP2 =    -0.15264089239082D+03
 CCSD(T)
 CCSD(T)= -0.15266788567D+03

 The electronic state is 1-A'.
 Alpha  occ. eigenvalues --  -20.57980 -20.53008  -1.35301  -1.30464  -0.72717
 Alpha  occ. eigenvalues --   -0.68100  -0.59131  -0.53782  -0.52418  -0.47618
 Alpha virt. eigenvalues --    0.12136   0.17718   0.18985   0.29299   0.50436
 Alpha virt. eigenvalues --    0.54339   0.55848   0.60696   0.68836   0.73347
 Alpha virt. eigenvalues --    0.74027   0.77106   0.81515   0.82840   0.84439

 Mulliken charges:
               1
     1  O   -0.546482
     2  H    0.277414
     3  H    0.250932
     4  O   -0.501206
     5  H    0.264244
     6  H    0.255097
 Sum of Mulliken charges =  -0.00000

 Dipole moment (field-independent basis, Debye):
    X=              0.7872    Y=             -3.3619    Z=              0.0000  Tot=              3.4528
 Quadrupole moment (field-independent basis, Debye-Ang):
   XX=             -9.3606   YY=             -8.4337   ZZ=            -14.7325
   XY=              4.1799   XZ=              0.0000   YZ=              0.0000

 CCSD(T)=-152.6678857\RMSD=6.331e-09\PG=CS [SG(H4O2)]\\@
 Normal termination of Gaussian 16 at Sat Aug 27 00:38:06 2022.
