 Gaussian 16, Revision A.03,
 Gaussian 16:  ES64L-G16RevA.03 25-Dec-2016

 ------------------
 #p CCSD(T)/cc-pVTZ
 ------------------

 ------------
 H2O_H2O_1244
 ------------
 Symbolic Z-matrix:
 Charge =  0 Multiplicity = 1

                         Standard orientation:
 ---------------------------------------------------------------------
 Center     Atomic      Atomic             Coordinates (Angstroms)
 Number     Number       Type             X           Y           Z
 ---------------------------------------------------------------------
      1          8           0        0.030293    1.598729    0.000000
      2          1           0        0.026768    0.616134    0.000000
      3          1           0       -0.898050    1.920728   -0.000000
      4          8           0        0.030293   -1.423194    0.000000
      5          1           0        0.959610   -1.742377    0.000000
      6          1           0       -0.573023   -2.198767   -0.000000
 ---------------------------------------------------------------------

 SCF Done:  E(RHF) =  -152.114104062     A.U. after   10 cycles
 E2 =    -0.5277280837D+00 EUMP2 =    -0.15264183214549D+03
 CCSD(T)
 CCSD(T)= -0.15266876952D+03

 The electronic state is 1-A'.
 Alpha  occ. eigenvalues --  -20.58332 -20.52397  -1.35705  -1.29940  -0.73053
 Alpha  occ. eigenvalues --   -0.67912  -0.59504  -0.53143  -0.52807  -0.47083
 Alpha virt. eigenvalues --    0.12041   0.18102   0.18774   0.30600   0.49515
 Alpha virt. eigenvalues --    0.54546   0.55856   0.61323   0.68583   0.72562
 Alpha virt. eigenvalues --    0.73335   0.77113   0.82025   0.82646   0.84677

 Mulliken charges:
               1
     1  O   -0.555938
     2  H    0.285368
     3  H    0.247603
     4  O   -0.498006
     5  H    0.265495
     6  H    0.255478
 Sum of Mulliken charges =  -0.00000

 Dipole moment (field-independent basis, Debye):
    X=             -1.0129    Y=             -3.5577    Z=             -0.0000  Tot=              3.6991
 Quadrupole moment (field-independent basis, Debye-Ang):
   XX=             -9.2263   YY=             -8.5446   ZZ=            -14.7323
   XY=             -3.8357   XZ=              0.0000   YZ=             -0.0000

 Normal termination of Gaussian 16 at Fri Aug 26 23:21:04 2022.
