 Gaussian 16, Revision A.03,
 Gaussian 16:  ES64L-G16RevA.03 25-Dec-2016

 ------------------
 #p CCSD(T)/cc-pVTZ
 ------------------

 -----------
 H2O_H2O_991
 -----------
 Symbolic Z-matrix:
 Charge =  0 Multiplicity = 1

                         Standard orientation:
 ---------------------------------------------------------------------
 Center     Atomic      Atomic             Coordinates (Angstroms)
 Number     Number       Type             X           Y           Z
 ---------------------------------------------------------------------
      1          8           0        0.041248    1.501340   -0.000000
      2          1           0        0.038132    0.518743   -0.000000
      3          1           0       -0.887230    1.822952   -0.000000
      4          8           0        0.041248   -1.321514    0.000000
      5          1           0        0.890644   -1.815510    0.000000
      6          1           0       -0.701515   -1.964793    0.000000
 ---------------------------------------------------------------------

 SCF Done:  E(RHF) =  -152.113350492     A.U. after   10 cycles
 E2 =    -0.5286662367D+00 EUMP2 =    -0.15264201672909D+03
 CCSD(T)
 CCSD(T)= -0.15266884615D+03

 The electronic state is 1-A'.
 Alpha  occ. eigenvalues --  -20.58864 -20.51465  -1.36382  -1.29184  -0.73571
 Alpha  occ. eigenvalues --   -0.68134  -0.59749  -0.53432  -0.52163  -0.46294
 Alpha virt. eigenvalues --    0.11836   0.18216   0.18849   0.32078   0.48464
 Alpha virt. eigenvalues --    0.54654   0.56734   0.61663   0.68882   0.71749
 Alpha virt. eigenvalues --    0.72724   0.77540   0.82306   0.82717   0.84784

 Mulliken charges:
               1
     1  O   -0.571041
     2  H    0.298466
     3  H    0.241236
     4  O   -0.491737
     5  H    0.266139
     6  H    0.256936
 Sum of Mulliken charges =  -0.00000

 Dipole moment (field-independent basis, Debye):
    X=             -1.3613    Y=             -3.8013    Z=              0.0000  Tot=              4.0377
 Quadrupole moment (field-independent basis, Debye-Ang):
   XX=             -9.1434   YY=             -8.7819   ZZ=            -14.7255
   XY=             -3.4659   XZ=              0.0000   YZ=             -0.0000

 Normal termination of Gaussian 16 at Fri Aug 26 21:46:40 2022.
