 Gaussian 16, Revision A.03,
 Gaussian 16:  ES64L-G16RevA.03 25-Dec-2016

 ------------------
 #p CCSD(T)/cc-pVTZ
 ------------------

 ------------
 H2O_H2O_3718
 ------------
 Symbolic Z-matrix:
 Charge =  0 Multiplicity = 1

                         Standard orientation:
 ---------------------------------------------------------------------
 Center     Atomic      Atomic             Coordinates (Angstroms)
 Number     Number       Type             X           Y           Z
 ---------------------------------------------------------------------
      1          8           0        0.033772    2.587030    0.000000
      2          1           0        0.031762    1.604431    0.000000
      3          1           0       -0.895068    2.907597    0.000000
      4          8           0        0.033772   -2.409493   -0.000000
      5          1           0        0.940806   -2.787374   -0.000000
      6          1           0       -0.617846   -3.144952   -0.000000
 ---------------------------------------------------------------------

 SCF Done:  E(RHF) =  -152.109045839     A.U. after   10 cycles
 E2 =    -0.5258286098D+00 EUMP2 =    -0.15263487444907D+03
 CCSD(T)
 CCSD(T)= -0.15266204952D+03

 The electronic state is 1-A'.
 Alpha  occ. eigenvalues --  -20.56365 -20.54745  -1.33660  -1.32058  -0.71062
 Alpha  occ. eigenvalues --   -0.69459  -0.57176  -0.55540  -0.50784  -0.49187
 Alpha virt. eigenvalues --    0.12881   0.15389   0.19549   0.21624   0.53421
 Alpha virt. eigenvalues --    0.55070   0.56555   0.57903   0.66785   0.69239
 Alpha virt. eigenvalues --    0.78115   0.79022   0.79655   0.79876   0.82961

 Mulliken charges:
               1
     1  O   -0.516489
     2  H    0.262129
     3  H    0.253519
     4  O   -0.516103
     5  H    0.258974
     6  H    0.257969
 Sum of Mulliken charges =  -0.00000

 Dipole moment (field-independent basis, Debye):
    X=             -1.1559    Y=             -3.1467    Z=             -0.0000  Tot=              3.3523
 Quadrupole moment (field-independent basis, Debye-Ang):
   XX=             -9.1862   YY=             -6.8507   ZZ=            -14.7171
   XY=             -5.8102   XZ=             -0.0000   YZ=              0.0000

 Normal termination of Gaussian 16 at Fri Aug 26 23:17:14 2022.
