 Gaussian 16, Revision A.03,
 Gaussian 16:  ES64L-G16RevA.03 25-Dec-2016

 ------------------
 #p CCSD(T)/cc-pVTZ
 ------------------

 ------------
 H2O_H2O_2271
 ------------
 Symbolic Z-matrix:
 Charge =  0 Multiplicity = 1

                         Standard orientation:
 ---------------------------------------------------------------------
 Center     Atomic      Atomic             Coordinates (Angstroms)
 Number     Number       Type             X           Y           Z
 ---------------------------------------------------------------------
      1          8           0       -0.023250    2.004767    0.000000
      2          1           0       -0.020167    1.022171    0.000000
      3          1           0        0.905239    2.326349    0.000000
      4          8           0       -0.023250   -1.834403    0.000000
      5          1           0       -0.986366   -2.029122    0.000000
      6          1           0        0.473292   -2.682313    0.000000
 ---------------------------------------------------------------------

 SCF Done:  E(RHF) =  -152.111468944     A.U. after   10 cycles
 E2 =    -0.5261918480D+00 EUMP2 =    -0.15263766079239D+03
 CCSD(T)
 CCSD(T)= -0.15266475194D+03

 The electronic state is 1-A'.
 Alpha  occ. eigenvalues --  -20.57086 -20.54080  -1.34352  -1.31421  -0.71756
 Alpha  occ. eigenvalues --   -0.68836  -0.57982  -0.54903  -0.51488  -0.48572
 Alpha virt. eigenvalues --    0.12257   0.16672   0.19235   0.25125   0.53113
 Alpha virt. eigenvalues --    0.55171   0.56264   0.58675   0.68896   0.71785
 Alpha virt. eigenvalues --    0.76947   0.78761   0.80320   0.82658   0.83606

 Mulliken charges:
               1
     1  O   -0.527244
     2  H    0.266583
     3  H    0.253051
     4  O   -0.510918
     5  H    0.260562
     6  H    0.257964
 Sum of Mulliken charges =  -0.00000

 Dipole moment (field-independent basis, Debye):
    X=              0.7925    Y=             -3.1535    Z=              0.0000  Tot=              3.2516
 Quadrupole moment (field-independent basis, Debye-Ang):
   XX=             -9.3620   YY=             -7.9258   ZZ=            -14.7251
   XY=              4.9813   XZ=              0.0000   YZ=              0.0000

 Normal termination of Gaussian 16 at Sun Aug 28 05:54:26 2022.
