 Gaussian 16, Revision A.03,
 Gaussian 16:  ES64L-G16RevA.03 25-Dec-2016

 ------------------
 #p CCSD(T)/cc-pVTZ
 ------------------

 ------------
 H2O_H2O_3707
 ------------
 Symbolic Z-matrix:
 Charge =  0 Multiplicity = 1

                         Standard orientation:
 ---------------------------------------------------------------------
 Center     Atomic      Atomic             Coordinates (Angstroms)
 Number     Number       Type             X           Y           Z
 ---------------------------------------------------------------------
      1          8           0        0.073530    2.581275    0.000000
      2          1           0        0.072870    1.598674    0.000000
      3          1           0       -0.855749    2.900566   -0.000000
      4          8           0        0.073530   -2.414324    0.000000
      5          1           0        0.507532   -3.295884    0.000000
      6          1           0       -0.901133   -2.538970   -0.000000
 ---------------------------------------------------------------------

 SCF Done:  E(RHF) =  -152.108533403     A.U. after   10 cycles
 E2 =    -0.5258781723D+00 EUMP2 =    -0.15263441157522D+03
 CCSD(T)
 CCSD(T)= -0.15266159694D+03

 The electronic state is 1-A'.
 Alpha  occ. eigenvalues --  -20.56382 -20.54887  -1.33678  -1.32195  -0.71089
 Alpha  occ. eigenvalues --   -0.69588  -0.57171  -0.55663  -0.50796  -0.49317
 Alpha virt. eigenvalues --    0.12640   0.15290   0.19414   0.21671   0.53309
 Alpha virt. eigenvalues --    0.55049   0.56478   0.57970   0.66783   0.69152
 Alpha virt. eigenvalues --    0.78105   0.78814   0.79535   0.80432   0.82801

 Mulliken charges:
               1
     1  O   -0.513320
     2  H    0.261143
     3  H    0.251439
     4  O   -0.513609
     5  H    0.259684
     6  H    0.254662
 Sum of Mulliken charges =  -0.00000

 Dipole moment (field-independent basis, Debye):
    X=             -2.5147    Y=             -2.9588    Z=             -0.0000  Tot=              3.8830
 Quadrupole moment (field-independent basis, Debye-Ang):
   XX=             -9.8118   YY=             -7.3744   ZZ=            -14.7152
   XY=             -3.7382   XZ=              0.0000   YZ=             -0.0000

 Normal termination of Gaussian 16 at Fri Aug 26 23:13:37 2022.
