 Gaussian 16, Revision A.03,
 Gaussian 16:  ES64L-G16RevA.03 25-Dec-2016

 ------------------
 #p CCSD(T)/cc-pVTZ
 ------------------

 ------------
 H2O_H2O_2313
 ------------
 Symbolic Z-matrix:
 Charge =  0 Multiplicity = 1

                         Standard orientation:
 ---------------------------------------------------------------------
 Center     Atomic      Atomic             Coordinates (Angstroms)
 Number     Number       Type             X           Y           Z
 ---------------------------------------------------------------------
      1          8           0        0.052322    2.029866   -0.000000
      2          1           0        0.050543    1.047266   -0.000000
      3          1           0       -0.876593    2.350214   -0.000000
      4          8           0        0.052322   -1.850002    0.000000
      5          1           0        0.789907   -2.499211    0.000000
      6          1           0       -0.801006   -2.337176    0.000000
 ---------------------------------------------------------------------

 SCF Done:  E(RHF) =  -152.111309317     A.U. after   10 cycles
 E2 =    -0.5262027201D+00 EUMP2 =    -0.15263751203747D+03
 CCSD(T)
 CCSD(T)= -0.15266460526D+03

 The electronic state is 1-A'.
 Alpha  occ. eigenvalues --  -20.57088 -20.53990  -1.34344  -1.31329  -0.71737
 Alpha  occ. eigenvalues --   -0.68728  -0.57965  -0.54807  -0.51481  -0.48474
 Alpha virt. eigenvalues --    0.12268   0.16615   0.19283   0.24823   0.52310
 Alpha virt. eigenvalues --    0.55497   0.56281   0.59004   0.69001   0.71504
 Alpha virt. eigenvalues --    0.77051   0.78311   0.80390   0.82267   0.83601

 Mulliken charges:
               1
     1  O   -0.524620
     2  H    0.267518
     3  H    0.249321
     4  O   -0.509403
     5  H    0.260836
     6  H    0.256347
 Sum of Mulliken charges =   0.00000

 Dipole moment (field-independent basis, Debye):
    X=             -1.7746    Y=             -3.3265    Z=              0.0000  Tot=              3.7703
 Quadrupole moment (field-independent basis, Debye-Ang):
   XX=             -9.2293   YY=             -7.6556   ZZ=            -14.7246
   XY=             -4.1154   XZ=              0.0000   YZ=              0.0000

 15\MP4DQ=-152.6464647\MP4SDQ=-152.6495344\CCSD=-152.6489323\CCSD(T)=-1
 Normal termination of Gaussian 16 at Sun Aug 28 06:14:59 2022.
