 Gaussian 16, Revision A.03,
 Gaussian 16:  ES64L-G16RevA.03 25-Dec-2016

 ------------------
 #p CCSD(T)/cc-pVTZ
 ------------------

 ----------
 H2O_H2O_62
 ----------
 Symbolic Z-matrix:
 Charge =  0 Multiplicity = 1

                         Standard orientation:
 ---------------------------------------------------------------------
 Center     Atomic      Atomic             Coordinates (Angstroms)
 Number     Number       Type             X           Y           Z
 ---------------------------------------------------------------------
      1          8           0        0.056138    1.131780   -0.000000
      2          1           0        0.053128    0.149183   -0.000000
      3          1           0       -0.872375    1.453292    0.000000
      4          8           0        0.056138   -0.953057   -0.000000
      5          1           0        0.748810   -1.649986   -0.000000
      6          1           0       -0.827764   -1.382272    0.000000
 ---------------------------------------------------------------------

 SCF Done:  E(RHF) =  -152.040606584     A.U. after   11 cycles
 E2 =    -0.5360282389D+00 EUMP2 =    -0.15257663482333D+03
 CCSD(T)
 CCSD(T)= -0.15260218057D+03

 The electronic state is 1-A'.
 Alpha  occ. eigenvalues --  -20.62095 -20.44173  -1.43852  -1.24491  -0.79873
 Alpha  occ. eigenvalues --   -0.77369  -0.58676  -0.54502  -0.44404  -0.40960
 Alpha virt. eigenvalues --    0.10303   0.16228   0.21311   0.32635   0.47566
 Alpha virt. eigenvalues --    0.51840   0.62779   0.63784   0.70587   0.71092
 Alpha virt. eigenvalues --    0.79116   0.79287   0.81608   0.82669   0.88554

 Mulliken charges:
               1
     1  O   -0.668013
     2  H    0.286020
     3  H    0.197983
     4  O   -0.304609
     5  H    0.245016
     6  H    0.243603
 Sum of Mulliken charges =  -0.00000

 Dipole moment (field-independent basis, Debye):
    X=             -1.6926    Y=             -5.0538    Z=              0.0000  Tot=              5.3297
 Quadrupole moment (field-independent basis, Debye-Ang):
   XX=             -9.2408   YY=            -10.2266   ZZ=            -14.5525
   XY=             -2.6559   XZ=             -0.0000   YZ=              0.0000

 Normal termination of Gaussian 16 at Fri Aug 26 15:36:25 2022.
