 Gaussian 16, Revision A.03,
 Gaussian 16:  ES64L-G16RevA.03 25-Dec-2016

 ------------------
 #p CCSD(T)/cc-pVTZ
 ------------------

 ------------
 H2O_H2O_1800
 ------------
 Symbolic Z-matrix:
 Charge =  0 Multiplicity = 1

                         Standard orientation:
 ---------------------------------------------------------------------
 Center     Atomic      Atomic             Coordinates (Angstroms)
 Number     Number       Type             X           Y           Z
 ---------------------------------------------------------------------
      1          8           0        0.092949   -1.804851    0.000000
      2          1           0        0.092949   -0.822249    0.000000
      3          1           0       -0.836544   -2.123517    0.000000
      4          8           0        0.092949    1.672064    0.000000
      5          1           0        0.092949    2.654665    0.000000
      6          1           0       -0.836544    1.353397    0.000000
 ---------------------------------------------------------------------

 SCF Done:  E(RHF) =  -152.108918978     A.U. after   10 cycles
 E2 =    -0.5270422702D+00 EUMP2 =    -0.15263596124814D+03
 CCSD(T)
 CCSD(T)= -0.15266308555D+03

 The electronic state is 1-A'.
 Alpha  occ. eigenvalues --  -20.57500 -20.54732  -1.34816  -1.32051  -0.72432
 Alpha  occ. eigenvalues --   -0.69317  -0.58307  -0.55457  -0.51895  -0.49156
 Alpha virt. eigenvalues --    0.11449   0.16173   0.20364   0.26338   0.51202
 Alpha virt. eigenvalues --    0.54971   0.57335   0.57528   0.67850   0.74088
 Alpha virt. eigenvalues --    0.75178   0.78180   0.80083   0.82427   0.83292

 Mulliken charges:
               1
     1  O   -0.516389
     2  H    0.267792
     3  H    0.242688
     4  O   -0.493421
     5  H    0.256100
     6  H    0.243230
 Sum of Mulliken charges =  -0.00000

 Dipole moment (field-independent basis, Debye):
    X=             -3.1223    Y=              2.5145    Z=              0.0000  Tot=              4.0090
 Quadrupole moment (field-independent basis, Debye-Ang):
   XX=            -10.8882   YY=             -9.1453   ZZ=            -14.7128
   XY=              2.1290   XZ=              0.0000   YZ=              0.0000

 Normal termination of Gaussian 16 at Sun Aug 28 01:45:57 2022.
