 Gaussian 16, Revision A.03,
 Gaussian 16:  ES64L-G16RevA.03 25-Dec-2016

 ------------------
 #p CCSD(T)/cc-pVTZ
 ------------------

 ------------
 H2O_H2O_1626
 ------------
 Symbolic Z-matrix:
 Charge =  0 Multiplicity = 1

                         Standard orientation:
 ---------------------------------------------------------------------
 Center     Atomic      Atomic             Coordinates (Angstroms)
 Number     Number       Type             X           Y           Z
 ---------------------------------------------------------------------
      1          8           0        0.090687   -1.738261    0.000000
      2          1           0        0.090572   -0.755659    0.000000
      3          1           0       -0.838769   -2.057036    0.000000
      4          8           0        0.090687    1.599558    0.000000
      5          1           0        0.154837    2.580064    0.000000
      6          1           0       -0.857628    1.342254    0.000000
 ---------------------------------------------------------------------

 SCF Done:  E(RHF) =  -152.109457549     A.U. after   10 cycles
 E2 =    -0.5273123167D+00 EUMP2 =    -0.15263676986601D+03
 CCSD(T)
 CCSD(T)= -0.15266386717D+03

 The electronic state is 1-A'.
 Alpha  occ. eigenvalues --  -20.57705 -20.54424  -1.35038  -1.31767  -0.72687
 Alpha  occ. eigenvalues --   -0.69038  -0.58556  -0.55151  -0.52110  -0.48873
 Alpha virt. eigenvalues --    0.11522   0.16315   0.20293   0.27204   0.50421
 Alpha virt. eigenvalues --    0.54799   0.57556   0.57776   0.68061   0.74453
 Alpha virt. eigenvalues --    0.74474   0.77868   0.80424   0.82249   0.83407

 Mulliken charges:
               1
     1  O   -0.520354
     2  H    0.270792
     3  H    0.241091
     4  O   -0.488733
     5  H    0.253150
     6  H    0.244054
 Sum of Mulliken charges =  -0.00000

 Dipole moment (field-independent basis, Debye):
    X=             -3.0374    Y=              2.6691    Z=              0.0000  Tot=              4.0435
 Quadrupole moment (field-independent basis, Debye-Ang):
   XX=            -10.7473   YY=             -8.9820   ZZ=            -14.7140
   XY=              2.2981   XZ=              0.0000   YZ=              0.0000

 Normal termination of Gaussian 16 at Sun Aug 28 00:00:56 2022.
