 Gaussian 16, Revision A.03,
 Gaussian 16:  ES64L-G16RevA.03 25-Dec-2016

 ------------------
 #p CCSD(T)/cc-pVTZ
 ------------------

 ------------
 H2O_H2O_3173
 ------------
 Symbolic Z-matrix:
 Charge =  0 Multiplicity = 1

                         Standard orientation:
 ---------------------------------------------------------------------
 Center     Atomic      Atomic             Coordinates (Angstroms)
 Number     Number       Type             X           Y           Z
 ---------------------------------------------------------------------
      1          8           0       -0.016625    2.359968    0.000000
      2          1           0       -0.013782    1.377370    0.000000
      3          1           0        0.911942    2.681322    0.000000
      4          8           0       -0.016625   -2.196577    0.000000
      5          1           0       -0.996933   -2.263679    0.000000
      6          1           0        0.364772   -3.102139    0.000000
 ---------------------------------------------------------------------

 SCF Done:  E(RHF) =  -152.109545379     A.U. after   10 cycles
 E2 =    -0.5258888358D+00 EUMP2 =    -0.15263543421484D+03
 CCSD(T)
 CCSD(T)= -0.15266258992D+03

 The electronic state is 1-A'.
 Alpha  occ. eigenvalues --  -20.56548 -20.54699  -1.33839  -1.32015  -0.71246
 Alpha  occ. eigenvalues --   -0.69422  -0.57369  -0.55504  -0.50964  -0.49150
 Alpha virt. eigenvalues --    0.12358   0.15763   0.19259   0.22741   0.53564
 Alpha virt. eigenvalues --    0.55499   0.56468   0.58143   0.67617   0.69330
 Alpha virt. eigenvalues --    0.77933   0.78694   0.79688   0.80580   0.83057

 Mulliken charges:
               1
     1  O   -0.518909
     2  H    0.262294
     3  H    0.254675
     4  O   -0.515488
     5  H    0.258442
     6  H    0.258986
 Sum of Mulliken charges =  -0.00000

 Dipole moment (field-independent basis, Debye):
    X=              0.5710    Y=             -2.9250    Z=              0.0000  Tot=              2.9802
 Quadrupole moment (field-independent basis, Debye-Ang):
   XX=             -9.5429   YY=             -7.7487   ZZ=            -14.7186
   XY=              6.1935   XZ=              0.0000   YZ=              0.0000

 Normal termination of Gaussian 16 at Fri Aug 26 20:12:46 2022.
