 Gaussian 16, Revision A.03,
 Gaussian 16:  ES64L-G16RevA.03 25-Dec-2016

 ------------------
 #p CCSD(T)/cc-pVTZ
 ------------------

 ------------
 H2O_H2O_2476
 ------------
 Symbolic Z-matrix:
 Charge =  0 Multiplicity = 1

                         Standard orientation:
 ---------------------------------------------------------------------
 Center     Atomic      Atomic             Coordinates (Angstroms)
 Number     Number       Type             X           Y           Z
 ---------------------------------------------------------------------
      1          8           0        0.090685   -2.077308    0.000000
      2          1           0        0.090590   -1.094707    0.000000
      3          1           0       -0.838776   -2.396065    0.000000
      4          8           0        0.090685    1.938602    0.000000
      5          1           0        0.154855    2.919106    0.000000
      6          1           0       -0.857635    1.681317    0.000000
 ---------------------------------------------------------------------

 SCF Done:  E(RHF) =  -152.108701174     A.U. after   10 cycles
 E2 =    -0.5263011432D+00 EUMP2 =    -0.15263500231742D+03
 CCSD(T)
 CCSD(T)= -0.15266215655D+03

 The electronic state is 1-A'.
 Alpha  occ. eigenvalues --  -20.56940 -20.54921  -1.34229  -1.32226  -0.71688
 Alpha  occ. eigenvalues --   -0.69586  -0.57715  -0.55672  -0.51336  -0.49341
 Alpha virt. eigenvalues --    0.11522   0.15896   0.19787   0.24123   0.53552
 Alpha virt. eigenvalues --    0.55642   0.56522   0.57832   0.68422   0.71014
 Alpha virt. eigenvalues --    0.77300   0.79088   0.79602   0.80176   0.83223

 Mulliken charges:
               1
     1  O   -0.513234
     2  H    0.262966
     3  H    0.247182
     4  O   -0.504636
     5  H    0.259265
     6  H    0.248458
 Sum of Mulliken charges =  -0.00000

 Dipole moment (field-independent basis, Debye):
    X=             -3.0744    Y=              2.5315    Z=              0.0000  Tot=              3.9825
 Quadrupole moment (field-independent basis, Debye-Ang):
   XX=            -10.7232   YY=             -8.9401   ZZ=            -14.7144
   XY=              2.3437   XZ=              0.0000   YZ=              0.0000

 Normal termination of Gaussian 16 at Sun Aug 28 07:36:56 2022.
