 Gaussian 16, Revision A.03,
 Gaussian 16:  ES64L-G16RevA.03 25-Dec-2016

 ------------------
 #p CCSD(T)/cc-pVTZ
 ------------------

 ------------
 H2O_H2O_3351
 ------------
 Symbolic Z-matrix:
 Charge =  0 Multiplicity = 1

                         Standard orientation:
 ---------------------------------------------------------------------
 Center     Atomic      Atomic             Coordinates (Angstroms)
 Number     Number       Type             X           Y           Z
 ---------------------------------------------------------------------
      1          8           0        0.090684   -2.426327    0.000000
      2          1           0        0.090603   -1.443725    0.000000
      3          1           0       -0.838782   -2.745071    0.000000
      4          8           0        0.090684    2.287618    0.000000
      5          1           0        0.154868    3.268122    0.000000
      6          1           0       -0.857639    2.030347    0.000000
 ---------------------------------------------------------------------

 SCF Done:  E(RHF) =  -152.108038588     A.U. after   10 cycles
 E2 =    -0.5259829524D+00 EUMP2 =    -0.15263402154076D+03
 CCSD(T)
 CCSD(T)= -0.15266121373D+03

 The electronic state is 1-A'.
 Alpha  occ. eigenvalues --  -20.56508 -20.55142  -1.33805  -1.32445  -0.71230
 Alpha  occ. eigenvalues --   -0.69831  -0.57274  -0.55899  -0.50915  -0.49559
 Alpha virt. eigenvalues --    0.11789   0.15384   0.19157   0.22736   0.53680
 Alpha virt. eigenvalues --    0.54845   0.56452   0.58046   0.67202   0.68935
 Alpha virt. eigenvalues --    0.77991   0.78570   0.79310   0.81244   0.82526

 Mulliken charges:
               1
     1  O   -0.510511
     2  H    0.259404
     3  H    0.250253
     4  O   -0.510018
     5  H    0.259690
     6  H    0.251182
 Sum of Mulliken charges =  -0.00000

 Dipole moment (field-independent basis, Debye):
    X=             -3.0950    Y=              2.4701    Z=              0.0000  Tot=              3.9599
 Quadrupole moment (field-independent basis, Debye-Ang):
   XX=            -10.7082   YY=             -8.9166   ZZ=            -14.7129
   XY=              2.3775   XZ=              0.0000   YZ=              0.0000

 Normal termination of Gaussian 16 at Fri Aug 26 21:13:16 2022.
