 Gaussian 16, Revision A.03,
 Gaussian 16:  ES64L-G16RevA.03 25-Dec-2016

 ------------------
 #p CCSD(T)/cc-pVTZ
 ------------------

 -----------
 H2O_H2O_611
 -----------
 Symbolic Z-matrix:
 Charge =  0 Multiplicity = 1

                         Standard orientation:
 ---------------------------------------------------------------------
 Center     Atomic      Atomic             Coordinates (Angstroms)
 Number     Number       Type             X           Y           Z
 ---------------------------------------------------------------------
      1          8           0        0.059730    1.350399    0.000000
      2          1           0        0.057490    0.367800    0.000000
      3          1           0       -0.869034    1.671184    0.000000
      4          8           0        0.059730   -1.173074   -0.000000
      5          1           0        0.705918   -1.913309   -0.000000
      6          1           0       -0.850060   -1.544272   -0.000000
 ---------------------------------------------------------------------

 SCF Done:  E(RHF) =  -152.104744725     A.U. after   11 cycles
 E2 =    -0.5310491961D+00 EUMP2 =    -0.15263579392093D+03
 CCSD(T)
 CCSD(T)= -0.15266231088D+03

 The electronic state is 1-A'.
 Alpha  occ. eigenvalues --  -20.59871 -20.49739  -1.38024  -1.27948  -0.75007
 Alpha  occ. eigenvalues --   -0.70028  -0.58999  -0.54790  -0.50360  -0.44937
 Alpha virt. eigenvalues --    0.11348   0.17371   0.19822   0.33221   0.47857
 Alpha virt. eigenvalues --    0.53813   0.60906   0.61426   0.70931   0.72299
 Alpha virt. eigenvalues --    0.73106   0.78171   0.81007   0.83161   0.84244

 Mulliken charges:
               1
     1  O   -0.597094
     2  H    0.311280
     3  H    0.226434
     4  O   -0.445283
     5  H    0.255111
     6  H    0.249553
 Sum of Mulliken charges =  -0.00000

 Dipole moment (field-independent basis, Debye):
    X=             -1.9215    Y=             -4.0977    Z=             -0.0000  Tot=              4.5258
 Quadrupole moment (field-independent basis, Debye-Ang):
   XX=             -9.3633   YY=             -9.2494   ZZ=            -14.6862
   XY=             -3.0319   XZ=             -0.0000   YZ=              0.0000

 Normal termination of Gaussian 16 at Fri Aug 26 19:23:25 2022.
