 Gaussian 16, Revision A.03,
 Gaussian 16:  ES64L-G16RevA.03 25-Dec-2016

 ------------------
 #p CCSD(T)/cc-pVTZ
 ------------------

 ------------
 H2O_H2O_1757
 ------------
 Symbolic Z-matrix:
 Charge =  0 Multiplicity = 1

                         Standard orientation:
 ---------------------------------------------------------------------
 Center     Atomic      Atomic             Coordinates (Angstroms)
 Number     Number       Type             X           Y           Z
 ---------------------------------------------------------------------
      1          8           0        0.073555    1.803443    0.000000
      2          1           0        0.072597    0.820842    0.000000
      3          1           0       -0.855627    2.123015    0.000000
      4          8           0        0.073555   -1.636536   -0.000000
      5          1           0        0.507290   -2.518227   -0.000000
      6          1           0       -0.901146   -1.760886   -0.000000
 ---------------------------------------------------------------------

 SCF Done:  E(RHF) =  -152.111729764     A.U. after   10 cycles
 E2 =    -0.5268340771D+00 EUMP2 =    -0.15263856384071D+03
 CCSD(T)
 CCSD(T)= -0.15266562183D+03

 The electronic state is 1-A'.
 Alpha  occ. eigenvalues --  -20.57602 -20.53766  -1.34880  -1.31133  -0.72315
 Alpha  occ. eigenvalues --   -0.68558  -0.58542  -0.54542  -0.51998  -0.48268
 Alpha virt. eigenvalues --    0.11890   0.16779   0.19482   0.27073   0.50574
 Alpha virt. eigenvalues --    0.55404   0.56518   0.58434   0.69266   0.73349
 Alpha virt. eigenvalues --    0.75315   0.77672   0.80796   0.83112   0.83898

 Mulliken charges:
               1
     1  O   -0.527041
     2  H    0.271011
     3  H    0.243914
     4  O   -0.501570
     5  H    0.260136
     6  H    0.253549
 Sum of Mulliken charges =  -0.00000

 Dipole moment (field-independent basis, Debye):
    X=             -2.4747    Y=             -3.1889    Z=             -0.0000  Tot=              4.0365
 Quadrupole moment (field-independent basis, Debye-Ang):
   XX=             -9.8357   YY=             -8.2882   ZZ=            -14.7263
   XY=             -3.2049   XZ=             -0.0000   YZ=              0.0000

 Normal termination of Gaussian 16 at Sun Aug 28 01:21:04 2022.
