 Gaussian 16, Revision A.03,
 Gaussian 16:  ES64L-G16RevA.03 25-Dec-2016

 ------------------
 #p CCSD(T)/cc-pVTZ
 ------------------

 ------------
 H2O_H2O_1208
 ------------
 Symbolic Z-matrix:
 Charge =  0 Multiplicity = 1

                         Standard orientation:
 ---------------------------------------------------------------------
 Center     Atomic      Atomic             Coordinates (Angstroms)
 Number     Number       Type             X           Y           Z
 ---------------------------------------------------------------------
      1          8           0        0.070236    1.585841    0.000000
      2          1           0        0.068949    0.603241    0.000000
      3          1           0       -0.858839    1.905724   -0.000000
      4          8           0        0.070236   -1.415658    0.000000
      5          1           0        0.560422   -2.267259    0.000000
      6          1           0       -0.894309   -1.603168   -0.000000
 ---------------------------------------------------------------------

 SCF Done:  E(RHF) =  -152.112589795     A.U. after   10 cycles
 E2 =    -0.5280705910D+00 EUMP2 =    -0.15264066038643D+03
 CCSD(T)
 CCSD(T)= -0.15266760718D+03

 The electronic state is 1-A'.
 Alpha  occ. eigenvalues --  -20.58402 -20.52670  -1.35800  -1.30190  -0.73229
 Alpha  occ. eigenvalues --   -0.68087  -0.59425  -0.53401  -0.52875  -0.47307
 Alpha virt. eigenvalues --    0.11757   0.17162   0.19481   0.30389   0.48691
 Alpha virt. eigenvalues --    0.54841   0.57835   0.59046   0.69790   0.73180
 Alpha virt. eigenvalues --    0.73728   0.76506   0.81887   0.82360   0.84374

 Mulliken charges:
               1
     1  O   -0.546205
     2  H    0.286472
     3  H    0.238239
     4  O   -0.485493
     5  H    0.254381
     6  H    0.252606
 Sum of Mulliken charges =  -0.00000

 Dipole moment (field-independent basis, Debye):
    X=             -2.3313    Y=             -3.4566    Z=             -0.0000  Tot=              4.1693
 Quadrupole moment (field-independent basis, Debye-Ang):
   XX=             -9.7089   YY=             -8.6082   ZZ=            -14.7247
   XY=             -3.1335   XZ=             -0.0000   YZ=             -0.0000

 Normal termination of Gaussian 16 at Fri Aug 26 23:07:56 2022.
