 Gaussian 16, Revision A.03,
 Gaussian 16:  ES64L-G16RevA.03 25-Dec-2016

 ------------------
 #p CCSD(T)/cc-pVTZ
 ------------------

 ------------
 H2O_H2O_2407
 ------------
 Symbolic Z-matrix:
 Charge =  0 Multiplicity = 1

                         Standard orientation:
 ---------------------------------------------------------------------
 Center     Atomic      Atomic             Coordinates (Angstroms)
 Number     Number       Type             X           Y           Z
 ---------------------------------------------------------------------
      1          8           0        0.073545    2.062722   -0.000000
      2          1           0        0.072712    1.080121   -0.000000
      3          1           0       -0.855678    2.382176   -0.000000
      4          8           0        0.073545   -1.895796    0.000000
      5          1           0        0.507391   -2.777433    0.000000
      6          1           0       -0.901141   -2.020271    0.000000
 ---------------------------------------------------------------------

 SCF Done:  E(RHF) =  -152.110224420     A.U. after   10 cycles
 E2 =    -0.5262290602D+00 EUMP2 =    -0.15263645348028D+03
 CCSD(T)
 CCSD(T)= -0.15266356954D+03

 The electronic state is 1-A'.
 Alpha  occ. eigenvalues --  -20.57008 -20.54341  -1.34278  -1.31665  -0.71696
 Alpha  occ. eigenvalues --   -0.69045  -0.57836  -0.55131  -0.51402  -0.48798
 Alpha virt. eigenvalues --    0.12024   0.16277   0.19452   0.24271   0.53054
 Alpha virt. eigenvalues --    0.55705   0.56085   0.58510   0.68803   0.71058
 Alpha virt. eigenvalues --    0.77217   0.78978   0.80088   0.81446   0.83335

 Mulliken charges:
               1
     1  O   -0.519456
     2  H    0.265826
     3  H    0.247751
     4  O   -0.507566
     5  H    0.259750
     6  H    0.253695
 Sum of Mulliken charges =   0.00000

 Dipole moment (field-independent basis, Debye):
    X=             -2.4951    Y=             -3.0676    Z=              0.0000  Tot=              3.9542
 Quadrupole moment (field-independent basis, Debye-Ang):
   XX=             -9.8238   YY=             -7.9619   ZZ=            -14.7204
   XY=             -3.3854   XZ=              0.0000   YZ=             -0.0000

 Normal termination of Gaussian 16 at Sun Aug 28 07:06:07 2022.
