 Gaussian 16, Revision A.03,
 Gaussian 16:  ES64L-G16RevA.03 25-Dec-2016

 ------------------
 #p CCSD(T)/cc-pVTZ
 ------------------

 -----------
 H2O_H2O_672
 -----------
 Symbolic Z-matrix:
 Charge =  0 Multiplicity = 1

                         Standard orientation:
 ---------------------------------------------------------------------
 Center     Atomic      Atomic             Coordinates (Angstroms)
 Number     Number       Type             X           Y           Z
 ---------------------------------------------------------------------
      1          8           0       -0.020040    1.364755    0.000000
      2          1           0       -0.015199    0.382165    0.000000
      3          1           0        0.907872    1.687996    0.000000
      4          8           0       -0.020040   -1.197736    0.000000
      5          1           0       -0.993591   -1.330789    0.000000
      6          1           0        0.421554   -2.075519    0.000000
 ---------------------------------------------------------------------

 SCF Done:  E(RHF) =  -152.106048278     A.U. after   10 cycles
 E2 =    -0.5305450373D+00 EUMP2 =    -0.15263659331528D+03
 CCSD(T)
 CCSD(T)= -0.15266318408D+03

 The electronic state is 1-A'.
 Alpha  occ. eigenvalues --  -20.59575 -20.50285  -1.37679  -1.28375  -0.75318
 Alpha  occ. eigenvalues --   -0.68698  -0.59753  -0.54459  -0.50838  -0.45419
 Alpha virt. eigenvalues --    0.11681   0.18201   0.19229   0.33588   0.47941
 Alpha virt. eigenvalues --    0.53904   0.57712   0.67130   0.68230   0.72230
 Alpha virt. eigenvalues --    0.73916   0.76825   0.80145   0.83746   0.84000

 Mulliken charges:
               1
     1  O   -0.600540
     2  H    0.299350
     3  H    0.243187
     4  O   -0.440532
     5  H    0.260108
     6  H    0.238427
 Sum of Mulliken charges =  -0.00000

 Dipole moment (field-independent basis, Debye):
    X=              0.6608    Y=             -3.8244    Z=              0.0000  Tot=              3.8811
 Quadrupole moment (field-independent basis, Debye-Ang):
   XX=             -9.4140   YY=             -9.1750   ZZ=            -14.6887
   XY=              3.4644   XZ=              0.0000   YZ=              0.0000

 Normal termination of Gaussian 16 at Fri Aug 26 19:45:43 2022.
