 Gaussian 16, Revision A.03,
 Gaussian 16:  ES64L-G16RevA.03 25-Dec-2016

 ------------------
 #p CCSD(T)/cc-pVTZ
 ------------------

 ------------
 H2O_H2O_4721
 ------------
 Symbolic Z-matrix:
 Charge =  0 Multiplicity = 1

                         Standard orientation:
 ---------------------------------------------------------------------
 Center     Atomic      Atomic             Coordinates (Angstroms)
 Number     Number       Type             X           Y           Z
 ---------------------------------------------------------------------
      1          8           0       -0.023160    2.982038    0.000000
      2          1           0       -0.021117    1.999439    0.000000
      3          1           0        0.905669    3.302637    0.000000
      4          8           0       -0.023160   -2.811625    0.000000
      5          1           0       -0.986481   -3.005323    0.000000
      6          1           0        0.472484   -3.660060    0.000000
 ---------------------------------------------------------------------

 SCF Done:  E(RHF) =  -152.108366588     A.U. after   10 cycles
 E2 =    -0.5257988203D+00 EUMP2 =    -0.15263416540874D+03
 CCSD(T)
 CCSD(T)= -0.15266136531D+03

 The electronic state is 1-A'.
 Alpha  occ. eigenvalues --  -20.56144 -20.55050  -1.33446  -1.32357  -0.70851
 Alpha  occ. eigenvalues --   -0.69762  -0.56937  -0.55828  -0.50565  -0.49480
 Alpha virt. eigenvalues --    0.13411   0.14825   0.19611   0.21038   0.53603
 Alpha virt. eigenvalues --    0.54838   0.56699   0.57763   0.66955   0.68566
 Alpha virt. eigenvalues --    0.78319   0.79379   0.79640   0.80590   0.82296

 Mulliken charges:
               1
     1  O   -0.513968
     2  H    0.259435
     3  H    0.254469
     4  O   -0.514504
     5  H    0.257176
     6  H    0.257391
 Sum of Mulliken charges =   0.00000

 Dipole moment (field-independent basis, Debye):
    X=              0.7956    Y=             -2.9851    Z=              0.0000  Tot=              3.0893
 Quadrupole moment (field-independent basis, Debye-Ang):
   XX=             -9.3625   YY=             -6.6773   ZZ=            -14.7146
   XY=              7.3345   XZ=              0.0000   YZ=              0.0000

 Normal termination of Gaussian 16 at Sun Aug 28 05:23:20 2022.
