 Gaussian 16, Revision A.03,
 Gaussian 16:  ES64L-G16RevA.03 25-Dec-2016

 ------------------
 #p CCSD(T)/cc-pVTZ
 ------------------

 ------------
 H2O_H2O_4921
 ------------
 Symbolic Z-matrix:
 Charge =  0 Multiplicity = 1

                         Standard orientation:
 ---------------------------------------------------------------------
 Center     Atomic      Atomic             Coordinates (Angstroms)
 Number     Number       Type             X           Y           Z
 ---------------------------------------------------------------------
      1          8           0       -0.023155    3.061815    0.000000
      2          1           0       -0.021167    2.079215    0.000000
      3          1           0        0.905691    3.382361    0.000000
      4          8           0       -0.023155   -2.891398    0.000000
      5          1           0       -0.986487   -3.085044    0.000000
      6          1           0        0.472442   -3.739861    0.000000
 ---------------------------------------------------------------------

 SCF Done:  E(RHF) =  -152.108287108     A.U. after   10 cycles
 E2 =    -0.5258000916D+00 EUMP2 =    -0.15263408720001D+03
 CCSD(T)
 CCSD(T)= -0.15266128937D+03

 The electronic state is 1-A'.
 Alpha  occ. eigenvalues --  -20.56115 -20.55085  -1.33417  -1.32391  -0.70822
 Alpha  occ. eigenvalues --   -0.69797  -0.56904  -0.55861  -0.50535  -0.49514
 Alpha virt. eigenvalues --    0.13494   0.14751   0.19654   0.20944   0.53662
 Alpha virt. eigenvalues --    0.54792   0.56721   0.57736   0.67056   0.68463
 Alpha virt. eigenvalues --    0.78347   0.79347   0.79720   0.80645   0.82078

 Mulliken charges:
               1
     1  O   -0.513598
     2  H    0.259074
     3  H    0.254490
     4  O   -0.514087
     5  H    0.256971
     6  H    0.257151
 Sum of Mulliken charges =   0.00000

 Dipole moment (field-independent basis, Debye):
    X=              0.7957    Y=             -2.9811    Z=              0.0000  Tot=              3.0855
 Quadrupole moment (field-independent basis, Debye-Ang):
   XX=             -9.3627   YY=             -6.5739   ZZ=            -14.7144
   XY=              7.5264   XZ=              0.0000   YZ=              0.0000

 Normal termination of Gaussian 16 at Sun Aug 28 06:54:55 2022.
