 Gaussian 16, Revision A.03,
 Gaussian 16:  ES64L-G16RevA.03 25-Dec-2016

 ------------------
 #p CCSD(T)/cc-pVTZ
 ------------------

 -----------
 H2O_H2O_170
 -----------
 Symbolic Z-matrix:
 Charge =  0 Multiplicity = 1

                         Standard orientation:
 ---------------------------------------------------------------------
 Center     Atomic      Atomic             Coordinates (Angstroms)
 Number     Number       Type             X           Y           Z
 ---------------------------------------------------------------------
      1          8           0        0.026896    1.168610    0.000000
      2          1           0        0.021696    0.186022    0.000000
      3          1           0       -0.900898    1.492190    0.000000
      4          8           0        0.026896   -0.995532   -0.000000
      5          1           0        0.974657   -1.254868   -0.000000
      6          1           0       -0.525790   -1.807964   -0.000000
 ---------------------------------------------------------------------

 SCF Done:  E(RHF) =  -152.061572943     A.U. after   11 cycles
 E2 =    -0.5349145365D+00 EUMP2 =    -0.15259648747923D+03
 CCSD(T)
 CCSD(T)= -0.15262223132D+03

 The electronic state is 1-A'.
 Alpha  occ. eigenvalues --  -20.61486 -20.45508  -1.42222  -1.25235  -0.79506
 Alpha  occ. eigenvalues --   -0.74146  -0.57629  -0.56222  -0.45743  -0.41908
 Alpha virt. eigenvalues --    0.10739   0.17090   0.20652   0.33659   0.47001
 Alpha virt. eigenvalues --    0.52299   0.60822   0.68502   0.70646   0.71348
 Alpha virt. eigenvalues --    0.77153   0.78328   0.80198   0.84055   0.85749

 Mulliken charges:
               1
     1  O   -0.663979
     2  H    0.290483
     3  H    0.220594
     4  O   -0.344592
     5  H    0.262632
     6  H    0.234862
 Sum of Mulliken charges =  -0.00000

 Dipole moment (field-independent basis, Debye):
    X=             -0.8272    Y=             -4.7283    Z=             -0.0000  Tot=              4.8001
 Quadrupole moment (field-independent basis, Debye-Ang):
   XX=             -9.2010   YY=             -9.9761   ZZ=            -14.5865
   XY=             -2.8288   XZ=             -0.0000   YZ=              0.0000

 Normal termination of Gaussian 16 at Fri Aug 26 16:21:00 2022.
