 Gaussian 16, Revision A.03,
 Gaussian 16:  ES64L-G16RevA.03 25-Dec-2016

 ------------------
 #p CCSD(T)/cc-pVTZ
 ------------------

 -----------
 H2O_H2O_610
 -----------
 Symbolic Z-matrix:
 Charge =  0 Multiplicity = 1

                         Standard orientation:
 ---------------------------------------------------------------------
 Center     Atomic      Atomic             Coordinates (Angstroms)
 Number     Number       Type             X           Y           Z
 ---------------------------------------------------------------------
      1          8           0        0.063315    1.349349    0.000000
      2          1           0        0.061316    0.366750    0.000000
      3          1           0       -0.865528    1.669906    0.000000
      4          8           0        0.063315   -1.173955   -0.000000
      5          1           0        0.659897   -1.954721   -0.000000
      6          1           0       -0.868729   -1.485084   -0.000000
 ---------------------------------------------------------------------

 SCF Done:  E(RHF) =  -152.104327491     A.U. after   11 cycles
 E2 =    -0.5311378445D+00 EUMP2 =    -0.15263546533544D+03
 CCSD(T)
 CCSD(T)= -0.15266198717D+03

 The electronic state is 1-A'.
 Alpha  occ. eigenvalues --  -20.59864 -20.49858  -1.38030  -1.28047  -0.75140
 Alpha  occ. eigenvalues --   -0.69896  -0.59028  -0.54783  -0.50485  -0.45036
 Alpha virt. eigenvalues --    0.11332   0.17251   0.19898   0.33154   0.47966
 Alpha virt. eigenvalues --    0.53770   0.60476   0.61732   0.71032   0.72274
 Alpha virt. eigenvalues --    0.73311   0.78095   0.80735   0.83366   0.84206

 Mulliken charges:
               1
     1  O   -0.594398
     2  H    0.309418
     3  H    0.225473
     4  O   -0.440327
     5  H    0.251858
     6  H    0.247976
 Sum of Mulliken charges =  -0.00000

 Dipole moment (field-independent basis, Debye):
    X=             -2.0364    Y=             -4.0534    Z=             -0.0000  Tot=              4.5362
 Quadrupole moment (field-independent basis, Debye-Ang):
   XX=             -9.4612   YY=             -9.2398   ZZ=            -14.6837
   XY=             -2.9926   XZ=             -0.0000   YZ=             -0.0000

 Normal termination of Gaussian 16 at Fri Aug 26 19:23:00 2022.
