 Gaussian 16, Revision A.03,
 Gaussian 16:  ES64L-G16RevA.03 25-Dec-2016

 ------------------
 #p CCSD(T)/cc-pVTZ
 ------------------

 ------------
 H2O_H2O_2651
 ------------
 Symbolic Z-matrix:
 Charge =  0 Multiplicity = 1

                         Standard orientation:
 ---------------------------------------------------------------------
 Center     Atomic      Atomic             Coordinates (Angstroms)
 Number     Number       Type             X           Y           Z
 ---------------------------------------------------------------------
      1          8           0        0.090685   -2.147112    0.000000
      2          1           0        0.090593   -1.164511    0.000000
      3          1           0       -0.838778   -2.465866    0.000000
      4          8           0        0.090685    2.008405    0.000000
      5          1           0        0.154858    2.988910    0.000000
      6          1           0       -0.857635    1.751123    0.000000
 ---------------------------------------------------------------------

 SCF Done:  E(RHF) =  -152.108530667     A.U. after   10 cycles
 E2 =    -0.5262056285D+00 EUMP2 =    -0.15263473629532D+03
 CCSD(T)
 CCSD(T)= -0.15266189983D+03

 The electronic state is 1-A'.
 Alpha  occ. eigenvalues --  -20.56832 -20.54978  -1.34122  -1.32282  -0.71570
 Alpha  occ. eigenvalues --   -0.69649  -0.57603  -0.55731  -0.51230  -0.49397
 Alpha virt. eigenvalues --    0.11539   0.15796   0.19657   0.23743   0.53955
 Alpha virt. eigenvalues --    0.55298   0.56490   0.58013   0.68478   0.69982
 Alpha virt. eigenvalues --    0.77542   0.78716   0.79512   0.80559   0.82980

 Mulliken charges:
               1
     1  O   -0.512498
     2  H    0.262091
     3  H    0.247967
     4  O   -0.506168
     5  H    0.259459
     6  H    0.249150
 Sum of Mulliken charges =  -0.00000

 Dipole moment (field-independent basis, Debye):
    X=             -3.0795    Y=              2.5153    Z=              0.0000  Tot=              3.9761
 Quadrupole moment (field-independent basis, Debye-Ang):
   XX=            -10.7193   YY=             -8.9357   ZZ=            -14.7140
   XY=              2.3510   XZ=              0.0000   YZ=              0.0000

 Normal termination of Gaussian 16 at Fri Aug 26 16:18:44 2022.
