 Gaussian 16, Revision A.03,
 Gaussian 16:  ES64L-G16RevA.03 25-Dec-2016

 ------------------
 #p CCSD(T)/cc-pVTZ
 ------------------

 ------------
 H2O_H2O_1612
 ------------
 Symbolic Z-matrix:
 Charge =  0 Multiplicity = 1

                         Standard orientation:
 ---------------------------------------------------------------------
 Center     Atomic      Atomic             Coordinates (Angstroms)
 Number     Number       Type             X           Y           Z
 ---------------------------------------------------------------------
      1          8           0        0.056036    1.750102    0.000000
      2          1           0        0.054146    0.767503    0.000000
      3          1           0       -0.872843    2.070555   -0.000000
      4          8           0        0.056036   -1.571252    0.000000
      5          1           0        0.749503   -2.267390    0.000000
      6          1           0       -0.827376   -2.001474   -0.000000
 ---------------------------------------------------------------------

 SCF Done:  E(RHF) =  -152.113288134     A.U. after   10 cycles
 E2 =    -0.5269627371D+00 EUMP2 =    -0.15264025087132D+03
 CCSD(T)
 CCSD(T)= -0.15266727046D+03

 The electronic state is 1-A'.
 Alpha  occ. eigenvalues --  -20.57805 -20.53191  -1.35075  -1.30603  -0.72439
 Alpha  occ. eigenvalues --   -0.68154  -0.58850  -0.53982  -0.52207  -0.47750
 Alpha virt. eigenvalues --    0.12042   0.17315   0.19117   0.28269   0.50097
 Alpha virt. eigenvalues --    0.54917   0.56315   0.59152   0.69227   0.72329
 Alpha virt. eigenvalues --    0.74778   0.76832   0.81280   0.83111   0.84605

 Mulliken charges:
               1
     1  O   -0.536236
     2  H    0.275164
     3  H    0.245171
     4  O   -0.505447
     5  H    0.263996
     6  H    0.257353
 Sum of Mulliken charges =  -0.00000

 Dipole moment (field-independent basis, Debye):
    X=             -1.8816    Y=             -3.4674    Z=              0.0000  Tot=              3.9451
 Quadrupole moment (field-independent basis, Debye-Ang):
   XX=             -9.2967   YY=             -8.1905   ZZ=            -14.7331
   XY=             -3.6382   XZ=              0.0000   YZ=              0.0000

 Normal termination of Gaussian 16 at Sat Aug 27 23:53:38 2022.
