 Gaussian 16, Revision A.03,
 Gaussian 16:  ES64L-G16RevA.03 25-Dec-2016

 ------------------
 #p CCSD(T)/cc-pVTZ
 ------------------

 ------------
 H2O_H2O_2414
 ------------
 Symbolic Z-matrix:
 Charge =  0 Multiplicity = 1

                         Standard orientation:
 ---------------------------------------------------------------------
 Center     Atomic      Atomic             Coordinates (Angstroms)
 Number     Number       Type             X           Y           Z
 ---------------------------------------------------------------------
      1          8           0        0.048605    2.070026    0.000000
      2          1           0        0.046702    1.087426    0.000000
      3          1           0       -0.880270    2.390491    0.000000
      4          8           0        0.048605   -1.889660   -0.000000
      5          1           0        0.826995   -2.489339   -0.000000
      6          1           0       -0.771101   -2.431500   -0.000000
 ---------------------------------------------------------------------

 SCF Done:  E(RHF) =  -152.111118781     A.U. after   10 cycles
 E2 =    -0.5261391213D+00 EUMP2 =    -0.15263725790206D+03
 CCSD(T)
 CCSD(T)= -0.15266435822D+03

 The electronic state is 1-A'.
 Alpha  occ. eigenvalues --  -20.57010 -20.54056  -1.34268  -1.31392  -0.71661
 Alpha  occ. eigenvalues --   -0.68789  -0.57876  -0.54875  -0.51405  -0.48536
 Alpha virt. eigenvalues --    0.12315   0.16529   0.19303   0.24450   0.52500
 Alpha virt. eigenvalues --    0.55535   0.56313   0.59013   0.69029   0.71096
 Alpha virt. eigenvalues --    0.77237   0.78498   0.80313   0.81454   0.83658

 Mulliken charges:
               1
     1  O   -0.524008
     2  H    0.267059
     3  H    0.250062
     4  O   -0.510445
     5  H    0.260694
     6  H    0.256638
 Sum of Mulliken charges =  -0.00000

 Dipole moment (field-independent basis, Debye):
    X=             -1.6502    Y=             -3.3202    Z=             -0.0000  Tot=              3.7077
 Quadrupole moment (field-independent basis, Debye-Ang):
   XX=             -9.1845   YY=             -7.5730   ZZ=            -14.7239
   XY=             -4.2875   XZ=             -0.0000   YZ=              0.0000

 Normal termination of Gaussian 16 at Sun Aug 28 07:08:55 2022.
