 Gaussian 16, Revision A.03,
 Gaussian 16:  ES64L-G16RevA.03 25-Dec-2016

 ------------------
 #p CCSD(T)/cc-pVTZ
 ------------------

 ------------
 H2O_H2O_1870
 ------------
 Symbolic Z-matrix:
 Charge =  0 Multiplicity = 1

                         Standard orientation:
 ---------------------------------------------------------------------
 Center     Atomic      Atomic             Coordinates (Angstroms)
 Number     Number       Type             X           Y           Z
 ---------------------------------------------------------------------
      1          8           0        0.026720    1.846750   -0.000000
      2          1           0        0.023523    0.864154   -0.000000
      3          1           0       -0.901732    2.168439   -0.000000
      4          8           0        0.026720   -1.673564    0.000000
      5          1           0        0.975007   -1.930966    0.000000
      6          1           0       -0.524310   -2.487119    0.000000
 ---------------------------------------------------------------------

 SCF Done:  E(RHF) =  -152.112731631     A.U. after   10 cycles
 E2 =    -0.5265225264D+00 EUMP2 =    -0.15263925415784D+03
 CCSD(T)
 CCSD(T)= -0.15266630548D+03

 The electronic state is 1-A'.
 Alpha  occ. eigenvalues --  -20.57463 -20.53619  -1.34727  -1.30993  -0.72123
 Alpha  occ. eigenvalues --   -0.68452  -0.58458  -0.54435  -0.51864  -0.48150
 Alpha virt. eigenvalues --    0.12220   0.17175   0.19123   0.26925   0.51881
 Alpha virt. eigenvalues --    0.54503   0.56147   0.59214   0.69028   0.72821
 Alpha virt. eigenvalues --    0.75756   0.77766   0.80834   0.83343   0.84375

 Mulliken charges:
               1
     1  O   -0.533731
     2  H    0.269723
     3  H    0.251668
     4  O   -0.508616
     5  H    0.262430
     6  H    0.258526
 Sum of Mulliken charges =  -0.00000

 Dipole moment (field-independent basis, Debye):
    X=             -0.9058    Y=             -3.2869    Z=              0.0000  Tot=              3.4095
 Quadrupole moment (field-independent basis, Debye-Ang):
   XX=             -9.2897   YY=             -8.0982   ZZ=            -14.7305
   XY=             -4.4890   XZ=              0.0000   YZ=             -0.0000

 Normal termination of Gaussian 16 at Sun Aug 28 02:19:59 2022.
