 Gaussian 16, Revision A.03,
 Gaussian 16:  ES64L-G16RevA.03 25-Dec-2016

 ------------------
 #p CCSD(T)/cc-pVTZ
 ------------------

 ------------
 H2O_H2O_1212
 ------------
 Symbolic Z-matrix:
 Charge =  0 Multiplicity = 1

                         Standard orientation:
 ---------------------------------------------------------------------
 Center     Atomic      Atomic             Coordinates (Angstroms)
 Number     Number       Type             X           Y           Z
 ---------------------------------------------------------------------
      1          8           0        0.056054    1.590540   -0.000000
      2          1           0        0.053964    0.607941   -0.000000
      3          1           0       -0.872759    1.911183    0.000000
      4          8           0        0.056054   -1.411712   -0.000000
      5          1           0        0.749379   -2.107993   -0.000000
      6          1           0       -0.827445   -1.841754    0.000000
 ---------------------------------------------------------------------

 SCF Done:  E(RHF) =  -152.113789846     A.U. after   10 cycles
 E2 =    -0.5279288875D+00 EUMP2 =    -0.15264171873347D+03
 CCSD(T)
 CCSD(T)= -0.15266864931D+03

 The electronic state is 1-A'.
 Alpha  occ. eigenvalues --  -20.58424 -20.52320  -1.35797  -1.29870  -0.73094
 Alpha  occ. eigenvalues --   -0.67954  -0.59496  -0.53063  -0.52894  -0.46999
 Alpha virt. eigenvalues --    0.11880   0.17651   0.19102   0.30696   0.48816
 Alpha virt. eigenvalues --    0.54835   0.56718   0.59776   0.69607   0.71825
 Alpha virt. eigenvalues --    0.73265   0.76894   0.82098   0.82652   0.84859

 Mulliken charges:
               1
     1  O   -0.552281
     2  H    0.288499
     3  H    0.240979
     4  O   -0.498464
     5  H    0.263908
     6  H    0.257360
 Sum of Mulliken charges =  -0.00000

 Dipole moment (field-independent basis, Debye):
    X=             -1.8624    Y=             -3.6352    Z=              0.0000  Tot=              4.0846
 Quadrupole moment (field-independent basis, Debye-Ang):
   XX=             -9.2963   YY=             -8.5447   ZZ=            -14.7315
   XY=             -3.4219   XZ=             -0.0000   YZ=              0.0000

 Normal termination of Gaussian 16 at Fri Aug 26 23:09:27 2022.
