 Gaussian 16, Revision A.03,
 Gaussian 16:  ES64L-G16RevA.03 25-Dec-2016

 ------------------
 #p CCSD(T)/cc-pVTZ
 ------------------

 ------------
 H2O_H2O_4508
 ------------
 Symbolic Z-matrix:
 Charge =  0 Multiplicity = 1

                         Standard orientation:
 ---------------------------------------------------------------------
 Center     Atomic      Atomic             Coordinates (Angstroms)
 Number     Number       Type             X           Y           Z
 ---------------------------------------------------------------------
      1          8           0        0.070184    2.902178    0.000000
      2          1           0        0.069498    1.919577    0.000000
      3          1           0       -0.859087    3.221493    0.000000
      4          8           0        0.070184   -2.731910   -0.000000
      5          1           0        0.560891   -3.583210   -0.000000
      6          1           0       -0.894246   -2.920010   -0.000000
 ---------------------------------------------------------------------

 SCF Done:  E(RHF) =  -152.108170055     A.U. after   10 cycles
 E2 =    -0.5258311831D+00 EUMP2 =    -0.15263400123779D+03
 CCSD(T)
 CCSD(T)= -0.15266120348D+03

 The electronic state is 1-A'.
 Alpha  occ. eigenvalues --  -20.56192 -20.55037  -1.33494  -1.32343  -0.70902
 Alpha  occ. eigenvalues --   -0.69741  -0.56976  -0.55807  -0.50610  -0.49463
 Alpha virt. eigenvalues --    0.13257   0.14859   0.19556   0.21079   0.53524
 Alpha virt. eigenvalues --    0.54863   0.56629   0.57766   0.66864   0.68685
 Alpha virt. eigenvalues --    0.78278   0.79398   0.79496   0.80517   0.82520

 Mulliken charges:
               1
     1  O   -0.512398
     2  H    0.259763
     3  H    0.252523
     4  O   -0.513336
     5  H    0.258515
     6  H    0.254933
 Sum of Mulliken charges =  -0.00000

 Dipole moment (field-independent basis, Debye):
    X=             -2.4067    Y=             -2.9886    Z=             -0.0000  Tot=              3.8372
 Quadrupole moment (field-independent basis, Debye-Ang):
   XX=             -9.6791   YY=             -6.8096   ZZ=            -14.7139
   XY=             -4.1982   XZ=             -0.0000   YZ=              0.0000

 Normal termination of Gaussian 16 at Sun Aug 28 03:26:50 2022.
