 Gaussian 16, Revision A.03,
 Gaussian 16:  ES64L-G16RevA.03 25-Dec-2016

 ------------------
 #p CCSD(T)/cc-pVTZ
 ------------------

 -----------
 H2O_H2O_304
 -----------
 Symbolic Z-matrix:
 Charge =  0 Multiplicity = 1

                         Standard orientation:
 ---------------------------------------------------------------------
 Center     Atomic      Atomic             Coordinates (Angstroms)
 Number     Number       Type             X           Y           Z
 ---------------------------------------------------------------------
      1          8           0        0.082833   -1.218307    0.000000
      2          1           0        0.082079   -0.235706    0.000000
      3          1           0       -0.846415   -1.537687    0.000000
      4          8           0        0.082833    1.063853    0.000000
      5          1           0        0.336420    2.013168    0.000000
      6          1           0       -0.897414    0.995862    0.000000
 ---------------------------------------------------------------------

 SCF Done:  E(RHF) =  -152.076305270     A.U. after   11 cycles
 E2 =    -0.5350523644D+00 EUMP2 =    -0.15261135763442D+03
 CCSD(T)
 CCSD(T)= -0.15263745425D+03

 The electronic state is 1-A'.
 Alpha  occ. eigenvalues --  -20.60823 -20.48729  -1.40650  -1.27462  -0.79345
 Alpha  occ. eigenvalues --   -0.70416  -0.57853  -0.56407  -0.49388  -0.44324
 Alpha virt. eigenvalues --    0.10900   0.16306   0.21038   0.32535   0.49069
 Alpha virt. eigenvalues --    0.52024   0.59551   0.65144   0.71720   0.72792
 Alpha virt. eigenvalues --    0.76036   0.77003   0.79625   0.83781   0.85291

 Mulliken charges:
               1
     1  O   -0.597682
     2  H    0.284261
     3  H    0.205716
     4  O   -0.356289
     5  H    0.229347
     6  H    0.234648
 Sum of Mulliken charges =  -0.00000

 Dipole moment (field-independent basis, Debye):
    X=             -2.6047    Y=              3.9994    Z=              0.0000  Tot=              4.7728
 Quadrupole moment (field-independent basis, Debye-Ang):
   XX=            -10.2490   YY=             -9.6104   ZZ=            -14.6002
   XY=              2.4465   XZ=              0.0000   YZ=              0.0000

 Normal termination of Gaussian 16 at Fri Aug 26 17:18:03 2022.
