 Gaussian 16, Revision A.03,
 Gaussian 16:  ES64L-G16RevA.03 25-Dec-2016

 ------------------
 #p CCSD(T)/cc-pVTZ
 ------------------

 ------------
 H2O_H2O_3518
 ------------
 Symbolic Z-matrix:
 Charge =  0 Multiplicity = 1

                         Standard orientation:
 ---------------------------------------------------------------------
 Center     Atomic      Atomic             Coordinates (Angstroms)
 Number     Number       Type             X           Y           Z
 ---------------------------------------------------------------------
      1          8           0        0.033778    2.507252   -0.000000
      2          1           0        0.031701    1.524653   -0.000000
      3          1           0       -0.895040    2.827882   -0.000000
      4          8           0        0.033778   -2.329720    0.000000
      5          1           0        0.940787   -2.707662    0.000000
      6          1           0       -0.617889   -3.065136    0.000000
 ---------------------------------------------------------------------

 SCF Done:  E(RHF) =  -152.109255254     A.U. after   10 cycles
 E2 =    -0.5258462969D+00 EUMP2 =    -0.15263510155127D+03
 CCSD(T)
 CCSD(T)= -0.15266226850D+03

 The electronic state is 1-A'.
 Alpha  occ. eigenvalues --  -20.56430 -20.54675  -1.33721  -1.31990  -0.71123
 Alpha  occ. eigenvalues --   -0.69391  -0.57244  -0.55475  -0.50846  -0.49121
 Alpha virt. eigenvalues --    0.12756   0.15533   0.19515   0.21857   0.53381
 Alpha virt. eigenvalues --    0.55168   0.56518   0.57998   0.67003   0.69315
 Alpha virt. eigenvalues --    0.78056   0.78914   0.79716   0.79806   0.83030

 Mulliken charges:
               1
     1  O   -0.517248
     2  H    0.262635
     3  H    0.253370
     4  O   -0.516035
     5  H    0.259222
     6  H    0.258055
 Sum of Mulliken charges =  -0.00000

 Dipole moment (field-independent basis, Debye):
    X=             -1.1552    Y=             -3.1580    Z=              0.0000  Tot=              3.3627
 Quadrupole moment (field-independent basis, Debye-Ang):
   XX=             -9.1861   YY=             -6.9709   ZZ=            -14.7178
   XY=             -5.6470   XZ=              0.0000   YZ=             -0.0000

 Normal termination of Gaussian 16 at Fri Aug 26 22:09:40 2022.
