 Gaussian 16, Revision A.03,
 Gaussian 16:  ES64L-G16RevA.03 25-Dec-2016

 ------------------
 #p CCSD(T)/cc-pVTZ
 ------------------

 ------------
 H2O_H2O_3606
 ------------
 Symbolic Z-matrix:
 Charge =  0 Multiplicity = 1

                         Standard orientation:
 ---------------------------------------------------------------------
 Center     Atomic      Atomic             Coordinates (Angstroms)
 Number     Number       Type             X           Y           Z
 ---------------------------------------------------------------------
      1          8           0        0.076754    2.539358    0.000000
      2          1           0        0.076195    1.556757    0.000000
      3          1           0       -0.852557    2.858553   -0.000000
      4          8           0        0.076754   -2.376142    0.000000
      5          1           0        0.452264   -3.284162    0.000000
      6          1           0       -0.903969   -2.436876   -0.000000
 ---------------------------------------------------------------------

 SCF Done:  E(RHF) =  -152.108511922     A.U. after   10 cycles
 E2 =    -0.5258963922D+00 EUMP2 =    -0.15263440831412D+03
 CCSD(T)
 CCSD(T)= -0.15266159251D+03

 The electronic state is 1-A'.
 Alpha  occ. eigenvalues --  -20.56415 -20.54902  -1.33710  -1.32211  -0.71123
 Alpha  occ. eigenvalues --   -0.69602  -0.57201  -0.55677  -0.50827  -0.49332
 Alpha virt. eigenvalues --    0.12492   0.15338   0.19362   0.21832   0.53316
 Alpha virt. eigenvalues --    0.55067   0.56454   0.58025   0.66860   0.69163
 Alpha virt. eigenvalues --    0.78076   0.78733   0.79522   0.80575   0.82779

 Mulliken charges:
               1
     1  O   -0.513034
     2  H    0.261028
     3  H    0.251149
     4  O   -0.513105
     5  H    0.259761
     6  H    0.254201
 Sum of Mulliken charges =  -0.00000

 Dipole moment (field-independent basis, Debye):
    X=             -2.6237    Y=             -2.8970    Z=              0.0000  Tot=              3.9085
 Quadrupole moment (field-independent basis, Debye-Ang):
   XX=             -9.9517   YY=             -7.6023   ZZ=            -14.7150
   XY=             -3.5034   XZ=              0.0000   YZ=              0.0000

 Normal termination of Gaussian 16 at Fri Aug 26 22:38:47 2022.
