 Gaussian 16, Revision A.03,
 Gaussian 16:  ES64L-G16RevA.03 25-Dec-2016

 ------------------
 #p CCSD(T)/cc-pVTZ
 ------------------

 ------------
 H2O_H2O_4463
 ------------
 Symbolic Z-matrix:
 Charge =  0 Multiplicity = 1

                         Standard orientation:
 ---------------------------------------------------------------------
 Center     Atomic      Atomic             Coordinates (Angstroms)
 Number     Number       Type             X           Y           Z
 ---------------------------------------------------------------------
      1          8           0        0.052272    2.887480   -0.000000
      2          1           0        0.051038    1.904879   -0.000000
      3          1           0       -0.876820    3.207313   -0.000000
      4          8           0        0.052272   -2.707558    0.000000
      5          1           0        0.790217   -3.356359    0.000000
      6          1           0       -0.800786   -3.195206    0.000000
 ---------------------------------------------------------------------

 SCF Done:  E(RHF) =  -152.108408312     A.U. after   10 cycles
 E2 =    -0.5258123599D+00 EUMP2 =    -0.15263422067207D+03
 CCSD(T)
 CCSD(T)= -0.15266141763D+03

 The electronic state is 1-A'.
 Alpha  occ. eigenvalues --  -20.56194 -20.54939  -1.33494  -1.32247  -0.70899
 Alpha  occ. eigenvalues --   -0.69647  -0.56987  -0.55717  -0.50613  -0.49369
 Alpha virt. eigenvalues --    0.13340   0.14945   0.19690   0.21056   0.53645
 Alpha virt. eigenvalues --    0.54853   0.56654   0.57798   0.66817   0.68784
 Alpha virt. eigenvalues --    0.78274   0.79486   0.79649   0.80101   0.82699

 Mulliken charges:
               1
     1  O   -0.513755
     2  H    0.260530
     3  H    0.253080
     4  O   -0.514533
     5  H    0.258431
     6  H    0.256246
 Sum of Mulliken charges =  -0.00000

 Dipole moment (field-independent basis, Debye):
    X=             -1.7924    Y=             -3.1596    Z=              0.0000  Tot=              3.6326
 Quadrupole moment (field-independent basis, Debye-Ang):
   XX=             -9.2250   YY=             -6.2698   ZZ=            -14.7148
   XY=             -5.3255   XZ=              0.0000   YZ=             -0.0000

 Normal termination of Gaussian 16 at Sun Aug 28 03:09:19 2022.
