 Gaussian 16, Revision A.03,
 Gaussian 16:  ES64L-G16RevA.03 25-Dec-2016

 ------------------
 #p CCSD(T)/cc-pVTZ
 ------------------

 ------------
 H2O_H2O_2264
 ------------
 Symbolic Z-matrix:
 Charge =  0 Multiplicity = 1

                         Standard orientation:
 ---------------------------------------------------------------------
 Center     Atomic      Atomic             Coordinates (Angstroms)
 Number     Number       Type             X           Y           Z
 ---------------------------------------------------------------------
      1          8           0        0.048610    2.010192   -0.000000
      2          1           0        0.046648    1.027592   -0.000000
      3          1           0       -0.880245    2.330713   -0.000000
      4          8           0        0.048610   -1.829832    0.000000
      5          1           0        0.826965   -2.429557    0.000000
      6          1           0       -0.771128   -2.371621    0.000000
 ---------------------------------------------------------------------

 SCF Done:  E(RHF) =  -152.111525009     A.U. after   10 cycles
 E2 =    -0.5262227297D+00 EUMP2 =    -0.15263774773875D+03
 CCSD(T)
 CCSD(T)= -0.15266483556D+03

 The electronic state is 1-A'.
 Alpha  occ. eigenvalues --  -20.57126 -20.53930  -1.34381  -1.31273  -0.71771
 Alpha  occ. eigenvalues --   -0.68677  -0.58015  -0.54750  -0.51519  -0.48420
 Alpha virt. eigenvalues --    0.12276   0.16692   0.19256   0.25049   0.52206
 Alpha virt. eigenvalues --    0.55398   0.56359   0.58997   0.69027   0.71712
 Alpha virt. eigenvalues --    0.76949   0.78177   0.80449   0.82718   0.83582

 Mulliken charges:
               1
     1  O   -0.525722
     2  H    0.267819
     3  H    0.249569
     4  O   -0.509383
     5  H    0.261037
     6  H    0.256681
 Sum of Mulliken charges =  -0.00000

 Dipole moment (field-independent basis, Debye):
    X=             -1.6481    Y=             -3.3443    Z=              0.0000  Tot=              3.7283
 Quadrupole moment (field-independent basis, Debye-Ang):
   XX=             -9.1853   YY=             -7.6772   ZZ=            -14.7254
   XY=             -4.1950   XZ=              0.0000   YZ=             -0.0000

 Normal termination of Gaussian 16 at Sun Aug 28 05:51:46 2022.
