 Gaussian 16, Revision A.03,
 Gaussian 16:  ES64L-G16RevA.03 25-Dec-2016

 ------------------
 #p CCSD(T)/cc-pVTZ
 ------------------

 -----------
 H2O_H2O_964
 -----------
 Symbolic Z-matrix:
 Charge =  0 Multiplicity = 1

                         Standard orientation:
 ---------------------------------------------------------------------
 Center     Atomic      Atomic             Coordinates (Angstroms)
 Number     Number       Type             X           Y           Z
 ---------------------------------------------------------------------
      1          8           0        0.048677    1.491616    0.000000
      2          1           0        0.045989    0.509019    0.000000
      3          1           0       -0.879942    1.812823    0.000000
      4          8           0        0.048677   -1.311329   -0.000000
      5          1           0        0.826589   -1.911628   -0.000000
      6          1           0       -0.771462   -1.852513   -0.000000
 ---------------------------------------------------------------------

 SCF Done:  E(RHF) =  -152.113006664     A.U. after   10 cycles
 E2 =    -0.5288231570D+00 EUMP2 =    -0.15264182982092D+03
 CCSD(T)
 CCSD(T)= -0.15266864576D+03

 The electronic state is 1-A'.
 Alpha  occ. eigenvalues --  -20.58933 -20.51383  -1.36472  -1.29122  -0.73633
 Alpha  occ. eigenvalues --   -0.68232  -0.59719  -0.53512  -0.52079  -0.46223
 Alpha virt. eigenvalues --    0.11771   0.17976   0.19055   0.32165   0.48297
 Alpha virt. eigenvalues --    0.54603   0.57328   0.61001   0.69472   0.71561
 Alpha virt. eigenvalues --    0.72678   0.77521   0.82333   0.82699   0.84794

 Mulliken charges:
               1
     1  O   -0.571086
     2  H    0.300443
     3  H    0.238691
     4  O   -0.490315
     5  H    0.265208
     6  H    0.257059
 Sum of Mulliken charges =  -0.00000

 Dipole moment (field-independent basis, Debye):
    X=             -1.6024    Y=             -3.8282    Z=             -0.0000  Tot=              4.1501
 Quadrupole moment (field-independent basis, Debye-Ang):
   XX=             -9.1814   YY=             -8.8091   ZZ=            -14.7238
   XY=             -3.3660   XZ=             -0.0000   YZ=              0.0000

 Normal termination of Gaussian 16 at Fri Aug 26 21:36:48 2022.
