 Gaussian 16, Revision A.03,
 Gaussian 16:  ES64L-G16RevA.03 25-Dec-2016

 ------------------
 #p CCSD(T)/cc-pVTZ
 ------------------

 -----------
 H2O_H2O_688
 -----------
 Symbolic Z-matrix:
 Charge =  0 Multiplicity = 1

                         Standard orientation:
 ---------------------------------------------------------------------
 Center     Atomic      Atomic             Coordinates (Angstroms)
 Number     Number       Type             X           Y           Z
 ---------------------------------------------------------------------
      1          8           0        0.052403    1.381644   -0.000000
      2          1           0        0.049732    0.399046   -0.000000
      3          1           0       -0.876220    1.702836   -0.000000
      4          8           0        0.052403   -1.201875    0.000000
      5          1           0        0.789399   -1.851755    0.000000
      6          1           0       -0.801366   -1.688274    0.000000
 ---------------------------------------------------------------------

 SCF Done:  E(RHF) =  -152.107926370     A.U. after   11 cycles
 E2 =    -0.5303842904D+00 EUMP2 =    -0.15263831066060D+03
 CCSD(T)
 CCSD(T)= -0.15266490701D+03

 The electronic state is 1-A'.
 Alpha  occ. eigenvalues --  -20.59648 -20.50049  -1.37602  -1.28144  -0.74526
 Alpha  occ. eigenvalues --   -0.69568  -0.59272  -0.54468  -0.50680  -0.45166
 Alpha virt. eigenvalues --    0.11479   0.17689   0.19532   0.33176   0.47764
 Alpha virt. eigenvalues --    0.54054   0.60006   0.61642   0.70261   0.72374
 Alpha virt. eigenvalues --    0.72420   0.78090   0.81677   0.82867   0.84399

 Mulliken charges:
               1
     1  O   -0.593937
     2  H    0.311826
     3  H    0.230959
     4  O   -0.462956
     5  H    0.261137
     6  H    0.252971
 Sum of Mulliken charges =  -0.00000

 Dipole moment (field-independent basis, Debye):
    X=             -1.6967    Y=             -4.0689    Z=              0.0000  Tot=              4.4085
 Quadrupole moment (field-independent basis, Debye-Ang):
   XX=             -9.2192   YY=             -9.1580   ZZ=            -14.6995
   XY=             -3.1443   XZ=              0.0000   YZ=             -0.0000

 Normal termination of Gaussian 16 at Fri Aug 26 19:51:27 2022.
