 Gaussian 16, Revision A.03,
 Gaussian 16:  ES64L-G16RevA.03 25-Dec-2016

 ------------------
 #p CCSD(T)/cc-pVTZ
 ------------------

 ------------
 H2O_H2O_2039
 ------------
 Symbolic Z-matrix:
 Charge =  0 Multiplicity = 1

                         Standard orientation:
 ---------------------------------------------------------------------
 Center     Atomic      Atomic             Coordinates (Angstroms)
 Number     Number       Type             X           Y           Z
 ---------------------------------------------------------------------
      1          8           0        0.048619    1.920439    0.000000
      2          1           0        0.046561    0.937840    0.000000
      3          1           0       -0.880205    2.241052    0.000000
      4          8           0        0.048619   -1.740090    0.000000
      5          1           0        0.826914   -2.339891    0.000000
      6          1           0       -0.771173   -2.281799    0.000000
 ---------------------------------------------------------------------

 SCF Done:  E(RHF) =  -152.112200558     A.U. after   10 cycles
 E2 =    -0.5263906223D+00 EUMP2 =    -0.15263859118082D+03
 CCSD(T)
 CCSD(T)= -0.15266565832D+03

 The electronic state is 1-A'.
 Alpha  occ. eigenvalues --  -20.57325 -20.53709  -1.34576  -1.31067  -0.71959
 Alpha  occ. eigenvalues --   -0.68492  -0.58261  -0.54527  -0.51716  -0.48217
 Alpha virt. eigenvalues --    0.12218   0.16945   0.19181   0.26063   0.51645
 Alpha virt. eigenvalues --    0.55121   0.56397   0.58984   0.69051   0.72281
 Alpha virt. eigenvalues --    0.76361   0.77628   0.80695   0.83451   0.84196

 Mulliken charges:
               1
     1  O   -0.528848
     2  H    0.269285
     3  H    0.248713
     4  O   -0.508117
     5  H    0.261933
     6  H    0.257034
 Sum of Mulliken charges =  -0.00000

 Dipole moment (field-independent basis, Debye):
    X=             -1.6443    Y=             -3.3866    Z=             -0.0000  Tot=              3.7647
 Quadrupole moment (field-independent basis, Debye-Ang):
   XX=             -9.1867   YY=             -7.8389   ZZ=            -14.7284
   XY=             -4.0557   XZ=             -0.0000   YZ=             -0.0000

 Normal termination of Gaussian 16 at Sun Aug 28 03:47:21 2022.
