 Gaussian 16, Revision A.03,
 Gaussian 16:  ES64L-G16RevA.03 25-Dec-2016

 ------------------
 #p CCSD(T)/cc-pVTZ
 ------------------

 -----------
 H2O_H2O_391
 -----------
 Symbolic Z-matrix:
 Charge =  0 Multiplicity = 1

                         Standard orientation:
 ---------------------------------------------------------------------
 Center     Atomic      Atomic             Coordinates (Angstroms)
 Number     Number       Type             X           Y           Z
 ---------------------------------------------------------------------
      1          8           0        0.041306    1.261988   -0.000000
      2          1           0        0.037554    0.279393   -0.000000
      3          1           0       -0.886963    1.584201   -0.000000
      4          8           0        0.041306   -1.082215    0.000000
      5          1           0        0.890382   -1.576762    0.000000
      6          1           0       -0.701874   -1.725014    0.000000
 ---------------------------------------------------------------------

 SCF Done:  E(RHF) =  -152.092041368     A.U. after   11 cycles
 E2 =    -0.5326153071D+00 EUMP2 =    -0.15262465667521D+03
 CCSD(T)
 CCSD(T)= -0.15265083602D+03

 The electronic state is 1-A'.
 Alpha  occ. eigenvalues --  -20.60651 -20.47673  -1.39635  -1.26531  -0.75977
 Alpha  occ. eigenvalues --   -0.72726  -0.57713  -0.56019  -0.48166  -0.43391
 Alpha virt. eigenvalues --    0.11083   0.17443   0.20102   0.33674   0.47090
 Alpha virt. eigenvalues --    0.53254   0.61368   0.65669   0.69963   0.72113
 Alpha virt. eigenvalues --    0.75928   0.79041   0.80660   0.82493   0.83824

 Mulliken charges:
               1
     1  O   -0.630696
     2  H    0.310310
     3  H    0.223665
     4  O   -0.410262
     5  H    0.260085
     6  H    0.246898
 Sum of Mulliken charges =  -0.00000

 Dipole moment (field-independent basis, Debye):
    X=             -1.3053    Y=             -4.4762    Z=              0.0000  Tot=              4.6626
 Quadrupole moment (field-independent basis, Debye-Ang):
   XX=             -9.1123   YY=             -9.6269   ZZ=            -14.6519
   XY=             -2.9706   XZ=              0.0000   YZ=             -0.0000

 Normal termination of Gaussian 16 at Fri Aug 26 17:54:15 2022.
