 Gaussian 16, Revision A.03,
 Gaussian 16:  ES64L-G16RevA.03 25-Dec-2016

 ------------------
 #p CCSD(T)/cc-pVTZ
 ------------------

 ------------
 H2O_H2O_1343
 ------------
 Symbolic Z-matrix:
 Charge =  0 Multiplicity = 1

                         Standard orientation:
 ---------------------------------------------------------------------
 Center     Atomic      Atomic             Coordinates (Angstroms)
 Number     Number       Type             X           Y           Z
 ---------------------------------------------------------------------
      1          8           0        0.033882    1.639657    0.000000
      2          1           0        0.030645    0.657061    0.000000
      3          1           0       -0.894556    1.961385    0.000000
      4          8           0        0.033882   -1.462205    0.000000
      5          1           0        0.940444   -1.841219    0.000000
      6          1           0       -0.618653   -2.196849    0.000000
 ---------------------------------------------------------------------

 SCF Done:  E(RHF) =  -152.114190876     A.U. after   10 cycles
 E2 =    -0.5274591470D+00 EUMP2 =    -0.15264165002263D+03
 CCSD(T)
 CCSD(T)= -0.15266861326D+03

 The electronic state is 1-A'.
 Alpha  occ. eigenvalues --  -20.58177 -20.52606  -1.35506  -1.30106  -0.72844
 Alpha  occ. eigenvalues --   -0.67934  -0.59337  -0.53372  -0.52624  -0.47254
 Alpha virt. eigenvalues --    0.12067   0.17945   0.18831   0.30000   0.49780
 Alpha virt. eigenvalues --    0.54458   0.55886   0.60676   0.68698   0.72295
 Alpha virt. eigenvalues --    0.73690   0.77058   0.81838   0.82829   0.84773

 Mulliken charges:
               1
     1  O   -0.550560
     2  H    0.282336
     3  H    0.247493
     4  O   -0.502769
     5  H    0.265672
     6  H    0.257830
 Sum of Mulliken charges =  -0.00000

 Dipole moment (field-independent basis, Debye):
    X=             -1.1342    Y=             -3.5474    Z=             -0.0000  Tot=              3.7243
 Quadrupole moment (field-independent basis, Debye-Ang):
   XX=             -9.1851   YY=             -8.4383   ZZ=            -14.7345
   XY=             -3.8568   XZ=             -0.0000   YZ=             -0.0000

 Normal termination of Gaussian 16 at Fri Aug 26 23:58:55 2022.
