 Gaussian 16, Revision A.03,
 Gaussian 16:  ES64L-G16RevA.03 25-Dec-2016

 ------------------
 #p CCSD(T)/cc-pVTZ
 ------------------

 ------------
 H2O_H2O_4103
 ------------
 Symbolic Z-matrix:
 Charge =  0 Multiplicity = 1

                         Standard orientation:
 ---------------------------------------------------------------------
 Center     Atomic      Atomic             Coordinates (Angstroms)
 Number     Number       Type             X           Y           Z
 ---------------------------------------------------------------------
      1          8           0        0.085598   -2.731403    0.000000
      2          1           0        0.085363   -1.748801    0.000000
      3          1           0       -0.843819   -3.050291    0.000000
      4          8           0        0.085598    2.581799    0.000000
      5          1           0        0.277065    3.545566    0.000000
      6          1           0       -0.888172    2.450358    0.000000
 ---------------------------------------------------------------------

 SCF Done:  E(RHF) =  -152.107961789     A.U. after   10 cycles
 E2 =    -0.5258755647D+00 EUMP2 =    -0.15263383735403D+03
 CCSD(T)
 CCSD(T)= -0.15266104145D+03

 The electronic state is 1-A'.
 Alpha  occ. eigenvalues --  -20.56285 -20.55153  -1.33585  -1.32457  -0.71000
 Alpha  occ. eigenvalues --   -0.69852  -0.57057  -0.55915  -0.50698  -0.49573
 Alpha virt. eigenvalues --    0.12641   0.14981   0.19125   0.21690   0.53180
 Alpha virt. eigenvalues --    0.54968   0.56521   0.57834   0.66749   0.68782
 Alpha virt. eigenvalues --    0.78197   0.79202   0.79293   0.81119   0.82436

 Mulliken charges:
               1
     1  O   -0.510897
     2  H    0.258947
     3  H    0.251719
     4  O   -0.511934
     5  H    0.259002
     6  H    0.253162
 Sum of Mulliken charges =  -0.00000

 Dipole moment (field-independent basis, Debye):
    X=             -2.9316    Y=              2.6355    Z=              0.0000  Tot=              3.9421
 Quadrupole moment (field-independent basis, Debye-Ang):
   XX=            -10.3987   YY=             -8.2055   ZZ=            -14.7130
   XY=              2.8997   XZ=              0.0000   YZ=              0.0000

 Normal termination of Gaussian 16 at Sat Aug 27 23:30:50 2022.
