 Gaussian 16, Revision A.03,
 Gaussian 16:  ES64L-G16RevA.03 25-Dec-2016

 ------------------
 #p CCSD(T)/cc-pVTZ
 ------------------

 ------------
 H2O_H2O_4486
 ------------
 Symbolic Z-matrix:
 Charge =  0 Multiplicity = 1

                         Standard orientation:
 ---------------------------------------------------------------------
 Center     Atomic      Atomic             Coordinates (Angstroms)
 Number     Number       Type             X           Y           Z
 ---------------------------------------------------------------------
      1          8           0        0.059619    2.896121   -0.000000
      2          1           0        0.058612    1.913520   -0.000000
      3          1           0       -0.869547    3.215740   -0.000000
      4          8           0        0.059619   -2.718647    0.000000
      5          1           0        0.706736   -3.458070    0.000000
      6          1           0       -0.849705   -3.090986    0.000000
 ---------------------------------------------------------------------

 SCF Done:  E(RHF) =  -152.108323969     A.U. after   10 cycles
 E2 =    -0.5258188803D+00 EUMP2 =    -0.15263414284910D+03
 CCSD(T)
 CCSD(T)= -0.15266134168D+03

 The electronic state is 1-A'.
 Alpha  occ. eigenvalues --  -20.56192 -20.54968  -1.33493  -1.32275  -0.70899
 Alpha  occ. eigenvalues --   -0.69675  -0.56982  -0.55743  -0.50611  -0.49397
 Alpha virt. eigenvalues --    0.13323   0.14914   0.19658   0.21049   0.53612
 Alpha virt. eigenvalues --    0.54856   0.56647   0.57788   0.66837   0.68751
 Alpha virt. eigenvalues --    0.78277   0.79461   0.79573   0.80254   0.82650

 Mulliken charges:
               1
     1  O   -0.513265
     2  H    0.260304
     3  H    0.252830
     4  O   -0.514112
     5  H    0.258495
     6  H    0.255748
 Sum of Mulliken charges =  -0.00000

 Dipole moment (field-independent basis, Debye):
    X=             -2.0444    Y=             -3.1159    Z=              0.0000  Tot=              3.7267
 Quadrupole moment (field-independent basis, Debye-Ang):
   XX=             -9.3617   YY=             -6.3963   ZZ=            -14.7145
   XY=             -4.8903   XZ=              0.0000   YZ=             -0.0000

 Normal termination of Gaussian 16 at Sun Aug 28 03:17:41 2022.
