 Gaussian 16, Revision A.03,
 Gaussian 16:  ES64L-G16RevA.03 25-Dec-2016

 ------------------
 #p CCSD(T)/cc-pVTZ
 ------------------

 ------------
 H2O_H2O_1371
 ------------
 Symbolic Z-matrix:
 Charge =  0 Multiplicity = 1

                         Standard orientation:
 ---------------------------------------------------------------------
 Center     Atomic      Atomic             Coordinates (Angstroms)
 Number     Number       Type             X           Y           Z
 ---------------------------------------------------------------------
      1          8           0       -0.023311    1.645763    0.000000
      2          1           0       -0.019519    0.663169    0.000000
      3          1           0        0.904945    1.968015    0.000000
      4          8           0       -0.023311   -1.475432    0.000000
      5          1           0       -0.986285   -1.670846    0.000000
      6          1           0        0.473843   -2.322985    0.000000
 ---------------------------------------------------------------------

 SCF Done:  E(RHF) =  -152.113776664     A.U. after   10 cycles
 E2 =    -0.5273773519D+00 EUMP2 =    -0.15264115401581D+03
 CCSD(T)
 CCSD(T)= -0.15266813125D+03

 The electronic state is 1-A'.
 Alpha  occ. eigenvalues --  -20.58093 -20.52848  -1.35435  -1.30329  -0.72854
 Alpha  occ. eigenvalues --   -0.68035  -0.59268  -0.53610  -0.52545  -0.47480
 Alpha virt. eigenvalues --    0.12114   0.17828   0.18945   0.29764   0.50152
 Alpha virt. eigenvalues --    0.54404   0.55816   0.61035   0.68764   0.73346
 Alpha virt. eigenvalues --    0.73736   0.77037   0.81670   0.82720   0.84455

 Mulliken charges:
               1
     1  O   -0.549738
     2  H    0.279594
     3  H    0.250530
     4  O   -0.498551
     5  H    0.264401
     6  H    0.253764
 Sum of Mulliken charges =   0.00000

 Dipole moment (field-independent basis, Debye):
    X=              0.7863    Y=             -3.3928    Z=              0.0000  Tot=              3.4827
 Quadrupole moment (field-independent basis, Debye-Ang):
   XX=             -9.3596   YY=             -8.4897   ZZ=            -14.7319
   XY=              4.1062   XZ=              0.0000   YZ=              0.0000

 Normal termination of Gaussian 16 at Sat Aug 27 00:10:45 2022.
