 Gaussian 16, Revision A.03,
 Gaussian 16:  ES64L-G16RevA.03 25-Dec-2016

 ------------------
 #p CCSD(T)/cc-pVTZ
 ------------------

 ------------
 H2O_H2O_1033
 ------------
 Symbolic Z-matrix:
 Charge =  0 Multiplicity = 1

                         Standard orientation:
 ---------------------------------------------------------------------
 Center     Atomic      Atomic             Coordinates (Angstroms)
 Number     Number       Type             X           Y           Z
 ---------------------------------------------------------------------
      1          8           0        0.070241    1.516033    0.000000
      2          1           0        0.068892    0.533432    0.000000
      3          1           0       -0.858813    1.835976   -0.000000
      4          8           0        0.070241   -1.345859    0.000000
      5          1           0        0.560374   -2.197491    0.000000
      6          1           0       -0.894315   -1.533308   -0.000000
 ---------------------------------------------------------------------

 SCF Done:  E(RHF) =  -152.111857812     A.U. after   10 cycles
 E2 =    -0.5287540710D+00 EUMP2 =    -0.15264061188345D+03
 CCSD(T)
 CCSD(T)= -0.15266748937D+03

 The electronic state is 1-A'.
 Alpha  occ. eigenvalues --  -20.58743 -20.52155  -1.36254  -1.29779  -0.73686
 Alpha  occ. eigenvalues --   -0.68132  -0.59630  -0.53283  -0.52861  -0.46875
 Alpha virt. eigenvalues --    0.11666   0.17189   0.19576   0.31402   0.48328
 Alpha virt. eigenvalues --    0.54591   0.58684   0.59313   0.69750   0.72704
 Alpha virt. eigenvalues --    0.73827   0.76710   0.81829   0.82428   0.84310

 Mulliken charges:
               1
     1  O   -0.555766
     2  H    0.293224
     3  H    0.235189
     4  O   -0.474265
     5  H    0.251083
     6  H    0.250536
 Sum of Mulliken charges =  -0.00000

 Dipole moment (field-independent basis, Debye):
    X=             -2.3158    Y=             -3.5586    Z=             -0.0000  Tot=              4.2458
 Quadrupole moment (field-independent basis, Debye-Ang):
   XX=             -9.7091   YY=             -8.7601   ZZ=            -14.7177
   XY=             -3.0681   XZ=             -0.0000   YZ=             -0.0000

 CCSD(T)=-152.6674894\RMSD=7.713e-09\PG=CS [SG(H4O2)]\\@
 Normal termination of Gaussian 16 at Fri Aug 26 22:02:28 2022.
