 Gaussian 16, Revision A.03,
 Gaussian 16:  ES64L-G16RevA.03 25-Dec-2016

 ------------------
 #p CCSD(T)/cc-pVTZ
 ------------------

 ------------
 H2O_H2O_2813
 ------------
 Symbolic Z-matrix:
 Charge =  0 Multiplicity = 1

                         Standard orientation:
 ---------------------------------------------------------------------
 Center     Atomic      Atomic             Coordinates (Angstroms)
 Number     Number       Type             X           Y           Z
 ---------------------------------------------------------------------
      1          8           0        0.052307    2.229313    0.000000
      2          1           0        0.050694    1.246713    0.000000
      3          1           0       -0.876662    2.549504    0.000000
      4          8           0        0.052307   -2.049432   -0.000000
      5          1           0        0.790001   -2.698517   -0.000000
      6          1           0       -0.800939   -2.536749   -0.000000
 ---------------------------------------------------------------------

 SCF Done:  E(RHF) =  -152.110159044     A.U. after   10 cycles
 E2 =    -0.5259941529D+00 EUMP2 =    -0.15263615319726D+03
 CCSD(T)
 CCSD(T)= -0.15266328382D+03

 The electronic state is 1-A'.
 Alpha  occ. eigenvalues --  -20.56753 -20.54339  -1.34025  -1.31663  -0.71425
 Alpha  occ. eigenvalues --   -0.69054  -0.57582  -0.55149  -0.51156  -0.48800
 Alpha virt. eigenvalues --    0.12417   0.16108   0.19416   0.23135   0.53042
 Alpha virt. eigenvalues --    0.55555   0.56268   0.58808   0.68901   0.69407
 Alpha virt. eigenvalues --    0.77706   0.79067   0.79595   0.80029   0.83368

 Mulliken charges:
               1
     1  O   -0.520014
     2  H    0.265226
     3  H    0.250827
     4  O   -0.512895
     5  H    0.260292
     6  H    0.256565
 Sum of Mulliken charges =  -0.00000

 Dipole moment (field-independent basis, Debye):
    X=             -1.7811    Y=             -3.2596    Z=             -0.0000  Tot=              3.7145
 Quadrupole moment (field-independent basis, Debye-Ang):
   XX=             -9.2270   YY=             -7.3228   ZZ=            -14.7207
   XY=             -4.3974   XZ=             -0.0000   YZ=             -0.0000

 Normal termination of Gaussian 16 at Fri Aug 26 17:29:53 2022.
