 Gaussian 16, Revision A.03,
 Gaussian 16:  ES64L-G16RevA.03 25-Dec-2016

 ------------------
 #p CCSD(T)/cc-pVTZ
 ------------------

 ------------
 H2O_H2O_4572
 ------------
 Symbolic Z-matrix:
 Charge =  0 Multiplicity = 1

                         Standard orientation:
 ---------------------------------------------------------------------
 Center     Atomic      Atomic             Coordinates (Angstroms)
 Number     Number       Type             X           Y           Z
 ---------------------------------------------------------------------
      1          8           0       -0.019814    2.920422    0.000000
      2          1           0       -0.017628    1.937823    0.000000
      3          1           0        0.908967    3.241156    0.000000
      4          8           0       -0.019814   -2.753296    0.000000
      5          1           0       -0.993722   -2.883719    0.000000
      6          1           0        0.419407   -3.632267    0.000000
 ---------------------------------------------------------------------

 SCF Done:  E(RHF) =  -152.108419710     A.U. after   10 cycles
 E2 =    -0.5257987903D+00 EUMP2 =    -0.15263421850065D+03
 CCSD(T)
 CCSD(T)= -0.15266141681D+03

 The electronic state is 1-A'.
 Alpha  occ. eigenvalues --  -20.56167 -20.55046  -1.33470  -1.32353  -0.70875
 Alpha  occ. eigenvalues --   -0.69759  -0.56962  -0.55826  -0.50589  -0.49477
 Alpha virt. eigenvalues --    0.13309   0.14878   0.19523   0.21160   0.53517
 Alpha virt. eigenvalues --    0.54883   0.56681   0.57773   0.66879   0.68633
 Alpha virt. eigenvalues --    0.78296   0.79381   0.79552   0.80630   0.82405

 Mulliken charges:
               1
     1  O   -0.514238
     2  H    0.259511
     3  H    0.254634
     4  O   -0.514770
     5  H    0.257154
     6  H    0.257709
 Sum of Mulliken charges =  -0.00000

 Dipole moment (field-independent basis, Debye):
    X=              0.6809    Y=             -2.9306    Z=              0.0000  Tot=              3.0086
 Quadrupole moment (field-independent basis, Debye-Ang):
   XX=             -9.4476   YY=             -6.9537   ZZ=            -14.7148
   XY=              7.4252   XZ=              0.0000   YZ=              0.0000

 Normal termination of Gaussian 16 at Sun Aug 28 04:01:57 2022.
