 Gaussian 16, Revision A.03,
 Gaussian 16:  ES64L-G16RevA.03 25-Dec-2016

 ------------------
 #p CCSD(T)/cc-pVTZ
 ------------------

 -----------
 H2O_H2O_674
 -----------
 Symbolic Z-matrix:
 Charge =  0 Multiplicity = 1

                         Standard orientation:
 ---------------------------------------------------------------------
 Center     Atomic      Atomic             Coordinates (Angstroms)
 Number     Number       Type             X           Y           Z
 ---------------------------------------------------------------------
      1          8           0        0.013704   -1.360509    0.000000
      2          1           0        0.008443   -0.377922    0.000000
      3          1           0       -0.914069   -1.684148    0.000000
      4          8           0        0.013704    1.201311    0.000000
      5          1           0        0.996292    1.206571    0.000000
      6          1           0       -0.309935    2.129084    0.000000
 ---------------------------------------------------------------------

 SCF Done:  E(RHF) =  -152.104874994     A.U. after   10 cycles
 E2 =    -0.5306621339D+00 EUMP2 =    -0.15263553712808D+03
 CCSD(T)
 CCSD(T)= -0.15266214513D+03

 The electronic state is 1-A'.
 Alpha  occ. eigenvalues --  -20.59515 -20.50606  -1.37680  -1.28654  -0.75707
 Alpha  occ. eigenvalues --   -0.68202  -0.60010  -0.54410  -0.51145  -0.45708
 Alpha virt. eigenvalues --    0.11756   0.18177   0.19287   0.33652   0.48120
 Alpha virt. eigenvalues --    0.53587   0.57415   0.67064   0.68615   0.72077
 Alpha virt. eigenvalues --    0.74610   0.76302   0.79589   0.83734   0.83979

 Mulliken charges:
               1
     1  O   -0.598757
     2  H    0.294754
     3  H    0.246753
     4  O   -0.434296
     5  H    0.257484
     6  H    0.234062
 Sum of Mulliken charges =  -0.00000

 Dipole moment (field-independent basis, Debye):
    X=             -0.4600    Y=              3.6541    Z=              0.0000  Tot=              3.6829
 Quadrupole moment (field-independent basis, Debye-Ang):
   XX=             -9.6102   YY=             -9.1908   ZZ=            -14.6835
   XY=              3.6201   XZ=              0.0000   YZ=              0.0000

 Normal termination of Gaussian 16 at Fri Aug 26 19:46:27 2022.
