 Gaussian 16, Revision A.03,
 Gaussian 16:  ES64L-G16RevA.03 25-Dec-2016

 ------------------
 #p CCSD(T)/cc-pVTZ
 ------------------

 ------------
 H2O_H2O_2023
 ------------
 Symbolic Z-matrix:
 Charge =  0 Multiplicity = 1

                         Standard orientation:
 ---------------------------------------------------------------------
 Center     Atomic      Atomic             Coordinates (Angstroms)
 Number     Number       Type             X           Y           Z
 ---------------------------------------------------------------------
      1          8           0       -0.016685    1.901249    0.000000
      2          1           0       -0.013125    0.918654    0.000000
      3          1           0        0.911648    2.223280    0.000000
      4          8           0       -0.016685   -1.737883    0.000000
      5          1           0       -0.996944   -1.805699    0.000000
      6          1           0        0.365373   -2.643166    0.000000
 ---------------------------------------------------------------------

 SCF Done:  E(RHF) =  -152.111906816     A.U. after   10 cycles
 E2 =    -0.5263761481D+00 EUMP2 =    -0.15263828296426D+03
 CCSD(T)
 CCSD(T)= -0.15266535901D+03

 The electronic state is 1-A'.
 Alpha  occ. eigenvalues --  -20.57280 -20.53988  -1.34555  -1.31342  -0.71981
 Alpha  occ. eigenvalues --   -0.68768  -0.58221  -0.54804  -0.51685  -0.48495
 Alpha virt. eigenvalues --    0.12196   0.16890   0.19235   0.26207   0.52832
 Alpha virt. eigenvalues --    0.54608   0.55999   0.59050   0.68786   0.72937
 Alpha virt. eigenvalues --    0.76248   0.78613   0.80485   0.83420   0.83819

 Mulliken charges:
               1
     1  O   -0.530493
     2  H    0.267043
     3  H    0.253952
     4  O   -0.509557
     5  H    0.260894
     6  H    0.258161
 Sum of Mulliken charges =  -0.00000

 Dipole moment (field-independent basis, Debye):
    X=              0.5722    Y=             -3.0639    Z=              0.0000  Tot=              3.1168
 Quadrupole moment (field-independent basis, Debye-Ang):
   XX=             -9.5448   YY=             -8.2318   ZZ=            -14.7267
   XY=              4.9855   XZ=              0.0000   YZ=              0.0000

 Normal termination of Gaussian 16 at Sun Aug 28 03:41:21 2022.
