 Gaussian 16, Revision A.03,
 Gaussian 16:  ES64L-G16RevA.03 25-Dec-2016

 ------------------
 #p CCSD(T)/cc-pVTZ
 ------------------

 ------------
 H2O_H2O_4542
 ------------
 Symbolic Z-matrix:
 Charge =  0 Multiplicity = 1

                         Standard orientation:
 ---------------------------------------------------------------------
 Center     Atomic      Atomic             Coordinates (Angstroms)
 Number     Number       Type             X           Y           Z
 ---------------------------------------------------------------------
      1          8           0        0.037408    2.916894   -0.000000
      2          1           0        0.035742    1.934294   -0.000000
      3          1           0       -0.891543    3.237137    0.000000
      4          8           0        0.037408   -2.737899   -0.000000
      5          1           0        0.917939   -3.173986   -0.000000
      6          1           0       -0.660673   -3.429410    0.000000
 ---------------------------------------------------------------------

 SCF Done:  E(RHF) =  -152.108451596     A.U. after   10 cycles
 E2 =    -0.5258022126D+00 EUMP2 =    -0.15263425380855D+03
 CCSD(T)
 CCSD(T)= -0.15266145063D+03

 The electronic state is 1-A'.
 Alpha  occ. eigenvalues --  -20.56175 -20.54955  -1.33477  -1.32263  -0.70881
 Alpha  occ. eigenvalues --   -0.69666  -0.56972  -0.55735  -0.50596  -0.49387
 Alpha virt. eigenvalues --    0.13383   0.14924   0.19695   0.21044   0.53651
 Alpha virt. eigenvalues --    0.54855   0.56676   0.57799   0.66854   0.68728
 Alpha virt. eigenvalues --    0.78290   0.79469   0.79645   0.80229   0.82642

 Mulliken charges:
               1
     1  O   -0.514180
     2  H    0.260318
     3  H    0.253745
     4  O   -0.514834
     5  H    0.257961
     6  H    0.256989
 Sum of Mulliken charges =  -0.00000

 Dipole moment (field-independent basis, Debye):
    X=             -1.2833    Y=             -3.1408    Z=              0.0000  Tot=              3.3929
 Quadrupole moment (field-independent basis, Debye-Ang):
   XX=             -9.1596   YY=             -6.2680   ZZ=            -14.7149
   XY=             -6.2591   XZ=             -0.0000   YZ=              0.0000

 Normal termination of Gaussian 16 at Sun Aug 28 03:44:01 2022.
