 Gaussian 16, Revision A.03,
 Gaussian 16:  ES64L-G16RevA.03 25-Dec-2016

 ------------------
 #p CCSD(T)/cc-pVTZ
 ------------------

 -----------
 H2O_H2O_561
 -----------
 Symbolic Z-matrix:
 Charge =  0 Multiplicity = 1

                         Standard orientation:
 ---------------------------------------------------------------------
 Center     Atomic      Atomic             Coordinates (Angstroms)
 Number     Number       Type             X           Y           Z
 ---------------------------------------------------------------------
      1          8           0        0.059734    1.330453    0.000000
      2          1           0        0.057457    0.347854    0.000000
      3          1           0       -0.869019    1.651272    0.000000
      4          8           0        0.059734   -1.153133   -0.000000
      5          1           0        0.705895   -1.893390   -0.000000
      6          1           0       -0.850070   -1.524297   -0.000000
 ---------------------------------------------------------------------

 SCF Done:  E(RHF) =  -152.102554582     A.U. after   11 cycles
 E2 =    -0.5314374243D+00 EUMP2 =    -0.15263399200636D+03
 CCSD(T)
 CCSD(T)= -0.15266044512D+03

 The electronic state is 1-A'.
 Alpha  occ. eigenvalues --  -20.60034 -20.49394  -1.38332  -1.27709  -0.75256
 Alpha  occ. eigenvalues --   -0.70472  -0.58765  -0.55031  -0.50002  -0.44675
 Alpha virt. eigenvalues --    0.11281   0.17307   0.19922   0.33288   0.47840
 Alpha virt. eigenvalues --    0.53674   0.61050   0.61922   0.71157   0.72268
 Alpha virt. eigenvalues --    0.73419   0.78379   0.80812   0.83140   0.84178

 Mulliken charges:
               1
     1  O   -0.602047
     2  H    0.311545
     3  H    0.224617
     4  O   -0.436940
     5  H    0.254065
     6  H    0.248760
 Sum of Mulliken charges =  -0.00000

 Dipole moment (field-independent basis, Debye):
    X=             -1.9137    Y=             -4.1593    Z=             -0.0000  Tot=              4.5784
 Quadrupole moment (field-independent basis, Debye-Ang):
   XX=             -9.3608   YY=             -9.3215   ZZ=            -14.6788
   XY=             -3.0012   XZ=             -0.0000   YZ=              0.0000

 Normal termination of Gaussian 16 at Fri Aug 26 19:04:55 2022.
