 Gaussian 16, Revision A.03,
 Gaussian 16:  ES64L-G16RevA.03 25-Dec-2016

 ------------------
 #p CCSD(T)/cc-pVTZ
 ------------------

 ------------
 H2O_H2O_1909
 ------------
 Symbolic Z-matrix:
 Charge =  0 Multiplicity = 1

                         Standard orientation:
 ---------------------------------------------------------------------
 Center     Atomic      Atomic             Coordinates (Angstroms)
 Number     Number       Type             X           Y           Z
 ---------------------------------------------------------------------
      1          8           0        0.066784    1.866621    0.000000
      2          1           0        0.065535    0.884021    0.000000
      3          1           0       -0.862303    2.186469   -0.000000
      4          8           0        0.066784   -1.693553    0.000000
      5          1           0        0.611649   -2.511250    0.000000
      6          1           0       -0.883422   -1.943784   -0.000000
 ---------------------------------------------------------------------

 SCF Done:  E(RHF) =  -152.111856327     A.U. after   10 cycles
 E2 =    -0.5265945433D+00 EUMP2 =    -0.15263845087048D+03
 CCSD(T)
 CCSD(T)= -0.15266551626D+03

 The electronic state is 1-A'.
 Alpha  occ. eigenvalues --  -20.57448 -20.53775  -1.34709  -1.31133  -0.72115
 Alpha  occ. eigenvalues --   -0.68552  -0.58376  -0.54569  -0.51838  -0.48275
 Alpha virt. eigenvalues --    0.12022   0.16823   0.19330   0.26457   0.51149
 Alpha virt. eigenvalues --    0.55427   0.56217   0.58643   0.69075   0.72667
 Alpha virt. eigenvalues --    0.75918   0.77816   0.80705   0.83307   0.83971

 Mulliken charges:
               1
     1  O   -0.526700
     2  H    0.269607
     3  H    0.245767
     4  O   -0.505060
     5  H    0.261489
     6  H    0.254898
 Sum of Mulliken charges =  -0.00000

 Dipole moment (field-independent basis, Debye):
    X=             -2.2533    Y=             -3.2728    Z=             -0.0000  Tot=              3.9735
 Quadrupole moment (field-independent basis, Debye-Ang):
   XX=             -9.5776   YY=             -8.0754   ZZ=            -14.7271
   XY=             -3.4878   XZ=             -0.0000   YZ=             -0.0000

 Normal termination of Gaussian 16 at Sun Aug 28 02:43:58 2022.
