 Gaussian 16, Revision A.03,
 Gaussian 16:  ES64L-G16RevA.03 25-Dec-2016

 ------------------
 #p CCSD(T)/cc-pVTZ
 ------------------

 ------------
 H2O_H2O_1732
 ------------
 Symbolic Z-matrix:
 Charge =  0 Multiplicity = 1

                         Standard orientation:
 ---------------------------------------------------------------------
 Center     Atomic      Atomic             Coordinates (Angstroms)
 Number     Number       Type             X           Y           Z
 ---------------------------------------------------------------------
      1          8           0        0.073556    1.793470    0.000000
      2          1           0        0.072592    0.810869    0.000000
      3          1           0       -0.855624    2.113048    0.000000
      4          8           0        0.073556   -1.626564    0.000000
      5          1           0        0.507285   -2.508258    0.000000
      6          1           0       -0.901146   -1.750909    0.000000
 ---------------------------------------------------------------------

 SCF Done:  E(RHF) =  -152.111786725     A.U. after   10 cycles
 E2 =    -0.5268712954D+00 EUMP2 =    -0.15263865802024D+03
 CCSD(T)
 CCSD(T)= -0.15266571311D+03

 The electronic state is 1-A'.
 Alpha  occ. eigenvalues --  -20.57631 -20.53735  -1.34911  -1.31105  -0.72347
 Alpha  occ. eigenvalues --   -0.68536  -0.58577  -0.54510  -0.52028  -0.48240
 Alpha virt. eigenvalues --    0.11885   0.16795   0.19484   0.27205   0.50473
 Alpha virt. eigenvalues --    0.55378   0.56560   0.58450   0.69302   0.73403
 Alpha virt. eigenvalues --    0.75214   0.77593   0.80833   0.83085   0.83925

 Mulliken charges:
               1
     1  O   -0.527533
     2  H    0.271425
     3  H    0.243711
     4  O   -0.501164
     5  H    0.260019
     6  H    0.253543
 Sum of Mulliken charges =  -0.00000

 Dipole moment (field-independent basis, Debye):
    X=             -2.4736    Y=             -3.1954    Z=             -0.0000  Tot=              4.0410
 Quadrupole moment (field-independent basis, Debye-Ang):
   XX=             -9.8362   YY=             -8.3020   ZZ=            -14.7265
   XY=             -3.1978   XZ=             -0.0000   YZ=             -0.0000

 0499\MP4DQ=-152.6474397\MP4SDQ=-152.6505513\CCSD=-152.6499312\CCSD(T)=
 Normal termination of Gaussian 16 at Sun Aug 28 01:02:07 2022.
