 Gaussian 16, Revision A.03,
 Gaussian 16:  ES64L-G16RevA.03 25-Dec-2016

 ------------------
 #p CCSD(T)/cc-pVTZ
 ------------------

 ------------
 H2O_H2O_1301
 ------------
 Symbolic Z-matrix:
 Charge =  0 Multiplicity = 1

                         Standard orientation:
 ---------------------------------------------------------------------
 Center     Atomic      Atomic             Coordinates (Angstroms)
 Number     Number       Type             X           Y           Z
 ---------------------------------------------------------------------
      1          8           0        0.090687   -1.608625    0.000000
      2          1           0        0.090562   -0.626023    0.000000
      3          1           0       -0.838765   -1.927409    0.000000
      4          8           0        0.090687    1.469924    0.000000
      5          1           0        0.154829    2.450429    0.000000
      6          1           0       -0.857625    1.212610    0.000000
 ---------------------------------------------------------------------

 SCF Done:  E(RHF) =  -152.108969396     A.U. after   10 cycles
 E2 =    -0.5282085480D+00 EUMP2 =    -0.15263717794392D+03
 CCSD(T)
 CCSD(T)= -0.15266422956D+03

 The electronic state is 1-A'.
 Alpha  occ. eigenvalues --  -20.58157 -20.54008  -1.35589  -1.31414  -0.73456
 Alpha  occ. eigenvalues --   -0.68649  -0.59051  -0.54723  -0.52608  -0.48503
 Alpha virt. eigenvalues --    0.11508   0.16407   0.20440   0.28961   0.49139
 Alpha virt. eigenvalues --    0.53994   0.57878   0.58895   0.68075   0.72911
 Alpha virt. eigenvalues --    0.74309   0.77892   0.80900   0.81475   0.83324

 Mulliken charges:
               1
     1  O   -0.526575
     2  H    0.276849
     3  H    0.236791
     4  O   -0.470300
     5  H    0.243699
     6  H    0.239536
 Sum of Mulliken charges =  -0.00000

 Dipole moment (field-independent basis, Debye):
    X=             -3.0138    Y=              2.7736    Z=              0.0000  Tot=              4.0959
 Quadrupole moment (field-independent basis, Debye-Ang):
   XX=            -10.7555   YY=             -9.0339   ZZ=            -14.7075
   XY=              2.2726   XZ=              0.0000   YZ=              0.0000

 Normal termination of Gaussian 16 at Fri Aug 26 23:42:16 2022.
