 Gaussian 16, Revision A.03,
 Gaussian 16:  ES64L-G16RevA.03 25-Dec-2016

 ------------------
 #p CCSD(T)/cc-pVTZ
 ------------------

 ------------
 H2O_H2O_1080
 ------------
 Symbolic Z-matrix:
 Charge =  0 Multiplicity = 1

                         Standard orientation:
 ---------------------------------------------------------------------
 Center     Atomic      Atomic             Coordinates (Angstroms)
 Number     Number       Type             X           Y           Z
 ---------------------------------------------------------------------
      1          8           0        0.079874   -1.529914    0.000000
      2          1           0        0.079108   -0.547313    0.000000
      3          1           0       -0.849370   -1.849305    0.000000
      4          8           0        0.079874    1.370898    0.000000
      5          1           0        0.394996    2.301599    0.000000
      6          1           0       -0.902720    1.367152    0.000000
 ---------------------------------------------------------------------

 SCF Done:  E(RHF) =  -152.110609412     A.U. after   10 cycles
 E2 =    -0.5287426985D+00 EUMP2 =    -0.15263935211009D+03
 CCSD(T)
 CCSD(T)= -0.15266627958D+03

 The electronic state is 1-A'.
 Alpha  occ. eigenvalues --  -20.58606 -20.52766  -1.36117  -1.30317  -0.73778
 Alpha  occ. eigenvalues --   -0.68176  -0.59530  -0.53475  -0.53127  -0.47408
 Alpha virt. eigenvalues --    0.11595   0.16824   0.19910   0.30778   0.48493
 Alpha virt. eigenvalues --    0.54383   0.58544   0.59346   0.69322   0.72634
 Alpha virt. eigenvalues --    0.74576   0.77003   0.81430   0.82073   0.83860

 Mulliken charges:
               1
     1  O   -0.545717
     2  H    0.287328
     3  H    0.234402
     4  O   -0.462930
     5  H    0.241589
     6  H    0.245329
 Sum of Mulliken charges =  -0.00000

 Dipole moment (field-independent basis, Debye):
    X=             -2.6370    Y=              3.2959    Z=              0.0000  Tot=              4.2210
 Quadrupole moment (field-independent basis, Debye-Ang):
   XX=            -10.1395   YY=             -8.8112   ZZ=            -14.7114
   XY=              2.7931   XZ=              0.0000   YZ=              0.0000

 CCSD(T)=-152.6662796\RMSD=7.655e-09\PG=CS [SG(H4O2)]\\@
 Normal termination of Gaussian 16 at Fri Aug 26 22:20:17 2022.
