 Gaussian 16, Revision A.03,
 Gaussian 16:  ES64L-G16RevA.03 25-Dec-2016

 ------------------
 #p CCSD(T)/cc-pVTZ
 ------------------

 ------------
 H2O_H2O_3621
 ------------
 Symbolic Z-matrix:
 Charge =  0 Multiplicity = 1

                         Standard orientation:
 ---------------------------------------------------------------------
 Center     Atomic      Atomic             Coordinates (Angstroms)
 Number     Number       Type             X           Y           Z
 ---------------------------------------------------------------------
      1          8           0       -0.023191    2.543265    0.000000
      2          1           0       -0.020783    1.560667    0.000000
      3          1           0        0.905518    2.864209    0.000000
      4          8           0       -0.023191   -2.372869    0.000000
      5          1           0       -0.986440   -2.566926    0.000000
      6          1           0        0.472768   -3.221122    0.000000
 ---------------------------------------------------------------------

 SCF Done:  E(RHF) =  -152.109107999     A.U. after   10 cycles
 E2 =    -0.5258331954D+00 EUMP2 =    -0.15263494119405D+03
 CCSD(T)
 CCSD(T)= -0.15266211409D+03

 The electronic state is 1-A'.
 Alpha  occ. eigenvalues --  -20.56390 -20.54781  -1.33685  -1.32094  -0.71089
 Alpha  occ. eigenvalues --   -0.69498  -0.57202  -0.55578  -0.50809  -0.49224
 Alpha virt. eigenvalues --    0.12718   0.15443   0.19404   0.21887   0.53319
 Alpha virt. eigenvalues --    0.55223   0.56556   0.57933   0.66860   0.69241
 Alpha virt. eigenvalues --    0.78091   0.78811   0.79618   0.80304   0.82936

 Mulliken charges:
               1
     1  O   -0.516918
     2  H    0.261733
     3  H    0.254238
     4  O   -0.516160
     5  H    0.258499
     6  H    0.258608
 Sum of Mulliken charges =  -0.00000

 Dipole moment (field-independent basis, Debye):
    X=              0.7947    Y=             -3.0238    Z=              0.0000  Tot=              3.1264
 Quadrupole moment (field-independent basis, Debye-Ang):
   XX=             -9.3613   YY=             -7.2347   ZZ=            -14.7172
   XY=              6.2788   XZ=              0.0000   YZ=              0.0000

 Normal termination of Gaussian 16 at Fri Aug 26 22:43:44 2022.
