 Gaussian 16, Revision A.03,
 Gaussian 16:  ES64L-G16RevA.03 25-Dec-2016

 ------------------
 #p CCSD(T)/cc-pVTZ
 ------------------

 -----------
 H2O_H2O_355
 -----------
 Symbolic Z-matrix:
 Charge =  0 Multiplicity = 1

                         Standard orientation:
 ---------------------------------------------------------------------
 Center     Atomic      Atomic             Coordinates (Angstroms)
 Number     Number       Type             X           Y           Z
 ---------------------------------------------------------------------
      1          8           0        0.079890   -1.240713    0.000000
      2          1           0        0.078933   -0.258112    0.000000
      3          1           0       -0.849293   -1.560284    0.000000
      4          8           0        0.079890    1.081727    0.000000
      5          1           0        0.394831    2.012490    0.000000
      6          1           0       -0.902704    1.077791    0.000000
 ---------------------------------------------------------------------

 SCF Done:  E(RHF) =  -152.083463852     A.U. after   11 cycles
 E2 =    -0.5342348795D+00 EUMP2 =    -0.15261769873124D+03
 CCSD(T)
 CCSD(T)= -0.15264388251D+03

 The electronic state is 1-A'.
 Alpha  occ. eigenvalues --  -20.60656 -20.48918  -1.40063  -1.27547  -0.78395
 Alpha  occ. eigenvalues --   -0.70463  -0.58058  -0.56089  -0.49560  -0.44427
 Alpha virt. eigenvalues --    0.10958   0.16445   0.20830   0.32726   0.48880
 Alpha virt. eigenvalues --    0.52395   0.59540   0.64697   0.71851   0.72714
 Alpha virt. eigenvalues --    0.75330   0.77676   0.79441   0.83841   0.84930

 Mulliken charges:
               1
     1  O   -0.598125
     2  H    0.290233
     3  H    0.209663
     4  O   -0.369185
     5  H    0.231493
     6  H    0.235921
 Sum of Mulliken charges =  -0.00000

 Dipole moment (field-independent basis, Debye):
    X=             -2.5201    Y=              4.0220    Z=              0.0000  Tot=              4.7463
 Quadrupole moment (field-independent basis, Debye-Ang):
   XX=            -10.1043   YY=             -9.5407   ZZ=            -14.6178
   XY=              2.5587   XZ=              0.0000   YZ=              0.0000

 Normal termination of Gaussian 16 at Fri Aug 26 17:39:29 2022.
