 Gaussian 16, Revision A.03,
 Gaussian 16:  ES64L-G16RevA.03 25-Dec-2016

 ------------------
 #p CCSD(T)/cc-pVTZ
 ------------------

 ------------
 H2O_H2O_2636
 ------------
 Symbolic Z-matrix:
 Charge =  0 Multiplicity = 1

                         Standard orientation:
 ---------------------------------------------------------------------
 Center     Atomic      Atomic             Coordinates (Angstroms)
 Number     Number       Type             X           Y           Z
 ---------------------------------------------------------------------
      1          8           0        0.059651    2.158177    0.000000
      2          1           0        0.058285    1.175577    0.000000
      3          1           0       -0.869398    2.478136    0.000000
      4          8           0        0.059651   -1.980747   -0.000000
      5          1           0        0.706499   -2.720405   -0.000000
      6          1           0       -0.849808   -2.352753   -0.000000
 ---------------------------------------------------------------------

 SCF Done:  E(RHF) =  -152.110338312     A.U. after   10 cycles
 E2 =    -0.5260700522D+00 EUMP2 =    -0.15263640836374D+03
 CCSD(T)
 CCSD(T)= -0.15266352991D+03

 The electronic state is 1-A'.
 Alpha  occ. eigenvalues --  -20.56859 -20.54282  -1.34127  -1.31607  -0.71529
 Alpha  occ. eigenvalues --   -0.68995  -0.57692  -0.55089  -0.51258  -0.48745
 Alpha virt. eigenvalues --    0.12297   0.16233   0.19385   0.23618   0.52983
 Alpha virt. eigenvalues --    0.55643   0.56148   0.58914   0.68987   0.69999
 Alpha virt. eigenvalues --    0.77540   0.78924   0.80095   0.80246   0.83441

 Mulliken charges:
               1
     1  O   -0.520428
     2  H    0.265780
     3  H    0.249714
     4  O   -0.511096
     5  H    0.260248
     6  H    0.255782
 Sum of Mulliken charges =  -0.00000

 Dipole moment (field-independent basis, Debye):
    X=             -2.0284    Y=             -3.2347    Z=             -0.0000  Tot=              3.8181
 Quadrupole moment (field-independent basis, Debye-Ang):
   XX=             -9.3669   YY=             -7.5137   ZZ=            -14.7211
   XY=             -4.0358   XZ=             -0.0000   YZ=              0.0000

 CCSD(T)=-152.6635299\RMSD=6.777e-09\PG=CS [SG(H4O2)]\\@
 Normal termination of Gaussian 16 at Fri Aug 26 16:12:23 2022.
