 Gaussian 16, Revision A.03,
 Gaussian 16:  ES64L-G16RevA.03 25-Dec-2016

 ------------------
 #p CCSD(T)/cc-pVTZ
 ------------------

 ------------
 H2O_H2O_2969
 ------------
 Symbolic Z-matrix:
 Charge =  0 Multiplicity = 1

                         Standard orientation:
 ---------------------------------------------------------------------
 Center     Atomic      Atomic             Coordinates (Angstroms)
 Number     Number       Type             X           Y           Z
 ---------------------------------------------------------------------
      1          8           0        0.030195    2.286824    0.000000
      2          1           0        0.027773    1.304225    0.000000
      3          1           0       -0.898510    2.607780    0.000000
      4          8           0        0.030195   -2.111220   -0.000000
      5          1           0        0.959869   -2.429360   -0.000000
      6          1           0       -0.572251   -2.887471   -0.000000
 ---------------------------------------------------------------------

 SCF Done:  E(RHF) =  -152.110021604     A.U. after   10 cycles
 E2 =    -0.5259297007D+00 EUMP2 =    -0.15263595130492D+03
 CCSD(T)
 CCSD(T)= -0.15266309013D+03

 The electronic state is 1-A'.
 Alpha  occ. eigenvalues --  -20.56656 -20.54457  -1.33935  -1.31779  -0.71336
 Alpha  occ. eigenvalues --   -0.69180  -0.57486  -0.55270  -0.51066  -0.48917
 Alpha virt. eigenvalues --    0.12460   0.15986   0.19390   0.22875   0.53326
 Alpha virt. eigenvalues --    0.55526   0.56425   0.58470   0.68362   0.69345
 Alpha virt. eigenvalues --    0.77820   0.78980   0.79837   0.79911   0.83251

 Mulliken charges:
               1
     1  O   -0.520383
     2  H    0.264212
     3  H    0.253118
     4  O   -0.514777
     5  H    0.259705
     6  H    0.258125
 Sum of Mulliken charges =  -0.00000

 Dipole moment (field-independent basis, Debye):
    X=             -1.0306    Y=             -3.1649    Z=             -0.0000  Tot=              3.3285
 Quadrupole moment (field-independent basis, Debye-Ang):
   XX=             -9.2294   YY=             -7.3703   ZZ=            -14.7203
   XY=             -5.3461   XZ=             -0.0000   YZ=              0.0000

 CCSD(T)=-152.6630901\RMSD=6.812e-09\PG=CS [SG(H4O2)]\\@
 Normal termination of Gaussian 16 at Fri Aug 26 18:51:33 2022.
