 Gaussian 16, Revision A.03,
 Gaussian 16:  ES64L-G16RevA.03 25-Dec-2016

 ------------------
 #p CCSD(T)/cc-pVTZ
 ------------------

 ------------
 H2O_H2O_4845
 ------------
 Symbolic Z-matrix:
 Charge =  0 Multiplicity = 1

                         Standard orientation:
 ---------------------------------------------------------------------
 Center     Atomic      Atomic             Coordinates (Angstroms)
 Number     Number       Type             X           Y           Z
 ---------------------------------------------------------------------
      1          8           0        0.026606    3.033441   -0.000000
      2          1           0        0.024697    2.050842   -0.000000
      3          1           0       -0.902266    3.353913    0.000000
      4          8           0        0.026606   -2.860185   -0.000000
      5          1           0        0.975230   -3.116344   -0.000000
      6          1           0       -0.523356   -3.674461    0.000000
 ---------------------------------------------------------------------

 SCF Done:  E(RHF) =  -152.108322912     A.U. after   10 cycles
 E2 =    -0.5257996907D+00 EUMP2 =    -0.15263412260277D+03
 CCSD(T)
 CCSD(T)= -0.15266132372D+03

 The electronic state is 1-A'.
 Alpha  occ. eigenvalues --  -20.56125 -20.55053  -1.33428  -1.32360  -0.70833
 Alpha  occ. eigenvalues --   -0.69764  -0.56917  -0.55830  -0.50547  -0.49482
 Alpha virt. eigenvalues --    0.13480   0.14788   0.19673   0.20958   0.53663
 Alpha virt. eigenvalues --    0.54811   0.56714   0.57756   0.67017   0.68517
 Alpha virt. eigenvalues --    0.78337   0.79377   0.79698   0.80578   0.82208

 Mulliken charges:
               1
     1  O   -0.513734
     2  H    0.259368
     3  H    0.254321
     4  O   -0.514266
     5  H    0.257197
     6  H    0.257113
 Sum of Mulliken charges =  -0.00000

 Dipole moment (field-independent basis, Debye):
    X=             -0.9139    Y=             -3.0325    Z=              0.0000  Tot=              3.1672
 Quadrupole moment (field-independent basis, Debye-Ang):
   XX=             -9.2897   YY=             -6.4323   ZZ=            -14.7145
   XY=             -7.2098   XZ=             -0.0000   YZ=              0.0000

 Normal termination of Gaussian 16 at Sun Aug 28 06:20:04 2022.
