 Gaussian 16, Revision A.03,
 Gaussian 16:  ES64L-G16RevA.03 25-Dec-2016

 ------------------
 #p CCSD(T)/cc-pVTZ
 ------------------

 ------------
 H2O_H2O_1998
 ------------
 Symbolic Z-matrix:
 Charge =  0 Multiplicity = 1

                         Standard orientation:
 ---------------------------------------------------------------------
 Center     Atomic      Atomic             Coordinates (Angstroms)
 Number     Number       Type             X           Y           Z
 ---------------------------------------------------------------------
      1          8           0       -0.016686    1.891277    0.000000
      2          1           0       -0.013107    0.908682    0.000000
      3          1           0        0.911640    2.213327    0.000000
      4          8           0       -0.016686   -1.727911    0.000000
      5          1           0       -0.996944   -1.795747    0.000000
      6          1           0        0.365389   -2.633187    0.000000
 ---------------------------------------------------------------------

 SCF Done:  E(RHF) =  -152.111974695     A.U. after   10 cycles
 E2 =    -0.5263983813D+00 EUMP2 =    -0.15263837307584D+03
 CCSD(T)
 CCSD(T)= -0.15266544685D+03

 The electronic state is 1-A'.
 Alpha  occ. eigenvalues --  -20.57303 -20.53963  -1.34579  -1.31319  -0.72006
 Alpha  occ. eigenvalues --   -0.68747  -0.58251  -0.54778  -0.51709  -0.48473
 Alpha virt. eigenvalues --    0.12195   0.16919   0.19233   0.26318   0.52742
 Alpha virt. eigenvalues --    0.54575   0.55989   0.59100   0.68795   0.73020
 Alpha virt. eigenvalues --    0.76165   0.78552   0.80515   0.83399   0.83904

 Mulliken charges:
               1
     1  O   -0.530921
     2  H    0.267225
     3  H    0.253927
     4  O   -0.509374
     5  H    0.261009
     6  H    0.258133
 Sum of Mulliken charges =  -0.00000

 Dipole moment (field-independent basis, Debye):
    X=              0.5722    Y=             -3.0688    Z=              0.0000  Tot=              3.1217
 Quadrupole moment (field-independent basis, Debye-Ang):
   XX=             -9.5449   YY=             -8.2434   ZZ=            -14.7270
   XY=              4.9591   XZ=              0.0000   YZ=              0.0000

 Normal termination of Gaussian 16 at Sun Aug 28 03:25:51 2022.
