 Gaussian 16, Revision A.03,
 Gaussian 16:  ES64L-G16RevA.03 25-Dec-2016

 ------------------
 #p CCSD(T)/cc-pVTZ
 ------------------

 ------------
 H2O_H2O_1289
 ------------
 Symbolic Z-matrix:
 Charge =  0 Multiplicity = 1

                         Standard orientation:
 ---------------------------------------------------------------------
 Center     Atomic      Atomic             Coordinates (Angstroms)
 Number     Number       Type             X           Y           Z
 ---------------------------------------------------------------------
      1          8           0        0.048656    1.621262   -0.000000
      2          1           0        0.046196    0.638664   -0.000000
      3          1           0       -0.880037    1.942255    0.000000
      4          8           0        0.048656   -1.440952   -0.000000
      5          1           0        0.826706   -2.041072   -0.000000
      6          1           0       -0.771357   -1.982326    0.000000
 ---------------------------------------------------------------------

 SCF Done:  E(RHF) =  -152.114139930     A.U. after   10 cycles
 E2 =    -0.5276565422D+00 EUMP2 =    -0.15264179647180D+03
 CCSD(T)
 CCSD(T)= -0.15266874641D+03

 The electronic state is 1-A'.
 Alpha  occ. eigenvalues --  -20.58290 -20.52445  -1.35628  -1.29965  -0.72924
 Alpha  occ. eigenvalues --   -0.67915  -0.59407  -0.53203  -0.52741  -0.47105
 Alpha virt. eigenvalues --    0.11967   0.17802   0.18947   0.30313   0.49203
 Alpha virt. eigenvalues --    0.54762   0.56158   0.60023   0.69155   0.71632
 Alpha virt. eigenvalues --    0.73524   0.76957   0.81971   0.82802   0.84957

 Mulliken charges:
               1
     1  O   -0.550568
     2  H    0.285483
     3  H    0.243516
     4  O   -0.503013
     5  H    0.265836
     6  H    0.258746
 Sum of Mulliken charges =  -0.00000

 Dipole moment (field-independent basis, Debye):
    X=             -1.6216    Y=             -3.6278    Z=              0.0000  Tot=              3.9737
 Quadrupole moment (field-independent basis, Debye-Ang):
   XX=             -9.1872   YY=             -8.4626   ZZ=            -14.7343
   XY=             -3.5820   XZ=             -0.0000   YZ=              0.0000

 Normal termination of Gaussian 16 at Fri Aug 26 23:37:51 2022.
