 Gaussian 16, Revision A.03,
 Gaussian 16:  ES64L-G16RevA.03 25-Dec-2016

 ------------------
 #p CCSD(T)/cc-pVTZ
 ------------------

 ------------
 H2O_H2O_2458
 ------------
 Symbolic Z-matrix:
 Charge =  0 Multiplicity = 1

                         Standard orientation:
 ---------------------------------------------------------------------
 Center     Atomic      Atomic             Coordinates (Angstroms)
 Number     Number       Type             X           Y           Z
 ---------------------------------------------------------------------
      1          8           0        0.070208    2.084460   -0.000000
      2          1           0        0.069242    1.101859   -0.000000
      3          1           0       -0.858971    2.404040   -0.000000
      4          8           0        0.070208   -1.914231    0.000000
      5          1           0        0.560672   -2.765673    0.000000
      6          1           0       -0.894275   -2.102057    0.000000
 ---------------------------------------------------------------------

 SCF Done:  E(RHF) =  -152.110299988     A.U. after   10 cycles
 E2 =    -0.5261862622D+00 EUMP2 =    -0.15263648625025D+03
 CCSD(T)
 CCSD(T)= -0.15266360254D+03

 The electronic state is 1-A'.
 Alpha  occ. eigenvalues --  -20.56974 -20.54308  -1.34243  -1.31634  -0.71655
 Alpha  occ. eigenvalues --   -0.69016  -0.57805  -0.55104  -0.51370  -0.48768
 Alpha virt. eigenvalues --    0.12099   0.16284   0.19415   0.24126   0.53051
 Alpha virt. eigenvalues --    0.55710   0.56047   0.58673   0.68847   0.70794
 Alpha virt. eigenvalues --    0.77303   0.78920   0.80103   0.81209   0.83374

 Mulliken charges:
               1
     1  O   -0.519884
     2  H    0.265919
     3  H    0.248218
     4  O   -0.508471
     5  H    0.259899
     6  H    0.254319
 Sum of Mulliken charges =  -0.00000

 Dipole moment (field-independent basis, Debye):
    X=             -2.3833    Y=             -3.1228    Z=              0.0000  Tot=              3.9284
 Quadrupole moment (field-independent basis, Debye-Ang):
   XX=             -9.6911   YY=             -7.8362   ZZ=            -14.7208
   XY=             -3.5482   XZ=              0.0000   YZ=             -0.0000

 2\MP4DQ=-152.645462\MP4SDQ=-152.6485339\CCSD=-152.6479328\CCSD(T)=-152
 Normal termination of Gaussian 16 at Sun Aug 28 07:28:44 2022.
