 Gaussian 16, Revision A.03,
 Gaussian 16:  ES64L-G16RevA.03 25-Dec-2016

 ------------------
 #p CCSD(T)/cc-pVTZ
 ------------------

 ------------
 H2O_H2O_1810
 ------------
 Symbolic Z-matrix:
 Charge =  0 Multiplicity = 1

                         Standard orientation:
 ---------------------------------------------------------------------
 Center     Atomic      Atomic             Coordinates (Angstroms)
 Number     Number       Type             X           Y           Z
 ---------------------------------------------------------------------
      1          8           0        0.063266    1.828036   -0.000000
      2          1           0        0.061817    0.845436   -0.000000
      3          1           0       -0.865756    2.148073   -0.000000
      4          8           0        0.063266   -1.652572    0.000000
      5          1           0        0.660286   -2.433003    0.000000
      6          1           0       -0.868604   -1.964222    0.000000
 ---------------------------------------------------------------------

 SCF Done:  E(RHF) =  -152.112348948     A.U. after   10 cycles
 E2 =    -0.5266959394D+00 EUMP2 =    -0.15263904488737D+03
 CCSD(T)
 CCSD(T)= -0.15266609606D+03

 The electronic state is 1-A'.
 Alpha  occ. eigenvalues --  -20.57559 -20.53590  -1.34820  -1.30963  -0.72214
 Alpha  occ. eigenvalues --   -0.68411  -0.58523  -0.54385  -0.51951  -0.48107
 Alpha virt. eigenvalues --    0.12037   0.16982   0.19260   0.27035   0.50751
 Alpha virt. eigenvalues --    0.55242   0.56289   0.58799   0.69161   0.72670
 Alpha virt. eigenvalues --    0.75560   0.77413   0.80890   0.83247   0.84188

 Mulliken charges:
               1
     1  O   -0.529488
     2  H    0.271109
     3  H    0.245552
     4  O   -0.505110
     5  H    0.262287
     6  H    0.255649
 Sum of Mulliken charges =  -0.00000

 Dipole moment (field-independent basis, Debye):
    X=             -2.1316    Y=             -3.3434    Z=              0.0000  Tot=              3.9651
 Quadrupole moment (field-independent basis, Debye-Ang):
   XX=             -9.4697   YY=             -8.0948   ZZ=            -14.7293
   XY=             -3.5543   XZ=              0.0000   YZ=             -0.0000

 Normal termination of Gaussian 16 at Sun Aug 28 01:50:50 2022.
