 Gaussian 16, Revision A.03,
 Gaussian 16:  ES64L-G16RevA.03 25-Dec-2016

 ------------------
 #p CCSD(T)/cc-pVTZ
 ------------------

 -----------
 H2O_H2O_194
 -----------
 Symbolic Z-matrix:
 Charge =  0 Multiplicity = 1

                         Standard orientation:
 ---------------------------------------------------------------------
 Center     Atomic      Atomic             Coordinates (Angstroms)
 Number     Number       Type             X           Y           Z
 ---------------------------------------------------------------------
      1          8           0        0.030414    1.179870    0.000000
      2          1           0        0.025537    0.197281    0.000000
      3          1           0       -0.897486    1.503146   -0.000000
      4          8           0        0.030414   -1.004418    0.000000
      5          1           0        0.959290   -1.324880    0.000000
      6          1           0       -0.573970   -1.779162   -0.000000
 ---------------------------------------------------------------------

 SCF Done:  E(RHF) =  -152.066570539     A.U. after   11 cycles
 E2 =    -0.5345710684D+00 EUMP2 =    -0.15260114160776D+03
 CCSD(T)
 CCSD(T)= -0.15262694061D+03

 The electronic state is 1-A'.
 Alpha  occ. eigenvalues --  -20.61413 -20.45696  -1.41860  -1.25334  -0.78758
 Alpha  occ. eigenvalues --   -0.74379  -0.57444  -0.56295  -0.45980  -0.42020
 Alpha virt. eigenvalues --    0.10755   0.17101   0.20611   0.33650   0.46886
 Alpha virt. eigenvalues --    0.52458   0.61157   0.68119   0.70289   0.71473
 Alpha virt. eigenvalues --    0.77610   0.78833   0.80011   0.83584   0.85300

 Mulliken charges:
               1
     1  O   -0.659719
     2  H    0.294625
     3  H    0.219493
     4  O   -0.353451
     5  H    0.261759
     6  H    0.237292
 Sum of Mulliken charges =  -0.00000

 Dipole moment (field-independent basis, Debye):
    X=             -0.9388    Y=             -4.7354    Z=             -0.0000  Tot=              4.8276
 Quadrupole moment (field-independent basis, Debye-Ang):
   XX=             -9.1544   YY=             -9.9503   ZZ=            -14.5966
   XY=             -2.8292   XZ=              0.0000   YZ=             -0.0000

 Normal termination of Gaussian 16 at Fri Aug 26 16:30:47 2022.
