 Gaussian 16, Revision A.03,
 Gaussian 16:  ES64L-G16RevA.03 25-Dec-2016

 ------------------
 #p CCSD(T)/cc-pVTZ
 ------------------

 ------------
 H2O_H2O_2821
 ------------
 Symbolic Z-matrix:
 Charge =  0 Multiplicity = 1

                         Standard orientation:
 ---------------------------------------------------------------------
 Center     Atomic      Atomic             Coordinates (Angstroms)
 Number     Number       Type             X           Y           Z
 ---------------------------------------------------------------------
      1          8           0       -0.023223    2.224157    0.000000
      2          1           0       -0.020455    1.241559    0.000000
      3          1           0        0.905369    2.545439    0.000000
      4          8           0       -0.023223   -2.053777    0.000000
      5          1           0       -0.986400   -2.248186    0.000000
      6          1           0        0.473046   -2.901847    0.000000
 ---------------------------------------------------------------------

 SCF Done:  E(RHF) =  -152.110221204     A.U. after   10 cycles
 E2 =    -0.5259644696D+00 EUMP2 =    -0.15263618567337D+03
 CCSD(T)
 CCSD(T)= -0.15266331739D+03

 The electronic state is 1-A'.
 Alpha  occ. eigenvalues --  -20.56724 -20.54447  -1.34003  -1.31770  -0.71407
 Alpha  occ. eigenvalues --   -0.69175  -0.57562  -0.55263  -0.51134  -0.48911
 Alpha virt. eigenvalues --    0.12346   0.16103   0.19317   0.23341   0.53531
 Alpha virt. eigenvalues --    0.55589   0.56402   0.58489   0.68717   0.69479
 Alpha virt. eigenvalues --    0.77719   0.79037   0.79924   0.80253   0.83303

 Mulliken charges:
               1
     1  O   -0.521621
     2  H    0.264314
     3  H    0.253704
     4  O   -0.514207
     5  H    0.259494
     6  H    0.258316
 Sum of Mulliken charges =  -0.00000

 Dipole moment (field-independent basis, Debye):
    X=              0.7937    Y=             -3.0831    Z=              0.0000  Tot=              3.1836
 Quadrupole moment (field-independent basis, Debye-Ang):
   XX=             -9.3613   YY=             -7.6367   ZZ=            -14.7208
   XY=              5.5104   XZ=              0.0000   YZ=              0.0000

 Normal termination of Gaussian 16 at Fri Aug 26 17:33:39 2022.
