 Gaussian 16, Revision A.03,
 Gaussian 16:  ES64L-G16RevA.03 25-Dec-2016

 ------------------
 #p CCSD(T)/cc-pVTZ
 ------------------

 ------------
 H2O_H2O_2489
 ------------
 Symbolic Z-matrix:
 Charge =  0 Multiplicity = 1

                         Standard orientation:
 ---------------------------------------------------------------------
 Center     Atomic      Atomic             Coordinates (Angstroms)
 Number     Number       Type             X           Y           Z
 ---------------------------------------------------------------------
      1          8           0        0.048602    2.099943   -0.000000
      2          1           0        0.046728    1.117343   -0.000000
      3          1           0       -0.880282    2.420381   -0.000000
      4          8           0        0.048602   -1.919575    0.000000
      5          1           0        0.827010   -2.519231    0.000000
      6          1           0       -0.771088   -2.461437    0.000000
 ---------------------------------------------------------------------

 SCF Done:  E(RHF) =  -152.110929945     A.U. after   10 cycles
 E2 =    -0.5261037540D+00 EUMP2 =    -0.15263703369912D+03
 CCSD(T)
 CCSD(T)= -0.15266413988D+03

 The electronic state is 1-A'.
 Alpha  occ. eigenvalues --  -20.56956 -20.54113  -1.34217  -1.31446  -0.71611
 Alpha  occ. eigenvalues --   -0.68842  -0.57814  -0.54931  -0.51352  -0.48590
 Alpha virt. eigenvalues --    0.12335   0.16449   0.19325   0.24173   0.52624
 Alpha virt. eigenvalues --    0.55579   0.56293   0.59006   0.69037   0.70746
 Alpha virt. eigenvalues --    0.77354   0.78636   0.80253   0.80944   0.83694

 Mulliken charges:
               1
     1  O   -0.523234
     2  H    0.266706
     3  H    0.250289
     4  O   -0.510996
     5  H    0.260579
     6  H    0.256656
 Sum of Mulliken charges =  -0.00000

 Dipole moment (field-independent basis, Debye):
    X=             -1.6512    Y=             -3.3093    Z=              0.0000  Tot=              3.6983
 Quadrupole moment (field-independent basis, Debye-Ang):
   XX=             -9.1842   YY=             -7.5219   ZZ=            -14.7232
   XY=             -4.3336   XZ=              0.0000   YZ=              0.0000

 Normal termination of Gaussian 16 at Sun Aug 28 07:41:38 2022.
