 Gaussian 16, Revision A.03,
 Gaussian 16:  ES64L-G16RevA.03 25-Dec-2016

 ------------------
 #p CCSD(T)/cc-pVTZ
 ------------------

 ------------
 H2O_H2O_3322
 ------------
 Symbolic Z-matrix:
 Charge =  0 Multiplicity = 1

                         Standard orientation:
 ---------------------------------------------------------------------
 Center     Atomic      Atomic             Coordinates (Angstroms)
 Number     Number       Type             X           Y           Z
 ---------------------------------------------------------------------
      1          8           0       -0.019854    2.421817    0.000000
      2          1           0       -0.017201    1.439219    0.000000
      3          1           0        0.908776    2.742991    0.000000
      4          8           0       -0.019854   -2.254710    0.000000
      5          1           0       -0.993699   -2.385594    0.000000
      6          1           0        0.419784   -3.133473    0.000000
 ---------------------------------------------------------------------

 SCF Done:  E(RHF) =  -152.109406770     A.U. after   10 cycles
 E2 =    -0.5258658001D+00 EUMP2 =    -0.15263527257046D+03
 CCSD(T)
 CCSD(T)= -0.15266243376D+03

 The electronic state is 1-A'.
 Alpha  occ. eigenvalues --  -20.56492 -20.54712  -1.33783  -1.32027  -0.71189
 Alpha  occ. eigenvalues --   -0.69433  -0.57309  -0.55515  -0.50909  -0.49161
 Alpha virt. eigenvalues --    0.12489   0.15657   0.19318   0.22385   0.53413
 Alpha virt. eigenvalues --    0.55406   0.56507   0.58072   0.67299   0.69318
 Alpha virt. eigenvalues --    0.77993   0.78704   0.79677   0.80416   0.83018

 Mulliken charges:
               1
     1  O   -0.518182
     2  H    0.262195
     3  H    0.254406
     4  O   -0.515858
     5  H    0.258583
     6  H    0.258855
 Sum of Mulliken charges =   0.00000

 Dipole moment (field-independent basis, Debye):
    X=              0.6806    Y=             -2.9822    Z=              0.0000  Tot=              3.0589
 Quadrupole moment (field-independent basis, Debye-Ang):
   XX=             -9.4466   YY=             -7.5253   ZZ=            -14.7182
   XY=              6.1683   XZ=              0.0000   YZ=              0.0000

 CCSD(T)=-152.6624338\RMSD=6.942e-09\PG=CS [SG(H4O2)]\\@
 Normal termination of Gaussian 16 at Fri Aug 26 21:03:41 2022.
