 Gaussian 16, Revision A.03,
 Gaussian 16:  ES64L-G16RevA.03 25-Dec-2016

 ------------------
 #p CCSD(T)/cc-pVTZ
 ------------------

 ------------
 H2O_H2O_1902
 ------------
 Symbolic Z-matrix:
 Charge =  0 Multiplicity = 1

                         Standard orientation:
 ---------------------------------------------------------------------
 Center     Atomic      Atomic             Coordinates (Angstroms)
 Number     Number       Type             X           Y           Z
 ---------------------------------------------------------------------
      1          8           0        0.088235   -1.850998    0.000000
      2          1           0        0.088010   -0.868397    0.000000
      3          1           0       -0.841185   -2.169878    0.000000
      4          8           0        0.088235    1.706688    0.000000
      5          1           0        0.216267    2.680912    0.000000
      6          1           0       -0.874856    1.511849    0.000000
 ---------------------------------------------------------------------

 SCF Done:  E(RHF) =  -152.109721209     A.U. after   10 cycles
 E2 =    -0.5267961011D+00 EUMP2 =    -0.15263651730985D+03
 CCSD(T)
 CCSD(T)= -0.15266362623D+03

 The electronic state is 1-A'.
 Alpha  occ. eigenvalues --  -20.57410 -20.54504  -1.34706  -1.31830  -0.72229
 Alpha  occ. eigenvalues --   -0.69160  -0.58241  -0.55250  -0.51804  -0.48947
 Alpha virt. eigenvalues --    0.11595   0.16276   0.20015   0.25994   0.51510
 Alpha virt. eigenvalues --    0.55491   0.57040   0.57561   0.68416   0.74018
 Alpha virt. eigenvalues --    0.75741   0.78415   0.80182   0.82924   0.83078

 Mulliken charges:
               1
     1  O   -0.518431
     2  H    0.267494
     3  H    0.243776
     4  O   -0.498180
     5  H    0.257624
     6  H    0.247717
 Sum of Mulliken charges =  -0.00000

 Dipole moment (field-independent basis, Debye):
    X=             -2.9711    Y=              2.7174    Z=              0.0000  Tot=              4.0264
 Quadrupole moment (field-independent basis, Debye-Ang):
   XX=            -10.5873   YY=             -8.7920   ZZ=            -14.7174
   XY=              2.4917   XZ=              0.0000   YZ=              0.0000

 Normal termination of Gaussian 16 at Sun Aug 28 02:39:02 2022.
