 Gaussian 16, Revision A.03,
 Gaussian 16:  ES64L-G16RevA.03 25-Dec-2016

 ------------------
 #p CCSD(T)/cc-pVTZ
 ------------------

 ------------
 H2O_H2O_3035
 ------------
 Symbolic Z-matrix:
 Charge =  0 Multiplicity = 1

                         Standard orientation:
 ---------------------------------------------------------------------
 Center     Atomic      Atomic             Coordinates (Angstroms)
 Number     Number       Type             X           Y           Z
 ---------------------------------------------------------------------
      1          8           0        0.063238    2.316681    0.000000
      2          1           0        0.062106    1.334080    0.000000
      3          1           0       -0.865888    2.636418   -0.000000
      4          8           0        0.063238   -2.141176    0.000000
      5          1           0        0.660510   -2.921414    0.000000
      6          1           0       -0.868531   -2.453127   -0.000000
 ---------------------------------------------------------------------

 SCF Done:  E(RHF) =  -152.109531706     A.U. after   10 cycles
 E2 =    -0.5259602844D+00 EUMP2 =    -0.15263549199092D+03
 CCSD(T)
 CCSD(T)= -0.15266264109D+03

 The electronic state is 1-A'.
 Alpha  occ. eigenvalues --  -20.56639 -20.54532  -1.33920  -1.31849  -0.71325
 Alpha  occ. eigenvalues --   -0.69237  -0.57448  -0.55329  -0.51045  -0.48980
 Alpha virt. eigenvalues --    0.12405   0.15850   0.19453   0.22571   0.53362
 Alpha virt. eigenvalues --    0.55332   0.56305   0.58532   0.68081   0.69335
 Alpha virt. eigenvalues --    0.77851   0.78956   0.79705   0.79855   0.83144

 Mulliken charges:
               1
     1  O   -0.517196
     2  H    0.263908
     3  H    0.250579
     4  O   -0.513093
     5  H    0.260157
     6  H    0.255645
 Sum of Mulliken charges =  -0.00000

 Dipole moment (field-independent basis, Debye):
    X=             -2.1559    Y=             -3.1575    Z=             -0.0000  Tot=              3.8233
 Quadrupole moment (field-independent basis, Debye-Ang):
   XX=             -9.4579   YY=             -7.3422   ZZ=            -14.7186
   XY=             -4.0629   XZ=              0.0000   YZ=             -0.0000

 Normal termination of Gaussian 16 at Fri Aug 26 19:23:57 2022.
