 Gaussian 16, Revision A.03,
 Gaussian 16:  ES64L-G16RevA.03 25-Dec-2016

 ------------------
 #p CCSD(T)/cc-pVTZ
 ------------------

 ------------
 H2O_H2O_4076
 ------------
 Symbolic Z-matrix:
 Charge =  0 Multiplicity = 1

                         Standard orientation:
 ---------------------------------------------------------------------
 Center     Atomic      Atomic             Coordinates (Angstroms)
 Number     Number       Type             X           Y           Z
 ---------------------------------------------------------------------
      1          8           0        0.090684   -2.715514    0.000000
      2          1           0        0.090611   -1.732912    0.000000
      3          1           0       -0.838786   -3.034249    0.000000
      4          8           0        0.090684    2.576803    0.000000
      5          1           0        0.154877    3.557306    0.000000
      6          1           0       -0.857642    2.319541    0.000000
 ---------------------------------------------------------------------

 SCF Done:  E(RHF) =  -152.107778312     A.U. after   10 cycles
 E2 =    -0.5258928151D+00 EUMP2 =    -0.15263367112699D+03
 CCSD(T)
 CCSD(T)= -0.15266087961D+03

 The electronic state is 1-A'.
 Alpha  occ. eigenvalues --  -20.56296 -20.55254  -1.33597  -1.32557  -0.71013
 Alpha  occ. eigenvalues --   -0.69951  -0.57061  -0.56010  -0.50707  -0.49670
 Alpha virt. eigenvalues --    0.12401   0.14965   0.18927   0.22007   0.53132
 Alpha virt. eigenvalues --    0.54938   0.56506   0.57815   0.66774   0.68697
 Alpha virt. eigenvalues --    0.78189   0.79201   0.79278   0.81432   0.82224

 Mulliken charges:
               1
     1  O   -0.509943
     2  H    0.258119
     3  H    0.251630
     4  O   -0.510997
     5  H    0.258897
     6  H    0.252294
 Sum of Mulliken charges =  -0.00000

 Dipole moment (field-independent basis, Debye):
    X=             -3.1055    Y=              2.4436    Z=              0.0000  Tot=              3.9517
 Quadrupole moment (field-independent basis, Debye-Ang):
   XX=            -10.7019   YY=             -8.8883   ZZ=            -14.7122
   XY=              2.4037   XZ=              0.0000   YZ=              0.0000

 Normal termination of Gaussian 16 at Sat Aug 27 23:19:21 2022.
