 Gaussian 16, Revision A.03,
 Gaussian 16:  ES64L-G16RevA.03 25-Dec-2016

 ------------------
 #p CCSD(T)/cc-pVTZ
 ------------------

 ------------
 H2O_H2O_4849
 ------------
 Symbolic Z-matrix:
 Charge =  0 Multiplicity = 1

                         Standard orientation:
 ---------------------------------------------------------------------
 Center     Atomic      Atomic             Coordinates (Angstroms)
 Number     Number       Type             X           Y           Z
 ---------------------------------------------------------------------
      1          8           0       -0.013463    3.025853    0.000000
      2          1           0       -0.011176    2.043254    0.000000
      3          1           0        0.915285    3.346682    0.000000
      4          8           0       -0.013463   -2.866572    0.000000
      5          1           0       -0.996063   -2.868859    0.000000
      6          1           0        0.307366   -3.795321    0.000000
 ---------------------------------------------------------------------

 SCF Done:  E(RHF) =  -152.108265294     A.U. after   10 cycles
 E2 =    -0.5258010273D+00 EUMP2 =    -0.15263406632124D+03
 CCSD(T)
 CCSD(T)= -0.15266126918D+03

 The electronic state is 1-A'.
 Alpha  occ. eigenvalues --  -20.56125 -20.55149  -1.33428  -1.32455  -0.70835
 Alpha  occ. eigenvalues --   -0.69862  -0.56913  -0.55925  -0.50546  -0.49577
 Alpha virt. eigenvalues --    0.13389   0.14737   0.19468   0.21094   0.53559
 Alpha virt. eigenvalues --    0.54796   0.56706   0.57705   0.67027   0.68433
 Alpha virt. eigenvalues --    0.78337   0.79285   0.79712   0.80777   0.81933

 Mulliken charges:
               1
     1  O   -0.513577
     2  H    0.258562
     3  H    0.254977
     4  O   -0.514010
     5  H    0.256494
     6  H    0.257553
 Sum of Mulliken charges =  -0.00000

 Dipole moment (field-independent basis, Debye):
    X=              0.4637    Y=             -2.7868    Z=              0.0000  Tot=              2.8251
 Quadrupole moment (field-independent basis, Debye-Ang):
   XX=             -9.6490   YY=             -7.3459   ZZ=            -14.7142
   XY=              8.2034   XZ=              0.0000   YZ=              0.0000

 Normal termination of Gaussian 16 at Sun Aug 28 06:21:38 2022.
