 Gaussian 16, Revision A.03,
 Gaussian 16:  ES64L-G16RevA.03 25-Dec-2016

 ------------------
 #p CCSD(T)/cc-pVTZ
 ------------------

 ------------
 H2O_H2O_4702
 ------------
 Symbolic Z-matrix:
 Charge =  0 Multiplicity = 1

                         Standard orientation:
 ---------------------------------------------------------------------
 Center     Atomic      Atomic             Coordinates (Angstroms)
 Number     Number       Type             X           Y           Z
 ---------------------------------------------------------------------
      1          8           0        0.088229   -2.967862    0.000000
      2          1           0        0.088090   -1.985261    0.000000
      3          1           0       -0.841219   -3.286660    0.000000
      4          8           0        0.088229    2.823536    0.000000
      5          1           0        0.216348    3.797749    0.000000
      6          1           0       -0.874879    2.628783    0.000000
 ---------------------------------------------------------------------

 SCF Done:  E(RHF) =  -152.107739392     A.U. after   10 cycles
 E2 =    -0.5258597769D+00 EUMP2 =    -0.15263359916906D+03
 CCSD(T)
 CCSD(T)= -0.15266081192D+03

 The electronic state is 1-A'.
 Alpha  occ. eigenvalues --  -20.56172 -20.55280  -1.33474  -1.32582  -0.70886
 Alpha  occ. eigenvalues --   -0.69980  -0.56937  -0.56036  -0.50586  -0.49696
 Alpha virt. eigenvalues --    0.13072   0.14668   0.19149   0.21298   0.53393
 Alpha virt. eigenvalues --    0.54771   0.56596   0.57645   0.67000   0.68406
 Alpha virt. eigenvalues --    0.78303   0.79175   0.79681   0.81007   0.81727

 Mulliken charges:
               1
     1  O   -0.510163
     2  H    0.257747
     3  H    0.252375
     4  O   -0.511091
     5  H    0.258008
     6  H    0.253125
 Sum of Mulliken charges =  -0.00000

 Dipole moment (field-independent basis, Debye):
    X=             -3.0272    Y=              2.5286    Z=              0.0000  Tot=              3.9443
 Quadrupole moment (field-independent basis, Debye-Ang):
   XX=            -10.5491   YY=             -8.4504   ZZ=            -14.7123
   XY=              2.6953   XZ=              0.0000   YZ=              0.0000

 27\MP4DQ=-152.6427221\MP4SDQ=-152.6457746\CCSD=-152.6451886\CCSD(T)=-1
 Normal termination of Gaussian 16 at Sun Aug 28 05:10:26 2022.
