 Gaussian 16, Revision A.03,
 Gaussian 16:  ES64L-G16RevA.03 25-Dec-2016

 ------------------
 #p CCSD(T)/cc-pVTZ
 ------------------

 ------------
 H2O_H2O_4710
 ------------
 Symbolic Z-matrix:
 Charge =  0 Multiplicity = 1

                         Standard orientation:
 ---------------------------------------------------------------------
 Center     Atomic      Atomic             Coordinates (Angstroms)
 Number     Number       Type             X           Y           Z
 ---------------------------------------------------------------------
      1          8           0        0.063214    2.984817    0.000000
      2          1           0        0.062344    2.002216    0.000000
      3          1           0       -0.865996    3.304307    0.000000
      4          8           0        0.063214   -2.809278    0.000000
      5          1           0        0.660694   -3.589358    0.000000
      6          1           0       -0.868471   -3.121476    0.000000
 ---------------------------------------------------------------------

 SCF Done:  E(RHF) =  -152.108189169     A.U. after   10 cycles
 E2 =    -0.5258205666D+00 EUMP2 =    -0.15263400973519D+03
 CCSD(T)
 CCSD(T)= -0.15266121258D+03

 The electronic state is 1-A'.
 Alpha  occ. eigenvalues --  -20.56155 -20.55031  -1.33457  -1.32336  -0.70863
 Alpha  occ. eigenvalues --   -0.69736  -0.56940  -0.55802  -0.50574  -0.49456
 Alpha virt. eigenvalues --    0.13411   0.14807   0.19661   0.20963   0.53641
 Alpha virt. eigenvalues --    0.54823   0.56673   0.57758   0.66960   0.68600
 Alpha virt. eigenvalues --    0.78312   0.79404   0.79646   0.80464   0.82406

 Mulliken charges:
               1
     1  O   -0.512663
     2  H    0.259709
     3  H    0.252887
     4  O   -0.513491
     5  H    0.258180
     6  H    0.255378
 Sum of Mulliken charges =   0.00000

 Dipole moment (field-independent basis, Debye):
    X=             -2.1689    Y=             -3.0763    Z=             -0.0000  Tot=              3.7640
 Quadrupole moment (field-independent basis, Debye-Ang):
   XX=             -9.4535   YY=             -6.3779   ZZ=            -14.7140
   XY=             -4.7537   XZ=             -0.0000   YZ=             -0.0000

 Normal termination of Gaussian 16 at Sun Aug 28 05:17:25 2022.
