 Gaussian 16, Revision A.03,
 Gaussian 16:  ES64L-G16RevA.03 25-Dec-2016

 ------------------
 #p CCSD(T)/cc-pVTZ
 ------------------

 ------------
 H2O_H2O_2986
 ------------
 Symbolic Z-matrix:
 Charge =  0 Multiplicity = 1

                         Standard orientation:
 ---------------------------------------------------------------------
 Center     Atomic      Atomic             Coordinates (Angstroms)
 Number     Number       Type             X           Y           Z
 ---------------------------------------------------------------------
      1          8           0        0.059644    2.297789    0.000000
      2          1           0        0.058364    1.315189    0.000000
      3          1           0       -0.869434    2.617666    0.000000
      4          8           0        0.059644   -2.120348   -0.000000
      5          1           0        0.706555   -2.859950   -0.000000
      6          1           0       -0.849783   -2.492435   -0.000000
 ---------------------------------------------------------------------

 SCF Done:  E(RHF) =  -152.109699358     A.U. after   10 cycles
 E2 =    -0.5259637383D+00 EUMP2 =    -0.15263566309628D+03
 CCSD(T)
 CCSD(T)= -0.15266280751D+03

 The electronic state is 1-A'.
 Alpha  occ. eigenvalues --  -20.56663 -20.54477  -1.33941  -1.31796  -0.71345
 Alpha  occ. eigenvalues --   -0.69185  -0.57477  -0.55278  -0.51068  -0.48928
 Alpha virt. eigenvalues --    0.12426   0.15914   0.19451   0.22682   0.53274
 Alpha virt. eigenvalues --    0.55398   0.56293   0.58601   0.68275   0.69334
 Alpha virt. eigenvalues --    0.77824   0.79038   0.79555   0.79904   0.83205

 Mulliken charges:
               1
     1  O   -0.517969
     2  H    0.264286
     3  H    0.250697
     4  O   -0.513204
     5  H    0.260195
     6  H    0.255995
 Sum of Mulliken charges =  -0.00000

 Dipole moment (field-independent basis, Debye):
    X=             -2.0329    Y=             -3.1973    Z=             -0.0000  Tot=              3.7889
 Quadrupole moment (field-independent basis, Debye-Ang):
   XX=             -9.3651   YY=             -7.2995   ZZ=            -14.7192
   XY=             -4.1976   XZ=             -0.0000   YZ=              0.0000

 Normal termination of Gaussian 16 at Fri Aug 26 19:01:44 2022.
