 Gaussian 16, Revision A.03,
 Gaussian 16:  ES64L-G16RevA.03 25-Dec-2016

 ------------------
 #p CCSD(T)/cc-pVTZ
 ------------------

 ------------
 H2O_H2O_2157
 ------------
 Symbolic Z-matrix:
 Charge =  0 Multiplicity = 1

                         Standard orientation:
 ---------------------------------------------------------------------
 Center     Atomic      Atomic             Coordinates (Angstroms)
 Number     Number       Type             X           Y           Z
 ---------------------------------------------------------------------
      1          8           0        0.073548    1.962999    0.000000
      2          1           0        0.072672    0.980398    0.000000
      3          1           0       -0.855660    2.282495    0.000000
      4          8           0        0.073548   -1.796080   -0.000000
      5          1           0        0.507356   -2.677736   -0.000000
      6          1           0       -0.901142   -1.920512   -0.000000
 ---------------------------------------------------------------------

 SCF Done:  E(RHF) =  -152.110772024     A.U. after   10 cycles
 E2 =    -0.5263978216D+00 EUMP2 =    -0.15263716984530D+03
 CCSD(T)
 CCSD(T)= -0.15266426626D+03

 The electronic state is 1-A'.
 Alpha  occ. eigenvalues --  -20.57205 -20.54161  -1.34472  -1.31495  -0.71894
 Alpha  occ. eigenvalues --   -0.68879  -0.58063  -0.54950  -0.51596  -0.48630
 Alpha virt. eigenvalues --    0.11972   0.16480   0.19460   0.25207   0.52235
 Alpha virt. eigenvalues --    0.55817   0.56029   0.58359   0.68849   0.72171
 Alpha virt. eigenvalues --    0.76674   0.78656   0.80308   0.83286   0.83447

 Mulliken charges:
               1
     1  O   -0.521562
     2  H    0.267031
     3  H    0.246533
     4  O   -0.505610
     5  H    0.260083
     6  H    0.253525
 Sum of Mulliken charges =  -0.00000

 Dipole moment (field-independent basis, Debye):
    X=             -2.4888    Y=             -3.1056    Z=             -0.0000  Tot=              3.9798
 Quadrupole moment (field-independent basis, Debye-Ang):
   XX=             -9.8281   YY=             -8.0818   ZZ=            -14.7225
   XY=             -3.3168   XZ=             -0.0000   YZ=              0.0000

 36563\MP4DQ=-152.646084\MP4SDQ=-152.6491699\CCSD=-152.6485621\CCSD(T)=
 Normal termination of Gaussian 16 at Sun Aug 28 04:56:12 2022.
