 Gaussian 16, Revision A.03,
 Gaussian 16:  ES64L-G16RevA.03 25-Dec-2016

 ------------------
 #p CCSD(T)/cc-pVTZ
 ------------------

 ------------
 H2O_H2O_1491
 ------------
 Symbolic Z-matrix:
 Charge =  0 Multiplicity = 1

                         Standard orientation:
 ---------------------------------------------------------------------
 Center     Atomic      Atomic             Coordinates (Angstroms)
 Number     Number       Type             X           Y           Z
 ---------------------------------------------------------------------
      1          8           0        0.041213    1.700794   -0.000000
      2          1           0        0.038483    0.718196   -0.000000
      3          1           0       -0.887391    2.022041   -0.000000
      4          8           0        0.041213   -1.520935    0.000000
      5          1           0        0.890802   -2.014598    0.000000
      6          1           0       -0.701298   -2.164506    0.000000
 ---------------------------------------------------------------------

 SCF Done:  E(RHF) =  -152.113989478     A.U. after   10 cycles
 E2 =    -0.5271375120D+00 EUMP2 =    -0.15264112698981D+03
 CCSD(T)
 CCSD(T)= -0.15266812117D+03

 The electronic state is 1-A'.
 Alpha  occ. eigenvalues --  -20.57966 -20.52888  -1.35252  -1.30338  -0.72590
 Alpha  occ. eigenvalues --   -0.68005  -0.59080  -0.53676  -0.52383  -0.47491
 Alpha virt. eigenvalues --    0.12089   0.17684   0.18931   0.29104   0.50085
 Alpha virt. eigenvalues --    0.54491   0.56056   0.59840   0.68903   0.72029
 Alpha virt. eigenvalues --    0.74280   0.76906   0.81558   0.83028   0.84833

 Mulliken charges:
               1
     1  O   -0.543405
     2  H    0.278264
     3  H    0.246967
     4  O   -0.506375
     5  H    0.265363
     6  H    0.259185
 Sum of Mulliken charges =  -0.00000

 Dipole moment (field-independent basis, Debye):
    X=             -1.3821    Y=             -3.5323    Z=              0.0000  Tot=              3.7931
 Quadrupole moment (field-independent basis, Debye-Ang):
   XX=             -9.1518   YY=             -8.2825   ZZ=            -14.7354
   XY=             -3.8437   XZ=              0.0000   YZ=             -0.0000

 Normal termination of Gaussian 16 at Sat Aug 27 00:54:32 2022.
