 Gaussian 16, Revision A.03,
 Gaussian 16:  ES64L-G16RevA.03 25-Dec-2016

 ------------------
 #p CCSD(T)/cc-pVTZ
 ------------------

 ------------
 H2O_H2O_1640
 ------------
 Symbolic Z-matrix:
 Charge =  0 Multiplicity = 1

                         Standard orientation:
 ---------------------------------------------------------------------
 Center     Atomic      Atomic             Coordinates (Angstroms)
 Number     Number       Type             X           Y           Z
 ---------------------------------------------------------------------
      1          8           0        0.044917    1.760886   -0.000000
      2          1           0        0.042473    0.778288   -0.000000
      3          1           0       -0.883781    2.081863   -0.000000
      4          8           0        0.044917   -1.580544    0.000000
      5          1           0        0.860560   -2.128479    0.000000
      6          1           0       -0.737922   -2.174403    0.000000
 ---------------------------------------------------------------------

 SCF Done:  E(RHF) =  -152.113548136     A.U. after   10 cycles
 E2 =    -0.5268724036D+00 EUMP2 =    -0.15264042053911D+03
 CCSD(T)
 CCSD(T)= -0.15266743959D+03

 The electronic state is 1-A'.
 Alpha  occ. eigenvalues --  -20.57767 -20.53161  -1.35032  -1.30573  -0.72386
 Alpha  occ. eigenvalues --   -0.68126  -0.58828  -0.53963  -0.52169  -0.47727
 Alpha virt. eigenvalues --    0.12121   0.17454   0.19015   0.28209   0.50478
 Alpha virt. eigenvalues --    0.54611   0.56225   0.59390   0.69019   0.72171
 Alpha virt. eigenvalues --    0.74893   0.76892   0.81283   0.83165   0.84722

 Mulliken charges:
               1
     1  O   -0.537953
     2  H    0.274694
     3  H    0.247266
     4  O   -0.507216
     5  H    0.264470
     6  H    0.258738
 Sum of Mulliken charges =  -0.00000

 Dipole moment (field-independent basis, Debye):
    X=             -1.5103    Y=             -3.4894    Z=              0.0000  Tot=              3.8022
 Quadrupole moment (field-independent basis, Debye-Ang):
   XX=             -9.1614   YY=             -8.1495   ZZ=            -14.7342
   XY=             -3.8799   XZ=              0.0000   YZ=             -0.0000

 Normal termination of Gaussian 16 at Sun Aug 28 00:10:26 2022.
