 Gaussian 16, Revision A.03,
 Gaussian 16:  ES64L-G16RevA.03 25-Dec-2016

 ------------------
 #p CCSD(T)/cc-pVTZ
 ------------------

 ------------
 H2O_H2O_4649
 ------------
 Symbolic Z-matrix:
 Charge =  0 Multiplicity = 1

                         Standard orientation:
 ---------------------------------------------------------------------
 Center     Atomic      Atomic             Coordinates (Angstroms)
 Number     Number       Type             X           Y           Z
 ---------------------------------------------------------------------
      1          8           0       -0.013468    2.946076    0.000000
      2          1           0       -0.011117    1.963478    0.000000
      3          1           0        0.915259    3.266966    0.000000
      4          8           0       -0.013468   -2.786797    0.000000
      5          1           0       -0.996068   -2.789148    0.000000
      6          1           0        0.307421   -3.715525    0.000000
 ---------------------------------------------------------------------

 SCF Done:  E(RHF) =  -152.108342045     A.U. after   10 cycles
 E2 =    -0.5258002486D+00 EUMP2 =    -0.15263414229404D+03
 CCSD(T)
 CCSD(T)= -0.15266134294D+03

 The electronic state is 1-A'.
 Alpha  occ. eigenvalues --  -20.56155 -20.55118  -1.33458  -1.32424  -0.70865
 Alpha  occ. eigenvalues --   -0.69831  -0.56946  -0.55896  -0.50576  -0.49547
 Alpha virt. eigenvalues --    0.13279   0.14820   0.19401   0.21231   0.53473
 Alpha virt. eigenvalues --    0.54864   0.56686   0.57740   0.66926   0.68540
 Alpha virt. eigenvalues --    0.78308   0.79313   0.79621   0.80807   0.82114

 Mulliken charges:
               1
     1  O   -0.513941
     2  H    0.258877
     3  H    0.254996
     4  O   -0.514413
     5  H    0.256657
     6  H    0.257823
 Sum of Mulliken charges =  -0.00000

 Dipole moment (field-independent basis, Debye):
    X=              0.4638    Y=             -2.7906    Z=              0.0000  Tot=              2.8289
 Quadrupole moment (field-independent basis, Debye-Ang):
   XX=             -9.6487   YY=             -7.4173   ZZ=            -14.7145
   XY=              7.9852   XZ=              0.0000   YZ=              0.0000

 Normal termination of Gaussian 16 at Sun Aug 28 04:37:18 2022.
