 Gaussian 16, Revision A.03,
 Gaussian 16:  ES64L-G16RevA.03 25-Dec-2016

 ------------------
 #p CCSD(T)/cc-pVTZ
 ------------------

 ------------
 H2O_H2O_1553
 ------------
 Symbolic Z-matrix:
 Charge =  0 Multiplicity = 1

                         Standard orientation:
 ---------------------------------------------------------------------
 Center     Atomic      Atomic             Coordinates (Angstroms)
 Number     Number       Type             X           Y           Z
 ---------------------------------------------------------------------
      1          8           0        0.085609   -1.714253    0.000000
      2          1           0        0.085228   -0.731651    0.000000
      3          1           0       -0.843761   -2.033279    0.000000
      4          8           0        0.085609    1.564674    0.000000
      5          1           0        0.276931    2.528470    0.000000
      6          1           0       -0.888143    1.433089    0.000000
 ---------------------------------------------------------------------

 SCF Done:  E(RHF) =  -152.110490365     A.U. after   10 cycles
 E2 =    -0.5273541439D+00 EUMP2 =    -0.15263784450871D+03
 CCSD(T)
 CCSD(T)= -0.15266490935D+03

 The electronic state is 1-A'.
 Alpha  occ. eigenvalues --  -20.57817 -20.54018  -1.35148  -1.31388  -0.72734
 Alpha  occ. eigenvalues --   -0.68743  -0.58727  -0.54756  -0.52228  -0.48502
 Alpha virt. eigenvalues --    0.11635   0.16512   0.20007   0.27776   0.50032
 Alpha virt. eigenvalues --    0.55012   0.57609   0.57923   0.68699   0.74286
 Alpha virt. eigenvalues --    0.74679   0.77529   0.80762   0.82436   0.83608

 Mulliken charges:
               1
     1  O   -0.525504
     2  H    0.273308
     3  H    0.240708
     4  O   -0.488751
     5  H    0.252532
     6  H    0.247708
 Sum of Mulliken charges =  -0.00000

 Dipole moment (field-independent basis, Debye):
    X=             -2.8648    Y=              2.9037    Z=              0.0000  Tot=              4.0790
 Quadrupole moment (field-independent basis, Debye-Ang):
   XX=            -10.4421   YY=             -8.7347   ZZ=            -14.7185
   XY=              2.6157   XZ=              0.0000   YZ=              0.0000

 Normal termination of Gaussian 16 at Sat Aug 27 23:06:09 2022.
