 Gaussian 16, Revision A.03,
 Gaussian 16:  ES64L-G16RevA.03 25-Dec-2016

 ------------------
 #p CCSD(T)/cc-pVTZ
 ------------------

 -----------
 H2O_H2O_319
 -----------
 Symbolic Z-matrix:
 Charge =  0 Multiplicity = 1

                         Standard orientation:
 ---------------------------------------------------------------------
 Center     Atomic      Atomic             Coordinates (Angstroms)
 Number     Number       Type             X           Y           Z
 ---------------------------------------------------------------------
      1          8           0        0.030395    1.229736    0.000000
      2          1           0        0.025731    0.247146    0.000000
      3          1           0       -0.897575    1.552811    0.000000
      4          8           0        0.030395   -1.054271    0.000000
      5          1           0        0.959341   -1.374531    0.000000
      6          1           0       -0.573820   -1.829144    0.000000
 ---------------------------------------------------------------------

 SCF Done:  E(RHF) =  -152.084007430     A.U. after   11 cycles
 E2 =    -0.5333594249D+00 EUMP2 =    -0.15261736685542D+03
 CCSD(T)
 CCSD(T)= -0.15264341492D+03

 The electronic state is 1-A'.
 Alpha  occ. eigenvalues --  -20.60882 -20.47090  -1.40355  -1.26181  -0.77286
 Alpha  occ. eigenvalues --   -0.72759  -0.57430  -0.56473  -0.47490  -0.43000
 Alpha virt. eigenvalues --    0.11027   0.17441   0.20216   0.33836   0.47038
 Alpha virt. eigenvalues --    0.52967   0.60627   0.68032   0.69948   0.71951
 Alpha virt. eigenvalues --    0.77055   0.78387   0.79355   0.83562   0.84006

 Mulliken charges:
               1
     1  O   -0.641686
     2  H    0.301124
     3  H    0.225769
     4  O   -0.386322
     5  H    0.261256
     6  H    0.239860
 Sum of Mulliken charges =  -0.00000

 Dipole moment (field-independent basis, Debye):
    X=             -0.9563    Y=             -4.5048    Z=             -0.0000  Tot=              4.6052
 Quadrupole moment (field-independent basis, Debye-Ang):
   XX=             -9.1706   YY=             -9.7222   ZZ=            -14.6313
   XY=             -2.9584   XZ=             -0.0000   YZ=             -0.0000

 Normal termination of Gaussian 16 at Fri Aug 26 17:24:14 2022.
