 Gaussian 16, Revision A.03,
 Gaussian 16:  ES64L-G16RevA.03 25-Dec-2016

 ------------------
 #p CCSD(T)/cc-pVTZ
 ------------------

 ------------
 H2O_H2O_1900
 ------------
 Symbolic Z-matrix:
 Charge =  0 Multiplicity = 1

                         Standard orientation:
 ---------------------------------------------------------------------
 Center     Atomic      Atomic             Coordinates (Angstroms)
 Number     Number       Type             X           Y           Z
 ---------------------------------------------------------------------
      1          8           0        0.092949   -1.844738    0.000000
      2          1           0        0.092949   -0.862137    0.000000
      3          1           0       -0.836544   -2.163405    0.000000
      4          8           0        0.092949    1.711951    0.000000
      5          1           0        0.092950    2.694554    0.000000
      6          1           0       -0.836544    1.393285    0.000000
 ---------------------------------------------------------------------

 SCF Done:  E(RHF) =  -152.108877078     A.U. after   10 cycles
 E2 =    -0.5268863377D+00 EUMP2 =    -0.15263576341615D+03
 CCSD(T)
 CCSD(T)= -0.15266289402D+03

 The electronic state is 1-A'.
 Alpha  occ. eigenvalues --  -20.57399 -20.54795  -1.34705  -1.32108  -0.72285
 Alpha  occ. eigenvalues --   -0.69394  -0.58195  -0.55523  -0.51791  -0.49215
 Alpha virt. eigenvalues --    0.11442   0.16131   0.20300   0.25931   0.51640
 Alpha virt. eigenvalues --    0.55204   0.57246   0.57385   0.67911   0.73914
 Alpha virt. eigenvalues --    0.75619   0.78358   0.79972   0.82627   0.83025

 Mulliken charges:
               1
     1  O   -0.515504
     2  H    0.266685
     3  H    0.243543
     4  O   -0.495936
     5  H    0.257229
     6  H    0.243983
 Sum of Mulliken charges =  -0.00000

 Dipole moment (field-independent basis, Debye):
    X=             -3.1275    Y=              2.4960    Z=              0.0000  Tot=              4.0014
 Quadrupole moment (field-independent basis, Debye-Ang):
   XX=            -10.8851   YY=             -9.1486   ZZ=            -14.7132
   XY=              2.1321   XZ=              0.0000   YZ=              0.0000

 Normal termination of Gaussian 16 at Sun Aug 28 02:38:06 2022.
