 Gaussian 16, Revision A.03,
 Gaussian 16:  ES64L-G16RevA.03 25-Dec-2016

 ------------------
 #p CCSD(T)/cc-pVTZ
 ------------------

 ------------
 H2O_H2O_4805
 ------------
 Symbolic Z-matrix:
 Charge =  0 Multiplicity = 1

                         Standard orientation:
 ---------------------------------------------------------------------
 Center     Atomic      Atomic             Coordinates (Angstroms)
 Number     Number       Type             X           Y           Z
 ---------------------------------------------------------------------
      1          8           0        0.079843    3.015763    0.000000
      2          1           0        0.079464    2.033162    0.000000
      3          1           0       -0.849527    3.334788   -0.000000
      4          8           0        0.079843   -2.856684    0.000000
      5          1           0        0.395332   -3.787261    0.000000
      6          1           0       -0.902753   -2.853326   -0.000000
 ---------------------------------------------------------------------

 SCF Done:  E(RHF) =  -152.107909503     A.U. after   10 cycles
 E2 =    -0.5258417889D+00 EUMP2 =    -0.15263375129202D+03
 CCSD(T)
 CCSD(T)= -0.15266096048D+03

 The electronic state is 1-A'.
 Alpha  occ. eigenvalues --  -20.56149 -20.55178  -1.33451  -1.32481  -0.70861
 Alpha  occ. eigenvalues --   -0.69880  -0.56922  -0.55940  -0.50565  -0.49598
 Alpha virt. eigenvalues --    0.13310   0.14682   0.19442   0.21026   0.53534
 Alpha virt. eigenvalues --    0.54777   0.56646   0.57674   0.67033   0.68445
 Alpha virt. eigenvalues --    0.78322   0.79269   0.79672   0.80776   0.81960

 Mulliken charges:
               1
     1  O   -0.511137
     2  H    0.258526
     3  H    0.252571
     4  O   -0.512019
     5  H    0.258009
     6  H    0.254049
 Sum of Mulliken charges =  -0.00000

 Dipole moment (field-independent basis, Debye):
    X=             -2.7400    Y=             -2.7855    Z=             -0.0000  Tot=              3.9073
 Quadrupole moment (field-independent basis, Debye-Ang):
   XX=            -10.0930   YY=             -7.3991   ZZ=            -14.7130
   XY=             -3.5116   XZ=              0.0000   YZ=             -0.0000

 Normal termination of Gaussian 16 at Sun Aug 28 06:00:40 2022.
