 Gaussian 16, Revision A.03,
 Gaussian 16:  ES64L-G16RevA.03 25-Dec-2016

 ------------------
 #p CCSD(T)/cc-pVTZ
 ------------------

 ------------
 H2O_H2O_3751
 ------------
 Symbolic Z-matrix:
 Charge =  0 Multiplicity = 1

                         Standard orientation:
 ---------------------------------------------------------------------
 Center     Atomic      Atomic             Coordinates (Angstroms)
 Number     Number       Type             X           Y           Z
 ---------------------------------------------------------------------
      1          8           0        0.090684   -2.585879    0.000000
      2          1           0        0.090607   -1.603277    0.000000
      3          1           0       -0.838784   -2.904617    0.000000
      4          8           0        0.090684    2.447169    0.000000
      5          1           0        0.154874    3.427671    0.000000
      6          1           0       -0.857641    2.189902    0.000000
 ---------------------------------------------------------------------

 SCF Done:  E(RHF) =  -152.107872031     A.U. after   10 cycles
 E2 =    -0.5259221843D+00 EUMP2 =    -0.15263379421531D+03
 CCSD(T)
 CCSD(T)= -0.15266099689D+03

 The electronic state is 1-A'.
 Alpha  occ. eigenvalues --  -20.56379 -20.55209  -1.33679  -1.32512  -0.71098
 Alpha  occ. eigenvalues --   -0.69903  -0.57145  -0.55965  -0.50789  -0.49625
 Alpha virt. eigenvalues --    0.12093   0.15149   0.18980   0.22328   0.53209
 Alpha virt. eigenvalues --    0.54964   0.56475   0.57916   0.66806   0.68841
 Alpha virt. eigenvalues --    0.78113   0.78917   0.79244   0.81371   0.82426

 Mulliken charges:
               1
     1  O   -0.510095
     2  H    0.258589
     3  H    0.251104
     4  O   -0.510832
     5  H    0.259342
     6  H    0.251891
 Sum of Mulliken charges =   0.00000

 Dipole moment (field-independent basis, Debye):
    X=             -3.1014    Y=              2.4537    Z=              0.0000  Tot=              3.9547
 Quadrupole moment (field-independent basis, Debye-Ang):
   XX=            -10.7042   YY=             -8.9023   ZZ=            -14.7125
   XY=              2.3919   XZ=              0.0000   YZ=              0.0000

 Normal termination of Gaussian 16 at Fri Aug 26 23:28:20 2022.
