 Gaussian 16, Revision A.03,
 Gaussian 16:  ES64L-G16RevA.03 25-Dec-2016

 ------------------
 #p CCSD(T)/cc-pVTZ
 ------------------

 ------------
 H2O_H2O_3188
 ------------
 Symbolic Z-matrix:
 Charge =  0 Multiplicity = 1

                         Standard orientation:
 ---------------------------------------------------------------------
 Center     Atomic      Atomic             Coordinates (Angstroms)
 Number     Number       Type             X           Y           Z
 ---------------------------------------------------------------------
      1          8           0        0.052297    2.378897    0.000000
      2          1           0        0.050789    1.396297    0.000000
      3          1           0       -0.876706    2.698989   -0.000000
      4          8           0        0.052297   -2.199004    0.000000
      5          1           0        0.790061   -2.848011    0.000000
      6          1           0       -0.800895   -2.686415   -0.000000
 ---------------------------------------------------------------------

 SCF Done:  E(RHF) =  -152.109539506     A.U. after   10 cycles
 E2 =    -0.5259092581D+00 EUMP2 =    -0.15263544876442D+03
 CCSD(T)
 CCSD(T)= -0.15266260177D+03

 The electronic state is 1-A'.
 Alpha  occ. eigenvalues --  -20.56567 -20.54531  -1.33850  -1.31848  -0.71252
 Alpha  occ. eigenvalues --   -0.69241  -0.57381  -0.55332  -0.50977  -0.48981
 Alpha virt. eigenvalues --    0.12578   0.15773   0.19499   0.22282   0.53293
 Alpha virt. eigenvalues --    0.55284   0.56387   0.58352   0.67692   0.69353
 Alpha virt. eigenvalues --    0.77928   0.79050   0.79372   0.79851   0.83157

 Mulliken charges:
               1
     1  O   -0.517680
     2  H    0.263806
     3  H    0.251633
     4  O   -0.514567
     5  H    0.260070
     6  H    0.256738
 Sum of Mulliken charges =  -0.00000

 Dipole moment (field-independent basis, Debye):
    X=             -1.7846    Y=             -3.2244    Z=             -0.0000  Tot=              3.6853
 Quadrupole moment (field-independent basis, Debye-Ang):
   XX=             -9.2262   YY=             -7.0823   ZZ=            -14.7188
   XY=             -4.6085   XZ=              0.0000   YZ=             -0.0000

 Normal termination of Gaussian 16 at Fri Aug 26 20:17:40 2022.
