 Gaussian 16, Revision A.03,
 Gaussian 16:  ES64L-G16RevA.03 25-Dec-2016

 ------------------
 #p CCSD(T)/cc-pVTZ
 ------------------

 ------------
 H2O_H2O_2420
 ------------
 Symbolic Z-matrix:
 Charge =  0 Multiplicity = 1

                         Standard orientation:
 ---------------------------------------------------------------------
 Center     Atomic      Atomic             Coordinates (Angstroms)
 Number     Number       Type             X           Y           Z
 ---------------------------------------------------------------------
      1          8           0        0.026688    2.066141   -0.000000
      2          1           0        0.023846    1.083544   -0.000000
      3          1           0       -0.901879    2.387495   -0.000000
      4          8           0        0.026688   -1.892935    0.000000
      5          1           0        0.975069   -2.149996    0.000000
      6          1           0       -0.524047   -2.706690    0.000000
 ---------------------------------------------------------------------

 SCF Done:  E(RHF) =  -152.111147933     A.U. after   10 cycles
 E2 =    -0.5261117170D+00 EUMP2 =    -0.15263725965046D+03
 CCSD(T)
 CCSD(T)= -0.15266436104D+03

 The electronic state is 1-A'.
 Alpha  occ. eigenvalues --  -20.56981 -20.54151  -1.34247  -1.31486  -0.71647
 Alpha  occ. eigenvalues --   -0.68894  -0.57855  -0.54974  -0.51383  -0.48634
 Alpha virt. eigenvalues --    0.12299   0.16527   0.19265   0.24538   0.53134
 Alpha virt. eigenvalues --    0.55422   0.56378   0.58670   0.68959   0.71084
 Alpha virt. eigenvalues --    0.77243   0.78847   0.80226   0.81610   0.83683

 Mulliken charges:
               1
     1  O   -0.525498
     2  H    0.266280
     3  H    0.252759
     4  O   -0.511710
     5  H    0.260382
     6  H    0.257788
 Sum of Mulliken charges =  -0.00000

 Dipole moment (field-independent basis, Debye):
    X=             -0.9090    Y=             -3.1845    Z=              0.0000  Tot=              3.3117
 Quadrupole moment (field-independent basis, Debye-Ang):
   XX=             -9.2886   YY=             -7.7637   ZZ=            -14.7239
   XY=             -4.9949   XZ=              0.0000   YZ=             -0.0000

 Normal termination of Gaussian 16 at Sun Aug 28 07:10:58 2022.
