 Gaussian 16, Revision A.03,
 Gaussian 16:  ES64L-G16RevA.03 25-Dec-2016

 ------------------
 #p CCSD(T)/cc-pVTZ
 ------------------

 ------------
 H2O_H2O_1067
 ------------
 Symbolic Z-matrix:
 Charge =  0 Multiplicity = 1

                         Standard orientation:
 ---------------------------------------------------------------------
 Center     Atomic      Atomic             Coordinates (Angstroms)
 Number     Number       Type             X           Y           Z
 ---------------------------------------------------------------------
      1          8           0        0.037554    1.530738   -0.000000
      2          1           0        0.034286    0.548142   -0.000000
      3          1           0       -0.890873    1.852495    0.000000
      4          8           0        0.037554   -1.351865   -0.000000
      5          1           0        0.917372   -1.789388   -0.000000
      6          1           0       -0.661654   -2.042237    0.000000
 ---------------------------------------------------------------------

 SCF Done:  E(RHF) =  -152.113808848     A.U. after   10 cycles
 E2 =    -0.5283450264D+00 EUMP2 =    -0.15264215387451D+03
 CCSD(T)
 CCSD(T)= -0.15266902178D+03

 The electronic state is 1-A'.
 Alpha  occ. eigenvalues --  -20.58693 -20.51765  -1.36154  -1.29421  -0.73400
 Alpha  occ. eigenvalues --   -0.67988  -0.59723  -0.53225  -0.52477  -0.46544
 Alpha virt. eigenvalues --    0.11910   0.18293   0.18722   0.31675   0.48758
 Alpha virt. eigenvalues --    0.54706   0.56247   0.61662   0.68634   0.71933
 Alpha virt. eigenvalues --    0.72873   0.77397   0.82326   0.82614   0.84793

 Mulliken charges:
               1
     1  O   -0.566186
     2  H    0.294263
     3  H    0.243488
     4  O   -0.494456
     5  H    0.266224
     6  H    0.256667
 Sum of Mulliken charges =  -0.00000

 Dipole moment (field-independent basis, Debye):
    X=             -1.2446    Y=             -3.7293    Z=              0.0000  Tot=              3.9315
 Quadrupole moment (field-independent basis, Debye-Ang):
   XX=             -9.1536   YY=             -8.7009   ZZ=            -14.7286
   XY=             -3.5710   XZ=              0.0000   YZ=              0.0000

 Normal termination of Gaussian 16 at Fri Aug 26 22:15:30 2022.
