 Gaussian 16, Revision A.03,
 Gaussian 16:  ES64L-G16RevA.03 25-Dec-2016

 ------------------
 #p CCSD(T)/cc-pVTZ
 ------------------

 ------------
 H2O_H2O_2924
 ------------
 Symbolic Z-matrix:
 Charge =  0 Multiplicity = 1

                         Standard orientation:
 ---------------------------------------------------------------------
 Center     Atomic      Atomic             Coordinates (Angstroms)
 Number     Number       Type             X           Y           Z
 ---------------------------------------------------------------------
      1          8           0       -0.013529    2.258005    0.000000
      2          1           0       -0.010435    1.275409    0.000000
      3          1           0        0.914956    2.579597    0.000000
      4          8           0       -0.013529   -2.098747    0.000000
      5          1           0       -0.996126   -2.101840    0.000000
      6          1           0        0.308063   -3.027232    0.000000
 ---------------------------------------------------------------------

 SCF Done:  E(RHF) =  -152.109830359     A.U. after   10 cycles
 E2 =    -0.5259405480D+00 EUMP2 =    -0.15263577090658D+03
 CCSD(T)
 CCSD(T)= -0.15266291576D+03

 The electronic state is 1-A'.
 Alpha  occ. eigenvalues --  -20.56657 -20.54649  -1.33945  -1.31968  -0.71356
 Alpha  occ. eigenvalues --   -0.69377  -0.57485  -0.55458  -0.51071  -0.49106
 Alpha virt. eigenvalues --    0.12211   0.15954   0.19224   0.23358   0.53893
 Alpha virt. eigenvalues --    0.55578   0.56347   0.58283   0.68263   0.69407
 Alpha virt. eigenvalues --    0.77798   0.78781   0.79737   0.80713   0.83184

 Mulliken charges:
               1
     1  O   -0.520461
     2  H    0.262787
     3  H    0.254960
     4  O   -0.514596
     5  H    0.258353
     6  H    0.258957
 Sum of Mulliken charges =  -0.00000

 Dipole moment (field-independent basis, Debye):
    X=              0.4665    Y=             -2.8688    Z=              0.0000  Tot=              2.9065
 Quadrupole moment (field-independent basis, Debye-Ang):
   XX=             -9.6483   YY=             -8.0117   ZZ=            -14.7194
   XY=              6.1021   XZ=              0.0000   YZ=              0.0000

 Normal termination of Gaussian 16 at Fri Aug 26 18:23:57 2022.
