 Gaussian 16, Revision A.03,
 Gaussian 16:  ES64L-G16RevA.03 25-Dec-2016

 ------------------
 #p CCSD(T)/cc-pVTZ
 ------------------

 ------------
 H2O_H2O_3375
 ------------
 Symbolic Z-matrix:
 Charge =  0 Multiplicity = 1

                         Standard orientation:
 ---------------------------------------------------------------------
 Center     Atomic      Atomic             Coordinates (Angstroms)
 Number     Number       Type             X           Y           Z
 ---------------------------------------------------------------------
      1          8           0        0.092949   -2.433083    0.000000
      2          1           0        0.092949   -1.450481    0.000000
      3          1           0       -0.836544   -2.751749    0.000000
      4          8           0        0.092949    2.300295    0.000000
      5          1           0        0.092950    3.282898    0.000000
      6          1           0       -0.836544    1.981629    0.000000
 ---------------------------------------------------------------------

 SCF Done:  E(RHF) =  -152.107871634     A.U. after   10 cycles
 E2 =    -0.5259901586D+00 EUMP2 =    -0.15263386179279D+03
 CCSD(T)
 CCSD(T)= -0.15266105911D+03

 The electronic state is 1-A'.
 Alpha  occ. eigenvalues --  -20.56501 -20.55222  -1.33798  -1.32523  -0.71225
 Alpha  occ. eigenvalues --   -0.69909  -0.57262  -0.55973  -0.50907  -0.49635
 Alpha virt. eigenvalues --    0.11673   0.15345   0.19087   0.22922   0.53674
 Alpha virt. eigenvalues --    0.54790   0.56459   0.57995   0.67178   0.68839
 Alpha virt. eigenvalues --    0.77999   0.78586   0.79239   0.81291   0.82464

 Mulliken charges:
               1
     1  O   -0.509808
     2  H    0.258819
     3  H    0.250299
     4  O   -0.509518
     5  H    0.259628
     6  H    0.250580
 Sum of Mulliken charges =  -0.00000

 Dipole moment (field-independent basis, Debye):
    X=             -3.1726    Y=              2.3626    Z=              0.0000  Tot=              3.9557
 Quadrupole moment (field-independent basis, Debye-Ang):
   XX=            -10.8534   YY=             -9.2389   ZZ=            -14.7122
   XY=              2.1514   XZ=              0.0000   YZ=              0.0000

 Normal termination of Gaussian 16 at Fri Aug 26 21:21:13 2022.
