 Gaussian 16, Revision A.03,
 Gaussian 16:  ES64L-G16RevA.03 25-Dec-2016

 ------------------
 #p CCSD(T)/cc-pVTZ
 ------------------

 ------------
 H2O_H2O_3561
 ------------
 Symbolic Z-matrix:
 Charge =  0 Multiplicity = 1

                         Standard orientation:
 ---------------------------------------------------------------------
 Center     Atomic      Atomic             Coordinates (Angstroms)
 Number     Number       Type             X           Y           Z
 ---------------------------------------------------------------------
      1          8           0        0.059633    2.527151    0.000000
      2          1           0        0.058473    1.544550    0.000000
      3          1           0       -0.869484    2.846914    0.000000
      4          8           0        0.059633   -2.349695    0.000000
      5          1           0        0.706635   -3.089218    0.000000
      6          1           0       -0.849749   -2.721893    0.000000
 ---------------------------------------------------------------------

 SCF Done:  E(RHF) =  -152.108970287     A.U. after   10 cycles
 E2 =    -0.5258683925D+00 EUMP2 =    -0.15263483867943D+03
 CCSD(T)
 CCSD(T)= -0.15266201169D+03

 The electronic state is 1-A'.
 Alpha  occ. eigenvalues --  -20.56425 -20.54715  -1.33717  -1.32028  -0.71122
 Alpha  occ. eigenvalues --   -0.69422  -0.57227  -0.55505  -0.50839  -0.49155
 Alpha virt. eigenvalues --    0.12740   0.15456   0.19540   0.21719   0.53411
 Alpha virt. eigenvalues --    0.55051   0.56472   0.58017   0.66934   0.69295
 Alpha virt. eigenvalues --    0.78064   0.78946   0.79688   0.79770   0.82979

 Mulliken charges:
               1
     1  O   -0.515414
     2  H    0.262467
     3  H    0.251819
     4  O   -0.514822
     5  H    0.259817
     6  H    0.256134
 Sum of Mulliken charges =   0.00000

 Dipole moment (field-independent basis, Debye):
    X=             -2.0384    Y=             -3.1545    Z=              0.0000  Tot=              3.7558
 Quadrupole moment (field-independent basis, Debye-Ang):
   XX=             -9.3632   YY=             -6.9546   ZZ=            -14.7168
   XY=             -4.4632   XZ=             -0.0000   YZ=              0.0000

 CCSD(T)=-152.6620117\RMSD=7.052e-09\PG=CS [SG(H4O2)]\\@
 Normal termination of Gaussian 16 at Fri Aug 26 22:23:55 2022.
