 Gaussian 16, Revision A.03,
 Gaussian 16:  ES64L-G16RevA.03 25-Dec-2016

 ------------------
 #p CCSD(T)/cc-pVTZ
 ------------------

 ------------
 H2O_H2O_1416
 ------------
 Symbolic Z-matrix:
 Charge =  0 Multiplicity = 1

                         Standard orientation:
 ---------------------------------------------------------------------
 Center     Atomic      Atomic             Coordinates (Angstroms)
 Number     Number       Type             X           Y           Z
 ---------------------------------------------------------------------
      1          8           0        0.041217    1.670876    0.000000
      2          1           0        0.038436    0.688278    0.000000
      3          1           0       -0.887370    1.992172    0.000000
      4          8           0        0.041217   -1.491021   -0.000000
      5          1           0        0.890782   -1.984730   -0.000000
      6          1           0       -0.701327   -2.134553   -0.000000
 ---------------------------------------------------------------------

 SCF Done:  E(RHF) =  -152.114139697     A.U. after   10 cycles
 E2 =    -0.5273020359D+00 EUMP2 =    -0.15264144173265D+03
 CCSD(T)
 CCSD(T)= -0.15266842101D+03

 The electronic state is 1-A'.
 Alpha  occ. eigenvalues --  -20.58077 -20.52731  -1.35380  -1.30204  -0.72706
 Alpha  occ. eigenvalues --   -0.67954  -0.59209  -0.53509  -0.52506  -0.47354
 Alpha virt. eigenvalues --    0.12062   0.17786   0.18896   0.29562   0.49828
 Alpha virt. eigenvalues --    0.54523   0.55995   0.60053   0.68860   0.71932
 Alpha virt. eigenvalues --    0.73984   0.76939   0.81708   0.82950   0.84882

 Mulliken charges:
               1
     1  O   -0.546347
     2  H    0.280567
     3  H    0.246378
     4  O   -0.505498
     5  H    0.265758
     6  H    0.259141
 Sum of Mulliken charges =  -0.00000

 Dipole moment (field-independent basis, Debye):
    X=             -1.3798    Y=             -3.5623    Z=             -0.0000  Tot=              3.8202
 Quadrupole moment (field-independent basis, Debye-Ang):
   XX=             -9.1512   YY=             -8.3493   ZZ=            -14.7355
   XY=             -3.7881   XZ=             -0.0000   YZ=              0.0000

 Normal termination of Gaussian 16 at Sat Aug 27 00:27:04 2022.
