 Gaussian 16, Revision A.03,
 Gaussian 16:  ES64L-G16RevA.03 25-Dec-2016

 ------------------
 #p CCSD(T)/cc-pVTZ
 ------------------

 ------------
 H2O_H2O_1287
 ------------
 Symbolic Z-matrix:
 Charge =  0 Multiplicity = 1

                         Standard orientation:
 ---------------------------------------------------------------------
 Center     Atomic      Atomic             Coordinates (Angstroms)
 Number     Number       Type             X           Y           Z
 ---------------------------------------------------------------------
      1          8           0        0.056050    1.620458    0.000000
      2          1           0        0.054001    0.637859    0.000000
      3          1           0       -0.872776    1.941062    0.000000
      4          8           0        0.056050   -1.441626   -0.000000
      5          1           0        0.749404   -2.137878   -0.000000
      6          1           0       -0.827431   -1.871704   -0.000000
 ---------------------------------------------------------------------

 SCF Done:  E(RHF) =  -152.113831940     A.U. after   10 cycles
 E2 =    -0.5277017823D+00 EUMP2 =    -0.15264153372281D+03
 CCSD(T)
 CCSD(T)= -0.15266848704D+03

 The electronic state is 1-A'.
 Alpha  occ. eigenvalues --  -20.58292 -20.52520  -1.35634  -1.30033  -0.72949
 Alpha  occ. eigenvalues --   -0.67955  -0.59385  -0.53275  -0.52742  -0.47168
 Alpha virt. eigenvalues --    0.11916   0.17602   0.19090   0.30240   0.49028
 Alpha virt. eigenvalues --    0.54863   0.56540   0.59633   0.69537   0.71891
 Alpha virt. eigenvalues --    0.73511   0.76801   0.81927   0.82755   0.84856

 Mulliken charges:
               1
     1  O   -0.548439
     2  H    0.285377
     3  H    0.241959
     4  O   -0.500639
     5  H    0.264171
     6  H    0.257571
 Sum of Mulliken charges =  -0.00000

 Dipole moment (field-independent basis, Debye):
    X=             -1.8668    Y=             -3.5968    Z=             -0.0000  Tot=              4.0524
 Quadrupole moment (field-independent basis, Debye-Ang):
   XX=             -9.2968   YY=             -8.4727   ZZ=            -14.7328
   XY=             -3.4633   XZ=             -0.0000   YZ=              0.0000

 Normal termination of Gaussian 16 at Fri Aug 26 23:37:08 2022.
