 Gaussian 16, Revision A.03,
 Gaussian 16:  ES64L-G16RevA.03 25-Dec-2016

 ------------------
 #p CCSD(T)/cc-pVTZ
 ------------------

 ------------
 H2O_H2O_1704
 ------------
 Symbolic Z-matrix:
 Charge =  0 Multiplicity = 1

                         Standard orientation:
 ---------------------------------------------------------------------
 Center     Atomic      Atomic             Coordinates (Angstroms)
 Number     Number       Type             X           Y           Z
 ---------------------------------------------------------------------
      1          8           0        0.082814   -1.776756    0.000000
      2          1           0        0.082307   -0.794155    0.000000
      3          1           0       -0.846515   -2.095902    0.000000
      4          8           0        0.082814    1.622260    0.000000
      5          1           0        0.336641    2.571511    0.000000
      6          1           0       -0.897450    1.554516    0.000000
 ---------------------------------------------------------------------

 SCF Done:  E(RHF) =  -152.110785533     A.U. after   10 cycles
 E2 =    -0.5270137016D+00 EUMP2 =    -0.15263779923477D+03
 CCSD(T)
 CCSD(T)= -0.15266487207D+03

 The electronic state is 1-A'.
 Alpha  occ. eigenvalues --  -20.57640 -20.54052  -1.34940  -1.31408  -0.72450
 Alpha  occ. eigenvalues --   -0.68782  -0.58540  -0.54805  -0.52040  -0.48531
 Alpha virt. eigenvalues --    0.11713   0.16539   0.19821   0.27074   0.50542
 Alpha virt. eigenvalues --    0.55335   0.57071   0.57984   0.68929   0.74271
 Alpha virt. eigenvalues --    0.75010   0.77807   0.80630   0.82836   0.83620

 Mulliken charges:
               1
     1  O   -0.524126
     2  H    0.270949
     3  H    0.242506
     4  O   -0.496089
     5  H    0.256608
     6  H    0.250153
 Sum of Mulliken charges =  -0.00000

 Dipole moment (field-independent basis, Debye):
    X=             -2.7810    Y=              2.9590    Z=              0.0000  Tot=              4.0608
 Quadrupole moment (field-independent basis, Debye-Ang):
   XX=            -10.2824   YY=             -8.5757   ZZ=            -14.7214
   XY=              2.7885   XZ=              0.0000   YZ=              0.0000

 Normal termination of Gaussian 16 at Sun Aug 28 00:50:18 2022.
