 Gaussian 16, Revision A.03,
 Gaussian 16:  ES64L-G16RevA.03 25-Dec-2016

 ------------------
 #p CCSD(T)/cc-pVTZ
 ------------------

 ------------
 H2O_H2O_2810
 ------------
 Symbolic Z-matrix:
 Charge =  0 Multiplicity = 1

                         Standard orientation:
 ---------------------------------------------------------------------
 Center     Atomic      Atomic             Coordinates (Angstroms)
 Number     Number       Type             X           Y           Z
 ---------------------------------------------------------------------
      1          8           0        0.063242    2.226931    0.000000
      2          1           0        0.062063    1.244330    0.000000
      3          1           0       -0.865868    2.546712   -0.000000
      4          8           0        0.063242   -2.051432    0.000000
      5          1           0        0.660476   -2.831698    0.000000
      6          1           0       -0.868541   -2.363337   -0.000000
 ---------------------------------------------------------------------

 SCF Done:  E(RHF) =  -152.109895505     A.U. after   10 cycles
 E2 =    -0.5260201045D+00 EUMP2 =    -0.15263591560904D+03
 CCSD(T)
 CCSD(T)= -0.15266305104D+03

 The electronic state is 1-A'.
 Alpha  occ. eigenvalues --  -20.56756 -20.54419  -1.34030  -1.31740  -0.71435
 Alpha  occ. eigenvalues --   -0.69126  -0.57574  -0.55220  -0.51158  -0.48873
 Alpha virt. eigenvalues --    0.12313   0.16045   0.19421   0.23104   0.53257
 Alpha virt. eigenvalues --    0.55501   0.56211   0.58762   0.68780   0.69432
 Alpha virt. eigenvalues --    0.77703   0.79061   0.79824   0.79963   0.83263

 Mulliken charges:
               1
     1  O   -0.518580
     2  H    0.264830
     3  H    0.249970
     4  O   -0.511892
     5  H    0.260157
     6  H    0.255515
 Sum of Mulliken charges =  -0.00000

 Dipole moment (field-independent basis, Debye):
    X=             -2.1530    Y=             -3.1791    Z=             -0.0000  Tot=              3.8395
 Quadrupole moment (field-independent basis, Debye-Ang):
   XX=             -9.4592   YY=             -7.4723   ZZ=            -14.7197
   XY=             -3.9700   XZ=              0.0000   YZ=             -0.0000

 Normal termination of Gaussian 16 at Fri Aug 26 17:28:38 2022.
