 Gaussian 16, Revision A.03,
 Gaussian 16:  ES64L-G16RevA.03 25-Dec-2016

 ------------------
 #p CCSD(T)/cc-pVTZ
 ------------------

 ------------
 H2O_H2O_2498
 ------------
 Symbolic Z-matrix:
 Charge =  0 Multiplicity = 1

                         Standard orientation:
 ---------------------------------------------------------------------
 Center     Atomic      Atomic             Coordinates (Angstroms)
 Number     Number       Type             X           Y           Z
 ---------------------------------------------------------------------
      1          8           0       -0.016657    2.090720    0.000000
      2          1           0       -0.013433    1.108124    0.000000
      3          1           0        0.911786    2.412435    0.000000
      4          8           0       -0.016657   -1.927343    0.000000
      5          1           0       -0.996938   -1.994824    0.000000
      6          1           0        0.365092   -2.832757    0.000000
 ---------------------------------------------------------------------

 SCF Done:  E(RHF) =  -152.110725572     A.U. after   10 cycles
 E2 =    -0.5260791273D+00 EUMP2 =    -0.15263680469976D+03
 CCSD(T)
 CCSD(T)= -0.15266391876D+03

 The electronic state is 1-A'.
 Alpha  occ. eigenvalues --  -20.56906 -20.54363  -1.34183  -1.31692  -0.71595
 Alpha  occ. eigenvalues --   -0.69102  -0.57767  -0.55181  -0.51314  -0.48838
 Alpha virt. eigenvalues --    0.12209   0.16377   0.19259   0.24406   0.53826
 Alpha virt. eigenvalues --    0.55401   0.56202   0.58542   0.68748   0.70794
 Alpha virt. eigenvalues --    0.77361   0.79234   0.80031   0.81012   0.83657

 Mulliken charges:
               1
     1  O   -0.524466
     2  H    0.264913
     3  H    0.254318
     4  O   -0.512396
     5  H    0.259399
     6  H    0.258234
 Sum of Mulliken charges =  -0.00000

 Dipole moment (field-independent basis, Debye):
    X=              0.5719    Y=             -2.9893    Z=              0.0000  Tot=              3.0435
 Quadrupole moment (field-independent basis, Debye-Ang):
   XX=             -9.5437   YY=             -8.0240   ZZ=            -14.7222
   XY=              5.4850   XZ=              0.0000   YZ=              0.0000

 Normal termination of Gaussian 16 at Sun Aug 28 07:44:40 2022.
