 Gaussian 16, Revision A.03,
 Gaussian 16:  ES64L-G16RevA.03 25-Dec-2016

 ------------------
 #p CCSD(T)/cc-pVTZ
 ------------------

 ------------
 H2O_H2O_3307
 ------------
 Symbolic Z-matrix:
 Charge =  0 Multiplicity = 1

                         Standard orientation:
 ---------------------------------------------------------------------
 Center     Atomic      Atomic             Coordinates (Angstroms)
 Number     Number       Type             X           Y           Z
 ---------------------------------------------------------------------
      1          8           0        0.073534    2.421721    0.000000
      2          1           0        0.072829    1.439120    0.000000
      3          1           0       -0.855730    2.741054    0.000000
      4          8           0        0.073534   -2.254776    0.000000
      5          1           0        0.507496   -3.136356    0.000000
      6          1           0       -0.901136   -2.379378    0.000000
 ---------------------------------------------------------------------

 SCF Done:  E(RHF) =  -152.108878348     A.U. after   10 cycles
 E2 =    -0.5259313145D+00 EUMP2 =    -0.15263480966222D+03
 CCSD(T)
 CCSD(T)= -0.15266197948D+03

 The electronic state is 1-A'.
 Alpha  occ. eigenvalues --  -20.56521 -20.54764  -1.33811  -1.32075  -0.71222
 Alpha  occ. eigenvalues --   -0.69464  -0.57313  -0.55546  -0.50931  -0.49199
 Alpha virt. eigenvalues --    0.12369   0.15567   0.19418   0.22143   0.53481
 Alpha virt. eigenvalues --    0.55116   0.56390   0.58225   0.67299   0.69279
 Alpha virt. eigenvalues --    0.77976   0.78697   0.79647   0.80315   0.82909

 Mulliken charges:
               1
     1  O   -0.514376
     2  H    0.262146
     3  H    0.250667
     4  O   -0.512928
     5  H    0.259990
     6  H    0.254502
 Sum of Mulliken charges =   0.00000

 Dipole moment (field-independent basis, Debye):
    X=             -2.5101    Y=             -2.9813    Z=             -0.0000  Tot=              3.8973
 Quadrupole moment (field-independent basis, Debye-Ang):
   XX=             -9.8142   YY=             -7.5530   ZZ=            -14.7163
   XY=             -3.6298   XZ=             -0.0000   YZ=             -0.0000

 Normal termination of Gaussian 16 at Fri Aug 26 20:57:13 2022.
