 Gaussian 16, Revision A.03,
 Gaussian 16:  ES64L-G16RevA.03 25-Dec-2016

 ------------------
 #p CCSD(T)/cc-pVTZ
 ------------------

 ------------
 H2O_H2O_1624
 ------------
 Symbolic Z-matrix:
 Charge =  0 Multiplicity = 1

                         Standard orientation:
 ---------------------------------------------------------------------
 Center     Atomic      Atomic             Coordinates (Angstroms)
 Number     Number       Type             X           Y           Z
 ---------------------------------------------------------------------
      1          8           0        0.013607   -1.739455    0.000000
      2          1           0        0.009547   -0.756862    0.000000
      3          1           0       -0.914561   -2.061960    0.000000
      4          8           0        0.013607    1.580223    0.000000
      5          1           0        0.996201    1.584283    0.000000
      6          1           0       -0.308898    2.508392    0.000000
 ---------------------------------------------------------------------

 SCF Done:  E(RHF) =  -152.112696103     A.U. after   10 cycles
 E2 =    -0.5268733865D+00 EUMP2 =    -0.15263956948952D+03
 CCSD(T)
 CCSD(T)= -0.15266660845D+03

 The electronic state is 1-A'.
 Alpha  occ. eigenvalues --  -20.57695 -20.53599  -1.35006  -1.31000  -0.72495
 Alpha  occ. eigenvalues --   -0.68468  -0.58765  -0.54385  -0.52121  -0.48154
 Alpha virt. eigenvalues --    0.12166   0.17314   0.19235   0.28216   0.51368
 Alpha virt. eigenvalues --    0.54423   0.55724   0.60206   0.68804   0.74118
 Alpha virt. eigenvalues --    0.74668   0.77525   0.80999   0.82902   0.84239

 Mulliken charges:
               1
     1  O   -0.539600
     2  H    0.271509
     3  H    0.254219
     4  O   -0.502878
     5  H    0.262260
     6  H    0.254490
 Sum of Mulliken charges =   0.00000

 Dipole moment (field-independent basis, Debye):
    X=             -0.4698    Y=              3.0806    Z=              0.0000  Tot=              3.1162
 Quadrupole moment (field-independent basis, Debye-Ang):
   XX=             -9.6494   YY=             -8.5087   ZZ=            -14.7286
   XY=              4.6812   XZ=              0.0000   YZ=              0.0000

 28\MP4DQ=-152.6483395\MP4SDQ=-152.6514386\CCSD=-152.6508239\CCSD(T)=-1
 Normal termination of Gaussian 16 at Sat Aug 27 23:59:26 2022.
