 Gaussian 16, Revision A.03,
 Gaussian 16:  ES64L-G16RevA.03 25-Dec-2016

 ------------------
 #p CCSD(T)/cc-pVTZ
 ------------------

 -----------
 H2O_H2O_866
 -----------
 Symbolic Z-matrix:
 Charge =  0 Multiplicity = 1

                         Standard orientation:
 ---------------------------------------------------------------------
 Center     Atomic      Atomic             Coordinates (Angstroms)
 Number     Number       Type             X           Y           Z
 ---------------------------------------------------------------------
      1          8           0        0.041258    1.451475   -0.000000
      2          1           0        0.038029    0.468879   -0.000000
      3          1           0       -0.887182    1.773195   -0.000000
      4          8           0        0.041258   -1.271659    0.000000
      5          1           0        0.890597   -1.765754    0.000000
      6          1           0       -0.701580   -1.914852    0.000000
 ---------------------------------------------------------------------

 SCF Done:  E(RHF) =  -152.111988758     A.U. after   10 cycles
 E2 =    -0.5292563515D+00 EUMP2 =    -0.15264124510923D+03
 CCSD(T)
 CCSD(T)= -0.15266799493D+03

 The electronic state is 1-A'.
 Alpha  occ. eigenvalues --  -20.59157 -20.50923  -1.36813  -1.28773  -0.73920
 Alpha  occ. eigenvalues --   -0.68516  -0.59708  -0.53809  -0.51588  -0.45857
 Alpha virt. eigenvalues --    0.11733   0.18174   0.19002   0.32677   0.48115
 Alpha virt. eigenvalues --    0.54473   0.57562   0.62312   0.69008   0.71914
 Alpha virt. eigenvalues --    0.72536   0.77780   0.82066   0.82925   0.84625

 Mulliken charges:
               1
     1  O   -0.581254
     2  H    0.304295
     3  H    0.238868
     4  O   -0.482985
     5  H    0.265455
     6  H    0.255621
 Sum of Mulliken charges =  -0.00000

 Dipole moment (field-independent basis, Debye):
    X=             -1.3535    Y=             -3.9017    Z=              0.0000  Tot=              4.1298
 Quadrupole moment (field-independent basis, Debye-Ang):
   XX=             -9.1392   YY=             -8.9313   ZZ=            -14.7176
   XY=             -3.3678   XZ=              0.0000   YZ=             -0.0000

 Normal termination of Gaussian 16 at Fri Aug 26 20:59:41 2022.
