 Gaussian 16, Revision A.03,
 Gaussian 16:  ES64L-G16RevA.03 25-Dec-2016

 ------------------
 #p CCSD(T)/cc-pVTZ
 ------------------

 -----------
 H2O_H2O_754
 -----------
 Symbolic Z-matrix:
 Charge =  0 Multiplicity = 1

                         Standard orientation:
 ---------------------------------------------------------------------
 Center     Atomic      Atomic             Coordinates (Angstroms)
 Number     Number       Type             X           Y           Z
 ---------------------------------------------------------------------
      1          8           0        0.082825   -1.397810    0.000000
      2          1           0        0.082173   -0.415209    0.000000
      3          1           0       -0.846456   -1.717093    0.000000
      4          8           0        0.082825    1.243339    0.000000
      5          1           0        0.336511    2.192627    0.000000
      6          1           0       -0.897428    1.175450    0.000000
 ---------------------------------------------------------------------

 SCF Done:  E(RHF) =  -152.104995162     A.U. after   10 cycles
 E2 =    -0.5306997315D+00 EUMP2 =    -0.15263569489322D+03
 CCSD(T)
 CCSD(T)= -0.15266243665D+03

 The electronic state is 1-A'.
 Alpha  occ. eigenvalues --  -20.59340 -20.51772  -1.37300  -1.29583  -0.75354
 Alpha  occ. eigenvalues --   -0.68299  -0.59676  -0.54084  -0.52462  -0.46613
 Alpha virt. eigenvalues --    0.11386   0.16687   0.20310   0.32183   0.48250
 Alpha virt. eigenvalues --    0.53346   0.58773   0.62117   0.69589   0.71927
 Alpha virt. eigenvalues --    0.74239   0.77862   0.79800   0.83040   0.83554

 Mulliken charges:
               1
     1  O   -0.561348
     2  H    0.293747
     3  H    0.225688
     4  O   -0.430093
     5  H    0.235263
     6  H    0.236743
 Sum of Mulliken charges =  -0.00000

 Dipole moment (field-independent basis, Debye):
    X=             -2.6932    Y=              3.4408    Z=              0.0000  Tot=              4.3695
 Quadrupole moment (field-independent basis, Debye-Ang):
   XX=            -10.2897   YY=             -9.1001   ZZ=            -14.6822
   XY=              2.5955   XZ=              0.0000   YZ=              0.0000

 Normal termination of Gaussian 16 at Fri Aug 26 20:18:11 2022.
