 Gaussian 16, Revision A.03,
 Gaussian 16:  ES64L-G16RevA.03 25-Dec-2016

 ------------------
 #p CCSD(T)/cc-pVTZ
 ------------------

 ------------
 H2O_H2O_3601
 ------------
 Symbolic Z-matrix:
 Charge =  0 Multiplicity = 1

                         Standard orientation:
 ---------------------------------------------------------------------
 Center     Atomic      Atomic             Coordinates (Angstroms)
 Number     Number       Type             X           Y           Z
 ---------------------------------------------------------------------
      1          8           0        0.090684   -2.526047    0.000000
      2          1           0        0.090606   -1.543445    0.000000
      3          1           0       -0.838783   -2.844787    0.000000
      4          8           0        0.090684    2.387337    0.000000
      5          1           0        0.154872    3.367841    0.000000
      6          1           0       -0.857640    2.130069    0.000000
 ---------------------------------------------------------------------

 SCF Done:  E(RHF) =  -152.107926869     A.U. after   10 cycles
 E2 =    -0.5259412762D+00 EUMP2 =    -0.15263386814474D+03
 CCSD(T)
 CCSD(T)= -0.15266106734D+03

 The electronic state is 1-A'.
 Alpha  occ. eigenvalues --  -20.56424 -20.55186  -1.33722  -1.32489  -0.71144
 Alpha  occ. eigenvalues --   -0.69878  -0.57189  -0.55942  -0.50833  -0.49602
 Alpha virt. eigenvalues --    0.11966   0.15237   0.19033   0.22477   0.53331
 Alpha virt. eigenvalues --    0.54944   0.56464   0.57964   0.66897   0.68889
 Alpha virt. eigenvalues --    0.78072   0.78764   0.79267   0.81331   0.82466

 Mulliken charges:
               1
     1  O   -0.510208
     2  H    0.258851
     3  H    0.250815
     4  O   -0.510618
     5  H    0.259505
     6  H    0.251656
 Sum of Mulliken charges =  -0.00000

 Dipole moment (field-independent basis, Debye):
    X=             -3.0992    Y=              2.4593    Z=              0.0000  Tot=              3.9564
 Quadrupole moment (field-independent basis, Debye-Ang):
   XX=            -10.7055   YY=             -8.9080   ZZ=            -14.7126
   XY=              2.3865   XZ=              0.0000   YZ=              0.0000

 Normal termination of Gaussian 16 at Fri Aug 26 22:37:08 2022.
