 Gaussian 16, Revision A.03,
 Gaussian 16:  ES64L-G16RevA.03 25-Dec-2016

 ------------------
 #p CCSD(T)/cc-pVTZ
 ------------------

 ------------
 H2O_H2O_4373
 ------------
 Symbolic Z-matrix:
 Charge =  0 Multiplicity = 1

                         Standard orientation:
 ---------------------------------------------------------------------
 Center     Atomic      Atomic             Coordinates (Angstroms)
 Number     Number       Type             X           Y           Z
 ---------------------------------------------------------------------
      1          8           0       -0.016584    2.838627    0.000000
      2          1           0       -0.014235    1.856029    0.000000
      3          1           0        0.912145    3.159515    0.000000
      4          8           0       -0.016584   -2.675220    0.000000
      5          1           0       -0.996926   -2.741829    0.000000
      6          1           0        0.364358   -3.580973    0.000000
 ---------------------------------------------------------------------

 SCF Done:  E(RHF) =  -152.108497503     A.U. after   10 cycles
 E2 =    -0.5258006498D+00 EUMP2 =    -0.15263429815316D+03
 CCSD(T)
 CCSD(T)= -0.15266149388D+03

 The electronic state is 1-A'.
 Alpha  occ. eigenvalues --  -20.56203 -20.55035  -1.33505  -1.32343  -0.70911
 Alpha  occ. eigenvalues --   -0.69750  -0.57000  -0.55818  -0.50624  -0.49468
 Alpha virt. eigenvalues --    0.13147   0.14964   0.19401   0.21359   0.53391
 Alpha virt. eigenvalues --    0.54961   0.56658   0.57792   0.66785   0.68737
 Alpha virt. eigenvalues --    0.78263   0.79388   0.79408   0.80713   0.82541

 Mulliken charges:
               1
     1  O   -0.514607
     2  H    0.259632
     3  H    0.254822
     4  O   -0.515100
     5  H    0.257150
     6  H    0.258103
 Sum of Mulliken charges =  -0.00000

 Dipole moment (field-independent basis, Debye):
    X=              0.5702    Y=             -2.8700    Z=              0.0000  Tot=              2.9261
 Quadrupole moment (field-independent basis, Debye-Ang):
   XX=             -9.5434   YY=             -7.2658   ZZ=            -14.7150
   XY=              7.4530   XZ=              0.0000   YZ=              0.0000

 Normal termination of Gaussian 16 at Sun Aug 28 02:19:59 2022.
