 Gaussian 16, Revision A.03,
 Gaussian 16:  ES64L-G16RevA.03 25-Dec-2016

 ------------------
 #p CCSD(T)/cc-pVTZ
 ------------------

 ----------
 H2O_H2O_76
 ----------
 Symbolic Z-matrix:
 Charge =  0 Multiplicity = 1

                         Standard orientation:
 ---------------------------------------------------------------------
 Center     Atomic      Atomic             Coordinates (Angstroms)
 Number     Number       Type             X           Y           Z
 ---------------------------------------------------------------------
      1          8           0        0.090692   -1.119995    0.000000
      2          1           0        0.090509   -0.137393    0.000000
      3          1           0       -0.838742   -1.438834    0.000000
      4          8           0        0.090692    0.981305    0.000000
      5          1           0        0.154775    1.961814    0.000000
      6          1           0       -0.857605    0.723935    0.000000
 ---------------------------------------------------------------------

 SCF Done:  E(RHF) =  -152.026211409     A.U. after   11 cycles
 E2 =    -0.5392235117D+00 EUMP2 =    -0.15256543492074D+03
 CCSD(T)
 CCSD(T)= -0.15259100215D+03

 The electronic state is 1-A'.
 Alpha  occ. eigenvalues --  -20.61571 -20.47249  -1.44357  -1.26664  -0.83957
 Alpha  occ. eigenvalues --   -0.70779  -0.58156  -0.56494  -0.47899  -0.43454
 Alpha virt. eigenvalues --    0.10674   0.15787   0.21895   0.31493   0.49237
 Alpha virt. eigenvalues --    0.50607   0.59964   0.67174   0.70864   0.72550
 Alpha virt. eigenvalues --    0.74931   0.78607   0.79830   0.85783   0.85821

 Mulliken charges:
               1
     1  O   -0.602321
     2  H    0.254404
     3  H    0.185332
     4  O   -0.302597
     5  H    0.226257
     6  H    0.238925
 Sum of Mulliken charges =  -0.00000

 Dipole moment (field-independent basis, Debye):
    X=             -2.8102    Y=              4.0470    Z=              0.0000  Tot=              4.9270
 Quadrupole moment (field-independent basis, Debye-Ang):
   XX=            -10.6443   YY=             -9.9932   ZZ=            -14.5064
   XY=              2.0192   XZ=              0.0000   YZ=              0.0000

 Normal termination of Gaussian 16 at Fri Aug 26 15:41:54 2022.
