 Gaussian 16, Revision A.03,
 Gaussian 16:  ES64L-G16RevA.03 25-Dec-2016

 ------------------
 #p CCSD(T)/cc-pVTZ
 ------------------

 ------------
 H2O_H2O_4360
 ------------
 Symbolic Z-matrix:
 Charge =  0 Multiplicity = 1

                         Standard orientation:
 ---------------------------------------------------------------------
 Center     Atomic      Atomic             Coordinates (Angstroms)
 Number     Number       Type             X           Y           Z
 ---------------------------------------------------------------------
      1          8           0        0.063218    2.845207    0.000000
      2          1           0        0.062304    1.862606    0.000000
      3          1           0       -0.865978    3.164739    0.000000
      4          8           0        0.063218   -2.669674   -0.000000
      5          1           0        0.660663   -3.449780   -0.000000
      6          1           0       -0.868481   -2.981831   -0.000000
 ---------------------------------------------------------------------

 SCF Done:  E(RHF) =  -152.108339332     A.U. after   10 cycles
 E2 =    -0.5258251925D+00 EUMP2 =    -0.15263416452469D+03
 CCSD(T)
 CCSD(T)= -0.15266136211D+03

 The electronic state is 1-A'.
 Alpha  occ. eigenvalues --  -20.56217 -20.54959  -1.33518  -1.32266  -0.70924
 Alpha  occ. eigenvalues --   -0.69665  -0.57007  -0.55734  -0.50635  -0.49388
 Alpha virt. eigenvalues --    0.13232   0.14960   0.19615   0.21116   0.53550
 Alpha virt. eigenvalues --    0.54881   0.56621   0.57795   0.66780   0.68820
 Alpha virt. eigenvalues --    0.78254   0.79452   0.79469   0.80264   0.82694

 Mulliken charges:
               1
     1  O   -0.513221
     2  H    0.260440
     3  H    0.252602
     4  O   -0.514102
     5  H    0.258726
     6  H    0.255555
 Sum of Mulliken charges =  -0.00000

 Dipole moment (field-independent basis, Debye):
    X=             -2.1670    Y=             -3.0855    Z=             -0.0000  Tot=              3.7704
 Quadrupole moment (field-independent basis, Debye-Ang):
   XX=             -9.4540   YY=             -6.5825   ZZ=            -14.7145
   XY=             -4.6094   XZ=             -0.0000   YZ=             -0.0000

 Normal termination of Gaussian 16 at Sun Aug 28 02:14:56 2022.
