 Gaussian 16, Revision A.03,
 Gaussian 16:  ES64L-G16RevA.03 25-Dec-2016

 ------------------
 #p CCSD(T)/cc-pVTZ
 ------------------

 ------------
 H2O_H2O_3854
 ------------
 Symbolic Z-matrix:
 Charge =  0 Multiplicity = 1

                         Standard orientation:
 ---------------------------------------------------------------------
 Center     Atomic      Atomic             Coordinates (Angstroms)
 Number     Number       Type             X           Y           Z
 ---------------------------------------------------------------------
      1          8           0        0.082800    2.634356    0.000000
      2          1           0        0.082463    1.651755    0.000000
      3          1           0       -0.846584    2.953341   -0.000000
      4          8           0        0.082800   -2.479831    0.000000
      5          1           0        0.336792   -3.429039    0.000000
      6          1           0       -0.897475   -2.412257   -0.000000
 ---------------------------------------------------------------------

 SCF Done:  E(RHF) =  -152.108159686     A.U. after   10 cycles
 E2 =    -0.5258863287D+00 EUMP2 =    -0.15263404601463D+03
 CCSD(T)
 CCSD(T)= -0.15266124252D+03

 The electronic state is 1-A'.
 Alpha  occ. eigenvalues --  -20.56345 -20.55058  -1.33644  -1.32363  -0.71058
 Alpha  occ. eigenvalues --   -0.69756  -0.57122  -0.55824  -0.50758  -0.49481
 Alpha virt. eigenvalues --    0.12516   0.15143   0.19214   0.21783   0.53198
 Alpha virt. eigenvalues --    0.55028   0.56490   0.57921   0.66734   0.68965
 Alpha virt. eigenvalues --    0.78141   0.78919   0.79381   0.80950   0.82607

 Mulliken charges:
               1
     1  O   -0.511615
     2  H    0.259766
     3  H    0.251403
     4  O   -0.512400
     5  H    0.259408
     6  H    0.253438
 Sum of Mulliken charges =   0.00000

 Dipole moment (field-independent basis, Debye):
    X=             -2.8332    Y=             -2.7312    Z=             -0.0000  Tot=              3.9352
 Quadrupole moment (field-independent basis, Debye-Ang):
   XX=            -10.2472   YY=             -7.9777   ZZ=            -14.7137
   XY=             -3.1069   XZ=             -0.0000   YZ=             -0.0000

 Normal termination of Gaussian 16 at Sat Aug 27 00:06:05 2022.
