 Gaussian 16, Revision A.03,
 Gaussian 16:  ES64L-G16RevA.03 25-Dec-2016

 ------------------
 #p CCSD(T)/cc-pVTZ
 ------------------

 ------------
 H2O_H2O_1747
 ------------
 Symbolic Z-matrix:
 Charge =  0 Multiplicity = 1

                         Standard orientation:
 ---------------------------------------------------------------------
 Center     Atomic      Atomic             Coordinates (Angstroms)
 Number     Number       Type             X           Y           Z
 ---------------------------------------------------------------------
      1          8           0       -0.019936    1.793569    0.000000
      2          1           0       -0.016310    0.810974    0.000000
      3          1           0        0.908374    2.115664    0.000000
      4          8           0       -0.019936   -1.626501    0.000000
      5          1           0       -0.993653   -1.758351    0.000000
      6          1           0        0.420572   -2.504828    0.000000
 ---------------------------------------------------------------------

 SCF Done:  E(RHF) =  -152.112834467     A.U. after   10 cycles
 E2 =    -0.5266745496D+00 EUMP2 =    -0.15263950901698D+03
 CCSD(T)
 CCSD(T)= -0.15266655251D+03

 The electronic state is 1-A'.
 Alpha  occ. eigenvalues --  -20.57576 -20.53589  -1.34858  -1.30976  -0.72284
 Alpha  occ. eigenvalues --   -0.68449  -0.58608  -0.54393  -0.51987  -0.48133
 Alpha virt. eigenvalues --    0.12193   0.17266   0.19149   0.27547   0.51684
 Alpha virt. eigenvalues --    0.54341   0.55942   0.59680   0.68940   0.73414
 Alpha virt. eigenvalues --    0.75244   0.77765   0.80924   0.83186   0.84288

 Mulliken charges:
               1
     1  O   -0.536477
     2  H    0.270472
     3  H    0.252817
     4  O   -0.506990
     5  H    0.262625
     6  H    0.257555
 Sum of Mulliken charges =  -0.00000

 Dipole moment (field-independent basis, Debye):
    X=              0.6790    Y=             -3.1992    Z=              0.0000  Tot=              3.2705
 Quadrupole moment (field-independent basis, Debye-Ang):
   XX=             -9.4482   YY=             -8.2919   ZZ=            -14.7304
   XY=              4.5800   XZ=              0.0000   YZ=              0.0000

 Normal termination of Gaussian 16 at Sun Aug 28 01:12:02 2022.
