 Gaussian 16, Revision A.03,
 Gaussian 16:  ES64L-G16RevA.03 25-Dec-2016

 ------------------
 #p CCSD(T)/cc-pVTZ
 ------------------

 ------------
 H2O_H2O_3999
 ------------
 Symbolic Z-matrix:
 Charge =  0 Multiplicity = 1

                         Standard orientation:
 ---------------------------------------------------------------------
 Center     Atomic      Atomic             Coordinates (Angstroms)
 Number     Number       Type             X           Y           Z
 ---------------------------------------------------------------------
      1          8           0       -0.013487    2.686804    0.000000
      2          1           0       -0.010902    1.704206    0.000000
      3          1           0        0.915164    3.007914    0.000000
      4          8           0       -0.013487   -2.527531    0.000000
      5          1           0       -0.996086   -2.530116    0.000000
      6          1           0        0.307623   -3.456183    0.000000
 ---------------------------------------------------------------------

 SCF Done:  E(RHF) =  -152.108689685     A.U. after   10 cycles
 E2 =    -0.5258110879D+00 EUMP2 =    -0.15263450077295D+03
 CCSD(T)
 CCSD(T)= -0.15266168938D+03

 The electronic state is 1-A'.
 Alpha  occ. eigenvalues --  -20.56282 -20.54990  -1.33583  -1.32300  -0.70990
 Alpha  occ. eigenvalues --   -0.69708  -0.57084  -0.55778  -0.50703  -0.49427
 Alpha virt. eigenvalues --    0.12814   0.15164   0.19230   0.21781   0.53214
 Alpha virt. eigenvalues --    0.55138   0.56620   0.57837   0.66690   0.68958
 Alpha virt. eigenvalues --    0.78189   0.79073   0.79426   0.80848   0.82707

 Mulliken charges:
               1
     1  O   -0.515427
     2  H    0.260004
     3  H    0.255055
     4  O   -0.515625
     5  H    0.257265
     6  H    0.258728
 Sum of Mulliken charges =  -0.00000

 Dipole moment (field-independent basis, Debye):
    X=              0.4644    Y=             -2.8084    Z=              0.0000  Tot=              2.8466
 Quadrupole moment (field-independent basis, Debye-Ang):
   XX=             -9.6479   YY=             -7.6451   ZZ=            -14.7156
   XY=              7.2758   XZ=              0.0000   YZ=              0.0000

 Normal termination of Gaussian 16 at Sat Aug 27 00:55:09 2022.
