 Gaussian 16, Revision A.03,
 Gaussian 16:  ES64L-G16RevA.03 25-Dec-2016

 ------------------
 #p CCSD(T)/cc-pVTZ
 ------------------

 ------------
 H2O_H2O_3957
 ------------
 Symbolic Z-matrix:
 Charge =  0 Multiplicity = 1

                         Standard orientation:
 ---------------------------------------------------------------------
 Center     Atomic      Atomic             Coordinates (Angstroms)
 Number     Number       Type             X           Y           Z
 ---------------------------------------------------------------------
      1          8           0        0.073528    2.680997   -0.000000
      2          1           0        0.072893    1.698395   -0.000000
      3          1           0       -0.855759    3.000263   -0.000000
      4          8           0        0.073528   -2.514041    0.000000
      5          1           0        0.507553   -3.395590    0.000000
      6          1           0       -0.901133   -2.638712    0.000000
 ---------------------------------------------------------------------

 SCF Done:  E(RHF) =  -152.108369957     A.U. after   10 cycles
 E2 =    -0.5258578109D+00 EUMP2 =    -0.15263422776817D+03
 CCSD(T)
 CCSD(T)= -0.15266142053D+03

 The electronic state is 1-A'.
 Alpha  occ. eigenvalues --  -20.56313 -20.54951  -1.33611  -1.32258  -0.71021
 Alpha  occ. eigenvalues --   -0.69653  -0.57099  -0.55724  -0.50728  -0.49379
 Alpha virt. eigenvalues --    0.12830   0.15133   0.19427   0.21459   0.53312
 Alpha virt. eigenvalues --    0.54999   0.56527   0.57877   0.66700   0.69016
 Alpha virt. eigenvalues --    0.78168   0.79008   0.79477   0.80491   0.82733

 Mulliken charges:
               1
     1  O   -0.512861
     2  H    0.260619
     3  H    0.251812
     4  O   -0.513632
     5  H    0.259368
     6  H    0.254694
 Sum of Mulliken charges =  -0.00000

 Dipole moment (field-independent basis, Debye):
    X=             -2.5171    Y=             -2.9479    Z=              0.0000  Tot=              3.8763
 Quadrupole moment (field-independent basis, Debye-Ang):
   XX=             -9.8107   YY=             -7.2620   ZZ=            -14.7146
   XY=             -3.8060   XZ=              0.0000   YZ=             -0.0000

 Normal termination of Gaussian 16 at Sat Aug 27 00:40:55 2022.
