 Gaussian 16, Revision A.03,
 Gaussian 16:  ES64L-G16RevA.03 25-Dec-2016

 ------------------
 #p CCSD(T)/cc-pVTZ
 ------------------

 ------------
 H2O_H2O_1374
 ------------
 Symbolic Z-matrix:
 Charge =  0 Multiplicity = 1

                         Standard orientation:
 ---------------------------------------------------------------------
 Center     Atomic      Atomic             Coordinates (Angstroms)
 Number     Number       Type             X           Y           Z
 ---------------------------------------------------------------------
      1          8           0        0.013628   -1.639733    0.000000
      2          1           0        0.009308   -0.657141    0.000000
      3          1           0       -0.914455   -1.962483    0.000000
      4          8           0        0.013628    1.480508    0.000000
      5          1           0        0.996219    1.484828    0.000000
      6          1           0       -0.309122    2.408592    0.000000
 ---------------------------------------------------------------------

 SCF Done:  E(RHF) =  -152.112989256     A.U. after   10 cycles
 E2 =    -0.5273999495D+00 EUMP2 =    -0.15264038920515D+03
 CCSD(T)
 CCSD(T)= -0.15266738544D+03

 The electronic state is 1-A'.
 Alpha  occ. eigenvalues --  -20.58039 -20.53158  -1.35409  -1.30624  -0.72960
 Alpha  occ. eigenvalues --   -0.68187  -0.59219  -0.53909  -0.52501  -0.47772
 Alpha virt. eigenvalues --    0.12134   0.17626   0.19172   0.29697   0.50395
 Alpha virt. eigenvalues --    0.54573   0.55526   0.61249   0.68704   0.73624
 Alpha virt. eigenvalues --    0.74381   0.76891   0.81471   0.82425   0.84275

 Mulliken charges:
               1
     1  O   -0.548948
     2  H    0.277043
     3  H    0.253587
     4  O   -0.492189
     5  H    0.262481
     6  H    0.248026
 Sum of Mulliken charges =  -0.00000

 Dipole moment (field-independent basis, Debye):
    X=             -0.4698    Y=              3.1690    Z=              0.0000  Tot=              3.2036
 Quadrupole moment (field-independent basis, Debye-Ang):
   XX=             -9.6466   YY=             -8.6388   ZZ=            -14.7270
   XY=              4.4056   XZ=              0.0000   YZ=              0.0000

 Normal termination of Gaussian 16 at Sat Aug 27 00:11:48 2022.
