 Gaussian 16, Revision A.03,
 Gaussian 16:  ES64L-G16RevA.03 25-Dec-2016

 ------------------
 #p CCSD(T)/cc-pVTZ
 ------------------

 ------------
 H2O_H2O_4171
 ------------
 Symbolic Z-matrix:
 Charge =  0 Multiplicity = 1

                         Standard orientation:
 ---------------------------------------------------------------------
 Center     Atomic      Atomic             Coordinates (Angstroms)
 Number     Number       Type             X           Y           Z
 ---------------------------------------------------------------------
      1          8           0       -0.023174    2.762652    0.000000
      2          1           0       -0.020964    1.780053    0.000000
      3          1           0        0.905599    3.083409    0.000000
      4          8           0       -0.023174   -2.592246    0.000000
      5          1           0       -0.986462   -2.786111    0.000000
      6          1           0        0.472614   -3.440597    0.000000
 ---------------------------------------------------------------------

 SCF Done:  E(RHF) =  -152.108658960     A.U. after   10 cycles
 E2 =    -0.5258037689D+00 EUMP2 =    -0.15263446272876D+03
 CCSD(T)
 CCSD(T)= -0.15266165287D+03

 The electronic state is 1-A'.
 Alpha  occ. eigenvalues --  -20.56245 -20.54934  -1.33546  -1.32244  -0.70950
 Alpha  occ. eigenvalues --   -0.69649  -0.57047  -0.55721  -0.50666  -0.49370
 Alpha virt. eigenvalues --    0.13095   0.15091   0.19495   0.21373   0.53409
 Alpha virt. eigenvalues --    0.55000   0.56633   0.57823   0.66703   0.68919
 Alpha virt. eigenvalues --    0.78224   0.79242   0.79482   0.80432   0.82749

 Mulliken charges:
               1
     1  O   -0.515206
     2  H    0.260536
     3  H    0.254390
     4  O   -0.515640
     5  H    0.257825
     6  H    0.258096
 Sum of Mulliken charges =   0.00000

 Dipole moment (field-independent basis, Debye):
    X=              0.7952    Y=             -3.0001    Z=              0.0000  Tot=              3.1037
 Quadrupole moment (field-independent basis, Debye-Ang):
   XX=             -9.3618   YY=             -6.9584   ZZ=            -14.7156
   XY=              6.8068   XZ=              0.0000   YZ=              0.0000

 Normal termination of Gaussian 16 at Sun Aug 28 00:24:52 2022.
