 Gaussian 16, Revision A.03,
 Gaussian 16:  ES64L-G16RevA.03 25-Dec-2016

 ------------------
 #p CCSD(T)/cc-pVTZ
 ------------------

 ------------
 H2O_H2O_4192
 ------------
 Symbolic Z-matrix:
 Charge =  0 Multiplicity = 1

                         Standard orientation:
 ---------------------------------------------------------------------
 Center     Atomic      Atomic             Coordinates (Angstroms)
 Number     Number       Type             X           Y           Z
 ---------------------------------------------------------------------
      1          8           0        0.037416    2.777284   -0.000000
      2          1           0        0.035663    1.794684   -0.000000
      3          1           0       -0.891507    3.097608   -0.000000
      4          8           0        0.037416   -2.598295    0.000000
      5          1           0        0.917908   -3.034460    0.000000
      6          1           0       -0.660726   -3.289745    0.000000
 ---------------------------------------------------------------------

 SCF Done:  E(RHF) =  -152.108655317     A.U. after   10 cycles
 E2 =    -0.5258073399D+00 EUMP2 =    -0.15263446265678D+03
 CCSD(T)
 CCSD(T)= -0.15266165240D+03

 The electronic state is 1-A'.
 Alpha  occ. eigenvalues --  -20.56244 -20.54872  -1.33544  -1.32182  -0.70947
 Alpha  occ. eigenvalues --   -0.69584  -0.57046  -0.55658  -0.50664  -0.49307
 Alpha virt. eigenvalues --    0.13197   0.15096   0.19648   0.21222   0.53571
 Alpha virt. eigenvalues --    0.54909   0.56628   0.57818   0.66701   0.68964
 Alpha virt. eigenvalues --    0.78226   0.79460   0.79543   0.79966   0.82817

 Mulliken charges:
               1
     1  O   -0.514989
     2  H    0.261114
     3  H    0.253583
     4  O   -0.515533
     5  H    0.258463
     6  H    0.257362
 Sum of Mulliken charges =  -0.00000

 Dipole moment (field-independent basis, Debye):
    X=             -1.2824    Y=             -3.1517    Z=              0.0000  Tot=              3.4026
 Quadrupole moment (field-independent basis, Debye-Ang):
   XX=             -9.1593   YY=             -6.4891   ZZ=            -14.7157
   XY=             -5.9913   XZ=              0.0000   YZ=             -0.0000

 Normal termination of Gaussian 16 at Sun Aug 28 00:32:33 2022.
