 Gaussian 16, Revision A.03,
 Gaussian 16:  ES64L-G16RevA.03 25-Dec-2016

 ------------------
 #p CCSD(T)/cc-pVTZ
 ------------------

 -----------
 H2O_H2O_868
 -----------
 Symbolic Z-matrix:
 Charge =  0 Multiplicity = 1

                         Standard orientation:
 ---------------------------------------------------------------------
 Center     Atomic      Atomic             Coordinates (Angstroms)
 Number     Number       Type             X           Y           Z
 ---------------------------------------------------------------------
      1          8           0        0.033923    1.450176   -0.000000
      2          1           0        0.030235    0.467582   -0.000000
      3          1           0       -0.894367    1.772329    0.000000
      4          8           0        0.033923   -1.272755   -0.000000
      5          1           0        0.940311   -1.652185   -0.000000
      6          1           0       -0.618948   -2.007101    0.000000
 ---------------------------------------------------------------------

 SCF Done:  E(RHF) =  -152.111879592     A.U. after   10 cycles
 E2 =    -0.5292346641D+00 EUMP2 =    -0.15264111425610D+03
 CCSD(T)
 CCSD(T)= -0.15266786668D+03

 The electronic state is 1-A'.
 Alpha  occ. eigenvalues --  -20.59130 -20.50983  -1.36799  -1.28828  -0.73994
 Alpha  occ. eigenvalues --   -0.68411  -0.59773  -0.53789  -0.51639  -0.45916
 Alpha virt. eigenvalues --    0.11779   0.18357   0.18854   0.32711   0.48206
 Alpha virt. eigenvalues --    0.54497   0.57174   0.63293   0.68505   0.72345
 Alpha virt. eigenvalues --    0.72520   0.77656   0.81810   0.83047   0.84489

 Mulliken charges:
               1
     1  O   -0.582347
     2  H    0.302119
     3  H    0.241344
     4  O   -0.478943
     5  H    0.264957
     6  H    0.252870
 Sum of Mulliken charges =  -0.00000

 Dipole moment (field-independent basis, Debye):
    X=             -1.1159    Y=             -3.8519    Z=             -0.0000  Tot=              4.0103
 Quadrupole moment (field-independent basis, Debye-Ang):
   XX=             -9.1723   YY=             -8.9316   ZZ=            -14.7163
   XY=             -3.4466   XZ=              0.0000   YZ=              0.0000

 Normal termination of Gaussian 16 at Fri Aug 26 21:00:43 2022.
