 Gaussian 16, Revision A.03,
 Gaussian 16:  ES64L-G16RevA.03 25-Dec-2016

 ------------------
 #p CCSD(T)/cc-pVTZ
 ------------------

 ------------
 H2O_H2O_1422
 ------------
 Symbolic Z-matrix:
 Charge =  0 Multiplicity = 1

                         Standard orientation:
 ---------------------------------------------------------------------
 Center     Atomic      Atomic             Coordinates (Angstroms)
 Number     Number       Type             X           Y           Z
 ---------------------------------------------------------------------
      1          8           0       -0.019962    1.663928    0.000000
      2          1           0       -0.016037    0.681335    0.000000
      3          1           0        0.908251    1.986305    0.000000
      4          8           0       -0.019962   -1.496873    0.000000
      5          1           0       -0.993637   -1.629018    0.000000
      6          1           0        0.420813   -2.375067    0.000000
 ---------------------------------------------------------------------

 SCF Done:  E(RHF) =  -152.113518584     A.U. after   10 cycles
 E2 =    -0.5272583567D+00 EUMP2 =    -0.15264077694107D+03
 CCSD(T)
 CCSD(T)= -0.15266776987D+03

 The electronic state is 1-A'.
 Alpha  occ. eigenvalues --  -20.58000 -20.53043  -1.35336  -1.30504  -0.72786
 Alpha  occ. eigenvalues --   -0.68126  -0.59161  -0.53811  -0.52446  -0.47656
 Alpha virt. eigenvalues --    0.12135   0.17699   0.19032   0.29426   0.50429
 Alpha virt. eigenvalues --    0.54395   0.55777   0.60907   0.68818   0.73709
 Alpha virt. eigenvalues --    0.73902   0.77073   0.81510   0.82731   0.84360

 Mulliken charges:
               1
     1  O   -0.547416
     2  H    0.277414
     3  H    0.251766
     4  O   -0.498579
     5  H    0.263851
     6  H    0.252963
 Sum of Mulliken charges =  -0.00000

 Dipole moment (field-independent basis, Debye):
    X=              0.6770    Y=             -3.3061    Z=              0.0000  Tot=              3.3747
 Quadrupole moment (field-independent basis, Debye-Ang):
   XX=             -9.4458   YY=             -8.4947   ZZ=            -14.7310
   XY=              4.2484   XZ=              0.0000   YZ=              0.0000

 CCSD(T)=-152.6677699\RMSD=6.301e-09\PG=CS [SG(H4O2)]\\@
 Normal termination of Gaussian 16 at Sat Aug 27 00:29:14 2022.
