 Gaussian 16, Revision A.03,
 Gaussian 16:  ES64L-G16RevA.03 25-Dec-2016

 ------------------
 #p CCSD(T)/cc-pVTZ
 ------------------

 -----------
 H2O_H2O_854
 -----------
 Symbolic Z-matrix:
 Charge =  0 Multiplicity = 1

                         Standard orientation:
 ---------------------------------------------------------------------
 Center     Atomic      Atomic             Coordinates (Angstroms)
 Number     Number       Type             X           Y           Z
 ---------------------------------------------------------------------
      1          8           0        0.082824   -1.437700    0.000000
      2          1           0        0.082191   -0.455099    0.000000
      3          1           0       -0.846464   -1.756965    0.000000
      4          8           0        0.082824    1.283225    0.000000
      5          1           0        0.336528    2.232509    0.000000
      6          1           0       -0.897431    1.215355    0.000000
 ---------------------------------------------------------------------

 SCF Done:  E(RHF) =  -152.107244479     A.U. after   10 cycles
 E2 =    -0.5300288603D+00 EUMP2 =    -0.15263727333942D+03
 CCSD(T)
 CCSD(T)= -0.15266409325D+03

 The electronic state is 1-A'.
 Alpha  occ. eigenvalues --  -20.59086 -20.52201  -1.36868  -1.29904  -0.74813
 Alpha  occ. eigenvalues --   -0.68190  -0.59704  -0.53740  -0.52894  -0.46956
 Alpha virt. eigenvalues --    0.11452   0.16710   0.20214   0.31792   0.48246
 Alpha virt. eigenvalues --    0.53616   0.58647   0.61235   0.69268   0.72047
 Alpha virt. eigenvalues --    0.74342   0.77633   0.80303   0.82663   0.83585

 Mulliken charges:
               1
     1  O   -0.554902
     2  H    0.291840
     3  H    0.228623
     4  O   -0.440100
     5  H    0.236065
     6  H    0.238474
 Sum of Mulliken charges =  -0.00000

 Dipole moment (field-independent basis, Debye):
    X=             -2.7073    Y=              3.3557    Z=              0.0000  Tot=              4.3116
 Quadrupole moment (field-independent basis, Debye-Ang):
   XX=            -10.2927   YY=             -9.0181   ZZ=            -14.6924
   XY=              2.6215   XZ=              0.0000   YZ=              0.0000

 Normal termination of Gaussian 16 at Fri Aug 26 20:55:13 2022.
