 Gaussian 16, Revision A.03,
 Gaussian 16:  ES64L-G16RevA.03 25-Dec-2016

 ------------------
 #p CCSD(T)/cc-pVTZ
 ------------------

 ------------
 H2O_H2O_2008
 ------------
 Symbolic Z-matrix:
 Charge =  0 Multiplicity = 1

                         Standard orientation:
 ---------------------------------------------------------------------
 Center     Atomic      Atomic             Coordinates (Angstroms)
 Number     Number       Type             X           Y           Z
 ---------------------------------------------------------------------
      1          8           0        0.070216    1.904959    0.000000
      2          1           0        0.069155    0.922358    0.000000
      3          1           0       -0.858932    2.224629    0.000000
      4          8           0        0.070216   -1.734744   -0.000000
      5          1           0        0.560599   -2.586232   -0.000000
      6          1           0       -0.894284   -1.922475   -0.000000
 ---------------------------------------------------------------------

 SCF Done:  E(RHF) =  -152.111366809     A.U. after   10 cycles
 E2 =    -0.5265100861D+00 EUMP2 =    -0.15263787689469D+03
 CCSD(T)
 CCSD(T)= -0.15266495603D+03

 The electronic state is 1-A'.
 Alpha  occ. eigenvalues --  -20.57345 -20.53951  -1.34608  -1.31298  -0.72024
 Alpha  occ. eigenvalues --   -0.68697  -0.58239  -0.54743  -0.51735  -0.48436
 Alpha virt. eigenvalues --    0.11997   0.16669   0.19398   0.25915   0.51583
 Alpha virt. eigenvalues --    0.55616   0.56133   0.58490   0.68976   0.72559
 Alpha virt. eigenvalues --    0.76245   0.78210   0.80529   0.83362   0.83754

 Mulliken charges:
               1
     1  O   -0.524241
     2  H    0.268372
     3  H    0.246002
     4  O   -0.505106
     5  H    0.260776
     6  H    0.254197
 Sum of Mulliken charges =  -0.00000

 Dipole moment (field-independent basis, Debye):
    X=             -2.3721    Y=             -3.1964    Z=             -0.0000  Tot=              3.9805
 Quadrupole moment (field-independent basis, Debye-Ang):
   XX=             -9.6980   YY=             -8.0784   ZZ=            -14.7250
   XY=             -3.4041   XZ=             -0.0000   YZ=              0.0000

 Normal termination of Gaussian 16 at Sun Aug 28 03:35:22 2022.
