 Gaussian 16, Revision A.03,
 Gaussian 16:  ES64L-G16RevA.03 25-Dec-2016

 ------------------
 #p CCSD(T)/cc-pVTZ
 ------------------

 ------------
 H2O_H2O_3157
 ------------
 Symbolic Z-matrix:
 Charge =  0 Multiplicity = 1

                         Standard orientation:
 ---------------------------------------------------------------------
 Center     Atomic      Atomic             Coordinates (Angstroms)
 Number     Number       Type             X           Y           Z
 ---------------------------------------------------------------------
      1          8           0        0.073535    2.361888    0.000000
      2          1           0        0.072812    1.379287    0.000000
      3          1           0       -0.855723    2.681238    0.000000
      4          8           0        0.073535   -2.194946    0.000000
      5          1           0        0.507480   -3.076534    0.000000
      6          1           0       -0.901136   -2.319530    0.000000
 ---------------------------------------------------------------------

 SCF Done:  E(RHF) =  -152.109040895     A.U. after   10 cycles
 E2 =    -0.5259598727D+00 EUMP2 =    -0.15263500076720D+03
 CCSD(T)
 CCSD(T)= -0.15266216351D+03

 The electronic state is 1-A'.
 Alpha  occ. eigenvalues --  -20.56583 -20.54710  -1.33870  -1.32023  -0.71282
 Alpha  occ. eigenvalues --   -0.69409  -0.57378  -0.55494  -0.50991  -0.49148
 Alpha virt. eigenvalues --    0.12285   0.15679   0.19424   0.22380   0.53576
 Alpha virt. eigenvalues --    0.55149   0.56354   0.58351   0.67643   0.69294
 Alpha virt. eigenvalues --    0.77912   0.78741   0.79697   0.80268   0.82955

 Mulliken charges:
               1
     1  O   -0.514941
     2  H    0.262627
     3  H    0.250307
     4  O   -0.512422
     5  H    0.260021
     6  H    0.254408
 Sum of Mulliken charges =  -0.00000

 Dipole moment (field-independent basis, Debye):
    X=             -2.5082    Y=             -2.9917    Z=              0.0000  Tot=              3.9040
 Quadrupole moment (field-independent basis, Debye-Ang):
   XX=             -9.8154   YY=             -7.6200   ZZ=            -14.7169
   XY=             -3.5891   XZ=              0.0000   YZ=              0.0000

 CCSD(T)=-152.6621635\RMSD=7.037e-09\PG=CS [SG(H4O2)]\\@
 Normal termination of Gaussian 16 at Fri Aug 26 20:07:33 2022.
