 Gaussian 16, Revision A.03,
 Gaussian 16:  ES64L-G16RevA.03 25-Dec-2016

 ------------------
 #p CCSD(T)/cc-pVTZ
 ------------------

 ------------
 H2O_H2O_4137
 ------------
 Symbolic Z-matrix:
 Charge =  0 Multiplicity = 1

                         Standard orientation:
 ---------------------------------------------------------------------
 Center     Atomic      Atomic             Coordinates (Angstroms)
 Number     Number       Type             X           Y           Z
 ---------------------------------------------------------------------
      1          8           0        0.055971    2.757307    0.000000
      2          1           0        0.054795    1.774706    0.000000
      3          1           0       -0.873140    3.077085   -0.000000
      4          8           0        0.055971   -2.578375    0.000000
      5          1           0        0.749944   -3.274010    0.000000
      6          1           0       -0.827127   -3.009238   -0.000000
 ---------------------------------------------------------------------

 SCF Done:  E(RHF) =  -152.108558113     A.U. after   10 cycles
 E2 =    -0.5258235744D+00 EUMP2 =    -0.15263438168748D+03
 CCSD(T)
 CCSD(T)= -0.15266157250D+03

 The electronic state is 1-A'.
 Alpha  occ. eigenvalues --  -20.56262 -20.54871  -1.33561  -1.32180  -0.70966
 Alpha  occ. eigenvalues --   -0.69578  -0.57059  -0.55652  -0.50681  -0.49304
 Alpha virt. eigenvalues --    0.13143   0.15100   0.19637   0.21223   0.53557
 Alpha virt. eigenvalues --    0.54896   0.56597   0.57820   0.66694   0.68997
 Alpha virt. eigenvalues --    0.78211   0.79421   0.79548   0.79920   0.82819

 Mulliken charges:
               1
     1  O   -0.514208
     2  H    0.261205
     3  H    0.252673
     4  O   -0.514901
     5  H    0.259000
     6  H    0.256232
 Sum of Mulliken charges =   0.00000

 Dipole moment (field-independent basis, Debye):
    X=             -1.9174    Y=             -3.1530    Z=             -0.0000  Tot=              3.6902
 Quadrupole moment (field-independent basis, Debye-Ang):
   XX=             -9.2853   YY=             -6.5313   ZZ=            -14.7153
   XY=             -4.9373   XZ=             -0.0000   YZ=             -0.0000

 Normal termination of Gaussian 16 at Sun Aug 28 00:02:58 2022.
