 Gaussian 16, Revision A.03,
 Gaussian 16:  ES64L-G16RevA.03 25-Dec-2016

 ------------------
 #p CCSD(T)/cc-pVTZ
 ------------------

 ------------
 H2O_H2O_1528
 ------------
 Symbolic Z-matrix:
 Charge =  0 Multiplicity = 1

                         Standard orientation:
 ---------------------------------------------------------------------
 Center     Atomic      Atomic             Coordinates (Angstroms)
 Number     Number       Type             X           Y           Z
 ---------------------------------------------------------------------
      1          8           0        0.085609   -1.704281    0.000000
      2          1           0        0.085226   -0.721679    0.000000
      3          1           0       -0.843760   -2.023309    0.000000
      4          8           0        0.085609    1.554703    0.000000
      5          1           0        0.276930    2.518498    0.000000
      6          1           0       -0.888142    1.423115    0.000000
 ---------------------------------------------------------------------

 SCF Done:  E(RHF) =  -152.110498102     A.U. after   10 cycles
 E2 =    -0.5274108379D+00 EUMP2 =    -0.15263790894010D+03
 CCSD(T)
 CCSD(T)= -0.15266497046D+03

 The electronic state is 1-A'.
 Alpha  occ. eigenvalues --  -20.57850 -20.53985  -1.35186  -1.31360  -0.72781
 Alpha  occ. eigenvalues --   -0.68718  -0.58764  -0.54722  -0.52264  -0.48473
 Alpha virt. eigenvalues --    0.11632   0.16521   0.20015   0.27914   0.49938
 Alpha virt. eigenvalues --    0.54966   0.57676   0.57946   0.68702   0.74174
 Alpha virt. eigenvalues --    0.74698   0.77492   0.80803   0.82383   0.83614

 Mulliken charges:
               1
     1  O   -0.526039
     2  H    0.273809
     3  H    0.240423
     4  O   -0.487568
     5  H    0.251869
     6  H    0.247507
 Sum of Mulliken charges =  -0.00000

 Dipole moment (field-independent basis, Debye):
    X=             -2.8632    Y=              2.9112    Z=              0.0000  Tot=              4.0833
 Quadrupole moment (field-independent basis, Debye-Ang):
   XX=            -10.4427   YY=             -8.7425   ZZ=            -14.7182
   XY=              2.6123   XZ=              0.0000   YZ=              0.0000

 Normal termination of Gaussian 16 at Sat Aug 27 01:09:08 2022.
