 Gaussian 16, Revision A.03,
 Gaussian 16:  ES64L-G16RevA.03 25-Dec-2016

 ------------------
 #p CCSD(T)/cc-pVTZ
 ------------------

 -----------
 H2O_H2O_701
 -----------
 Symbolic Z-matrix:
 Charge =  0 Multiplicity = 1

                         Standard orientation:
 ---------------------------------------------------------------------
 Center     Atomic      Atomic             Coordinates (Angstroms)
 Number     Number       Type             X           Y           Z
 ---------------------------------------------------------------------
      1          8           0        0.090689   -1.369296    0.000000
      2          1           0        0.090541   -0.386695    0.000000
      3          1           0       -0.838756   -1.688102    0.000000
      4          8           0        0.090689    1.230599    0.000000
      5          1           0        0.154806    2.211107    0.000000
      6          1           0       -0.857617    0.973264    0.000000
 ---------------------------------------------------------------------

 SCF Done:  E(RHF) =  -152.099709348     A.U. after   10 cycles
 E2 =    -0.5315592648D+00 EUMP2 =    -0.15263126861262D+03
 CCSD(T)
 CCSD(T)= -0.15265801427D+03

 The electronic state is 1-A'.
 Alpha  occ. eigenvalues --  -20.59416 -20.52265  -1.37624  -1.30063  -0.76373
 Alpha  occ. eigenvalues --   -0.67920  -0.59783  -0.54226  -0.52991  -0.47071
 Alpha virt. eigenvalues --    0.11351   0.16437   0.20825   0.31933   0.48273
 Alpha virt. eigenvalues --    0.52390   0.58723   0.63332   0.69225   0.71310
 Alpha virt. eigenvalues --    0.73907   0.78381   0.78764   0.82866   0.82881

 Mulliken charges:
               1
     1  O   -0.552007
     2  H    0.288179
     3  H    0.222016
     4  O   -0.420392
     5  H    0.233528
     6  H    0.228676
 Sum of Mulliken charges =  -0.00000

 Dipole moment (field-independent basis, Debye):
    X=             -2.9461    Y=              3.1544    Z=              0.0000  Tot=              4.3162
 Quadrupole moment (field-independent basis, Debye-Ang):
   XX=            -10.7491   YY=             -9.2875   ZZ=            -14.6632
   XY=              2.1943   XZ=              0.0000   YZ=              0.0000

 Normal termination of Gaussian 16 at Fri Aug 26 19:56:33 2022.
