 Gaussian 16, Revision A.03,
 Gaussian 16:  ES64L-G16RevA.03 25-Dec-2016

 ------------------
 #p CCSD(T)/cc-pVTZ
 ------------------

 ------------
 H2O_H2O_1539
 ------------
 Symbolic Z-matrix:
 Charge =  0 Multiplicity = 1

                         Standard orientation:
 ---------------------------------------------------------------------
 Center     Atomic      Atomic             Coordinates (Angstroms)
 Number     Number       Type             X           Y           Z
 ---------------------------------------------------------------------
      1          8           0        0.048642    1.720989    0.000000
      2          1           0        0.046333    0.738390    0.000000
      3          1           0       -0.880100    2.041839    0.000000
      4          8           0        0.048642   -1.540664   -0.000000
      5          1           0        0.826784   -2.140665   -0.000000
      6          1           0       -0.771288   -2.082163   -0.000000
 ---------------------------------------------------------------------

 SCF Done:  E(RHF) =  -152.113748748     A.U. after   10 cycles
 E2 =    -0.5270673127D+00 EUMP2 =    -0.15264081606092D+03
 CCSD(T)
 CCSD(T)= -0.15266782031D+03

 The electronic state is 1-A'.
 Alpha  occ. eigenvalues --  -20.57904 -20.52995  -1.35181  -1.30430  -0.72524
 Alpha  occ. eigenvalues --   -0.68049  -0.58990  -0.53786  -0.52314  -0.47580
 Alpha virt. eigenvalues --    0.12067   0.17528   0.19008   0.28784   0.50025
 Alpha virt. eigenvalues --    0.54687   0.56189   0.59473   0.69069   0.72017
 Alpha virt. eigenvalues --    0.74482   0.76805   0.81456   0.83068   0.84796

 Mulliken charges:
               1
     1  O   -0.540328
     2  H    0.277142
     3  H    0.245879
     4  O   -0.506332
     5  H    0.265001
     6  H    0.258638
 Sum of Mulliken charges =  -0.00000

 Dipole moment (field-independent basis, Debye):
    X=             -1.6316    Y=             -3.5226    Z=             -0.0000  Tot=              3.8821
 Quadrupole moment (field-independent basis, Debye-Ang):
   XX=             -9.1886   YY=             -8.2344   ZZ=            -14.7348
   XY=             -3.7424   XZ=             -0.0000   YZ=              0.0000

 Normal termination of Gaussian 16 at Sat Aug 27 22:59:06 2022.
