 Gaussian 16, Revision A.03,
 Gaussian 16:  ES64L-G16RevA.03 25-Dec-2016

 ------------------
 #p CCSD(T)/cc-pVTZ
 ------------------

 ------------
 H2O_H2O_1850
 ------------
 Symbolic Z-matrix:
 Charge =  0 Multiplicity = 1

                         Standard orientation:
 ---------------------------------------------------------------------
 Center     Atomic      Atomic             Coordinates (Angstroms)
 Number     Number       Type             X           Y           Z
 ---------------------------------------------------------------------
      1          8           0        0.092949   -1.824795    0.000000
      2          1           0        0.092949   -0.842193    0.000000
      3          1           0       -0.836544   -2.143461    0.000000
      4          8           0        0.092949    1.692008    0.000000
      5          1           0        0.092950    2.674610    0.000000
      6          1           0       -0.836544    1.373341    0.000000
 ---------------------------------------------------------------------

 SCF Done:  E(RHF) =  -152.108901391     A.U. after   10 cycles
 E2 =    -0.5269613220D+00 EUMP2 =    -0.15263586271334D+03
 CCSD(T)
 CCSD(T)= -0.15266299024D+03

 The electronic state is 1-A'.
 Alpha  occ. eigenvalues --  -20.57449 -20.54764  -1.34759  -1.32080  -0.72356
 Alpha  occ. eigenvalues --   -0.69357  -0.58250  -0.55491  -0.51841  -0.49187
 Alpha virt. eigenvalues --    0.11445   0.16153   0.20332   0.26130   0.51424
 Alpha virt. eigenvalues --    0.55089   0.57299   0.57442   0.67880   0.74013
 Alpha virt. eigenvalues --    0.75404   0.78259   0.80027   0.82529   0.83205

 Mulliken charges:
               1
     1  O   -0.515932
     2  H    0.267219
     3  H    0.243127
     4  O   -0.494749
     5  H    0.256713
     6  H    0.243621
 Sum of Mulliken charges =  -0.00000

 Dipole moment (field-independent basis, Debye):
    X=             -3.1250    Y=              2.5050    Z=              0.0000  Tot=              4.0050
 Quadrupole moment (field-independent basis, Debye-Ang):
   XX=            -10.8867   YY=             -9.1468   ZZ=            -14.7130
   XY=              2.1306   XZ=              0.0000   YZ=              0.0000

 Normal termination of Gaussian 16 at Sun Aug 28 02:11:57 2022.
