 Gaussian 16, Revision A.03,
 Gaussian 16:  ES64L-G16RevA.03 25-Dec-2016

 ------------------
 #p CCSD(T)/cc-pVTZ
 ------------------

 ------------
 H2O_H2O_1607
 ------------
 Symbolic Z-matrix:
 Charge =  0 Multiplicity = 1

                         Standard orientation:
 ---------------------------------------------------------------------
 Center     Atomic      Atomic             Coordinates (Angstroms)
 Number     Number       Type             X           Y           Z
 ---------------------------------------------------------------------
      1          8           0        0.073558    1.743609   -0.000000
      2          1           0        0.072566    0.761008   -0.000000
      3          1           0       -0.855612    2.063214   -0.000000
      4          8           0        0.073558   -1.576707    0.000000
      5          1           0        0.507262   -2.458414    0.000000
      6          1           0       -0.901148   -1.701023    0.000000
 ---------------------------------------------------------------------

 SCF Done:  E(RHF) =  -152.112047783     A.U. after   10 cycles
 E2 =    -0.5270814435D+00 EUMP2 =    -0.15263912922688D+03
 CCSD(T)
 CCSD(T)= -0.15266616822D+03

 The electronic state is 1-A'.
 Alpha  occ. eigenvalues --  -20.57784 -20.53565  -1.35078  -1.30955  -0.72521
 Alpha  occ. eigenvalues --   -0.68425  -0.58762  -0.54332  -0.52189  -0.48088
 Alpha virt. eigenvalues --    0.11854   0.16873   0.19496   0.27892   0.49984
 Alpha virt. eigenvalues --    0.55253   0.56801   0.58537   0.69476   0.73650
 Alpha virt. eigenvalues --    0.74694   0.77200   0.81030   0.82934   0.84053

 Mulliken charges:
               1
     1  O   -0.530355
     2  H    0.273868
     3  H    0.242604
     4  O   -0.498583
     5  H    0.259032
     6  H    0.253434
 Sum of Mulliken charges =  -0.00000

 Dipole moment (field-independent basis, Debye):
    X=             -2.4676    Y=             -3.2307    Z=              0.0000  Tot=              4.0653
 Quadrupole moment (field-independent basis, Debye-Ang):
   XX=             -9.8384   YY=             -8.3735   ZZ=            -14.7271
   XY=             -3.1618   XZ=              0.0000   YZ=             -0.0000

 Normal termination of Gaussian 16 at Sat Aug 27 23:51:42 2022.
