 Gaussian 16, Revision A.03,
 Gaussian 16:  ES64L-G16RevA.03 25-Dec-2016

 ------------------
 #p CCSD(T)/cc-pVTZ
 ------------------

 ------------
 H2O_H2O_3875
 ------------
 Symbolic Z-matrix:
 Charge =  0 Multiplicity = 1

                         Standard orientation:
 ---------------------------------------------------------------------
 Center     Atomic      Atomic             Coordinates (Angstroms)
 Number     Number       Type             X           Y           Z
 ---------------------------------------------------------------------
      1          8           0        0.092949   -2.632521    0.000000
      2          1           0        0.092949   -1.649920    0.000000
      3          1           0       -0.836544   -2.951188    0.000000
      4          8           0        0.092949    2.499734    0.000000
      5          1           0        0.092950    3.482336    0.000000
      6          1           0       -0.836544    2.181067    0.000000
 ---------------------------------------------------------------------

 SCF Done:  E(RHF) =  -152.107718064     A.U. after   10 cycles
 E2 =    -0.5259184777D+00 EUMP2 =    -0.15263363654162D+03
 CCSD(T)
 CCSD(T)= -0.15266084476D+03

 The electronic state is 1-A'.
 Alpha  occ. eigenvalues --  -20.56348 -20.55289  -1.33648  -1.32590  -0.71068
 Alpha  occ. eigenvalues --   -0.69982  -0.57109  -0.56041  -0.50757  -0.49702
 Alpha virt. eigenvalues --    0.12077   0.15062   0.18855   0.22404   0.53156
 Alpha virt. eigenvalues --    0.54926   0.56487   0.57849   0.66792   0.68724
 Alpha virt. eigenvalues --    0.78143   0.79113   0.79171   0.81466   0.82306

 Mulliken charges:
               1
     1  O   -0.509482
     2  H    0.257905
     3  H    0.251315
     4  O   -0.510412
     5  H    0.259100
     6  H    0.251575
 Sum of Mulliken charges =  -0.00000

 Dipole moment (field-independent basis, Debye):
    X=             -3.1806    Y=              2.3444    Z=              0.0000  Tot=              3.9513
 Quadrupole moment (field-independent basis, Debye-Ang):
   XX=            -10.8486   YY=             -9.2637   ZZ=            -14.7119
   XY=              2.1540   XZ=              0.0000   YZ=              0.0000

 Normal termination of Gaussian 16 at Sat Aug 27 00:13:13 2022.
