 Gaussian 16, Revision A.03,
 Gaussian 16:  ES64L-G16RevA.03 25-Dec-2016

 ------------------
 #p CCSD(T)/cc-pVTZ
 ------------------

 ------------
 H2O_H2O_4723
 ------------
 Symbolic Z-matrix:
 Charge =  0 Multiplicity = 1

                         Standard orientation:
 ---------------------------------------------------------------------
 Center     Atomic      Atomic             Coordinates (Angstroms)
 Number     Number       Type             X           Y           Z
 ---------------------------------------------------------------------
      1          8           0       -0.016575    2.978236    0.000000
      2          1           0       -0.014339    1.995637    0.000000
      3          1           0        0.912191    3.299017    0.000000
      4          8           0       -0.016575   -2.814825    0.000000
      5          1           0       -0.996924   -2.881320    0.000000
      6          1           0        0.364263   -3.720622    0.000000
 ---------------------------------------------------------------------

 SCF Done:  E(RHF) =  -152.108335243     A.U. after   10 cycles
 E2 =    -0.5257994707D+00 EUMP2 =    -0.15263413471384D+03
 CCSD(T)
 CCSD(T)= -0.15266133558D+03

 The electronic state is 1-A'.
 Alpha  occ. eigenvalues --  -20.56143 -20.55100  -1.33446  -1.32406  -0.70852
 Alpha  occ. eigenvalues --   -0.69813  -0.56935  -0.55878  -0.50564  -0.49529
 Alpha virt. eigenvalues --    0.13358   0.14801   0.19500   0.21119   0.53541
 Alpha virt. eigenvalues --    0.54839   0.56696   0.57741   0.66961   0.68523
 Alpha virt. eigenvalues --    0.78319   0.79331   0.79646   0.80724   0.82135

 Mulliken charges:
               1
     1  O   -0.513882
     2  H    0.259010
     3  H    0.254815
     4  O   -0.514369
     5  H    0.256806
     6  H    0.257621
 Sum of Mulliken charges =  -0.00000

 Dipole moment (field-independent basis, Debye):
    X=              0.5701    Y=             -2.8618    Z=              0.0000  Tot=              2.9181
 Quadrupole moment (field-independent basis, Debye-Ang):
   XX=             -9.5439   YY=             -7.1212   ZZ=            -14.7145
   XY=              7.8202   XZ=              0.0000   YZ=              0.0000

 Normal termination of Gaussian 16 at Sun Aug 28 05:24:06 2022.
