 Gaussian 16, Revision A.03,
 Gaussian 16:  ES64L-G16RevA.03 25-Dec-2016

 ------------------
 #p CCSD(T)/cc-pVTZ
 ------------------

 ------------
 H2O_H2O_4573
 ------------
 Symbolic Z-matrix:
 Charge =  0 Multiplicity = 1

                         Standard orientation:
 ---------------------------------------------------------------------
 Center     Atomic      Atomic             Coordinates (Angstroms)
 Number     Number       Type             X           Y           Z
 ---------------------------------------------------------------------
      1          8           0       -0.016578    2.918404    0.000000
      2          1           0       -0.014295    1.935805    0.000000
      3          1           0        0.912172    3.239229    0.000000
      4          8           0       -0.016578   -2.754994    0.000000
      5          1           0       -0.996924   -2.821537    0.000000
      6          1           0        0.364304   -3.660772    0.000000
 ---------------------------------------------------------------------

 SCF Done:  E(RHF) =  -152.108399582     A.U. after   10 cycles
 E2 =    -0.5257992974D+00 EUMP2 =    -0.15263419887925D+03
 CCSD(T)
 CCSD(T)= -0.15266139780D+03

 The electronic state is 1-A'.
 Alpha  occ. eigenvalues --  -20.56167 -20.55074  -1.33470  -1.32381  -0.70876
 Alpha  occ. eigenvalues --   -0.69787  -0.56961  -0.55853  -0.50589  -0.49504
 Alpha virt. eigenvalues --    0.13274   0.14866   0.19456   0.21216   0.53478
 Alpha virt. eigenvalues --    0.54889   0.56680   0.57764   0.66883   0.68610
 Alpha virt. eigenvalues --    0.78296   0.79354   0.79559   0.80721   0.82314

 Mulliken charges:
               1
     1  O   -0.514177
     2  H    0.259270
     3  H    0.254818
     4  O   -0.514684
     5  H    0.256948
     6  H    0.257824
 Sum of Mulliken charges =   0.00000

 Dipole moment (field-independent basis, Debye):
    X=              0.5702    Y=             -2.8650    Z=              0.0000  Tot=              2.9212
 Quadrupole moment (field-independent basis, Debye-Ang):
   XX=             -9.5437   YY=             -7.1834   ZZ=            -14.7147
   XY=              7.6628   XZ=              0.0000   YZ=              0.0000

 Normal termination of Gaussian 16 at Sun Aug 28 04:02:31 2022.
