 Gaussian 16, Revision A.03,
 Gaussian 16:  ES64L-G16RevA.03 25-Dec-2016

 ------------------
 #p CCSD(T)/cc-pVTZ
 ------------------

 ------------
 H2O_H2O_3624
 ------------
 Symbolic Z-matrix:
 Charge =  0 Multiplicity = 1

                         Standard orientation:
 ---------------------------------------------------------------------
 Center     Atomic      Atomic             Coordinates (Angstroms)
 Number     Number       Type             X           Y           Z
 ---------------------------------------------------------------------
      1          8           0       -0.013500    2.537223    0.000000
      2          1           0       -0.010758    1.554625    0.000000
      3          1           0        0.915100    2.858482    0.000000
      4          8           0       -0.013500   -2.377955    0.000000
      5          1           0       -0.996098   -2.380697    0.000000
      6          1           0        0.307759   -3.306555    0.000000
 ---------------------------------------------------------------------

 SCF Done:  E(RHF) =  -152.108985803     A.U. after   10 cycles
 E2 =    -0.5258342581D+00 EUMP2 =    -0.15263482006155D+03
 CCSD(T)
 CCSD(T)= -0.15266199712D+03

 The electronic state is 1-A'.
 Alpha  occ. eigenvalues --  -20.56384 -20.54895  -1.33682  -1.32207  -0.71090
 Alpha  occ. eigenvalues --   -0.69615  -0.57192  -0.55690  -0.50804  -0.49337
 Alpha virt. eigenvalues --    0.12536   0.15410   0.19192   0.22194   0.53253
 Alpha virt. eigenvalues --    0.55316   0.56570   0.57908   0.66840   0.69173
 Alpha virt. eigenvalues --    0.78095   0.78756   0.79510   0.80824   0.82846

 Mulliken charges:
               1
     1  O   -0.516611
     2  H    0.260724
     3  H    0.255066
     4  O   -0.515897
     5  H    0.257626
     6  H    0.259091
 Sum of Mulliken charges =  -0.00000

 Dipole moment (field-independent basis, Debye):
    X=              0.4650    Y=             -2.8240    Z=              0.0000  Tot=              2.8620
 Quadrupole moment (field-independent basis, Debye-Ang):
   XX=             -9.6478   YY=             -7.7734   ZZ=            -14.7167
   XY=              6.8664   XZ=              0.0000   YZ=              0.0000

 Normal termination of Gaussian 16 at Fri Aug 26 22:44:47 2022.
