 Gaussian 16, Revision A.03,
 Gaussian 16:  ES64L-G16RevA.03 25-Dec-2016

 ------------------
 #p CCSD(T)/cc-pVTZ
 ------------------

 ------------
 H2O_H2O_3156
 ------------
 Symbolic Z-matrix:
 Charge =  0 Multiplicity = 1

                         Standard orientation:
 ---------------------------------------------------------------------
 Center     Atomic      Atomic             Coordinates (Angstroms)
 Number     Number       Type             X           Y           Z
 ---------------------------------------------------------------------
      1          8           0        0.076758    2.359860    0.000000
      2          1           0        0.076155    1.377259    0.000000
      3          1           0       -0.852539    2.679097    0.000000
      4          8           0        0.076758   -2.196651   -0.000000
      5          1           0        0.452226   -3.104687   -0.000000
      6          1           0       -0.903968   -2.257341   -0.000000
 ---------------------------------------------------------------------

 SCF Done:  E(RHF) =  -152.108915402     A.U. after   10 cycles
 E2 =    -0.5259696164D+00 EUMP2 =    -0.15263488501887D+03
 CCSD(T)
 CCSD(T)= -0.15266205065D+03

 The electronic state is 1-A'.
 Alpha  occ. eigenvalues --  -20.56583 -20.54762  -1.33872  -1.32074  -0.71286
 Alpha  occ. eigenvalues --   -0.69460  -0.57374  -0.55543  -0.50991  -0.49197
 Alpha virt. eigenvalues --    0.12207   0.15652   0.19405   0.22423   0.53656
 Alpha virt. eigenvalues --    0.55097   0.56365   0.58325   0.67625   0.69264
 Alpha virt. eigenvalues --    0.77912   0.78698   0.79651   0.80457   0.82898

 Mulliken charges:
               1
     1  O   -0.514333
     2  H    0.262270
     3  H    0.250156
     4  O   -0.511965
     5  H    0.259968
     6  H    0.253903
 Sum of Mulliken charges =  -0.00000

 Dipole moment (field-independent basis, Debye):
    X=             -2.6178    Y=             -2.9240    Z=             -0.0000  Tot=              3.9247
 Quadrupole moment (field-independent basis, Debye-Ang):
   XX=             -9.9552   YY=             -7.7788   ZZ=            -14.7164
   XY=             -3.4013   XZ=             -0.0000   YZ=              0.0000

 Normal termination of Gaussian 16 at Fri Aug 26 20:07:12 2022.
