 Gaussian 16, Revision A.03,
 Gaussian 16:  ES64L-G16RevA.03 25-Dec-2016

 ------------------
 #p CCSD(T)/cc-pVTZ
 ------------------

 ------------
 H2O_H2O_1584
 ------------
 Symbolic Z-matrix:
 Charge =  0 Multiplicity = 1

                         Standard orientation:
 ---------------------------------------------------------------------
 Center     Atomic      Atomic             Coordinates (Angstroms)
 Number     Number       Type             X           Y           Z
 ---------------------------------------------------------------------
      1          8           0        0.066792    1.736980    0.000000
      2          1           0        0.065446    0.754380    0.000000
      3          1           0       -0.862263    2.056920   -0.000000
      4          8           0        0.066792   -1.563926    0.000000
      5          1           0        0.611577   -2.381676    0.000000
      6          1           0       -0.883438   -1.814059   -0.000000
 ---------------------------------------------------------------------

 SCF Done:  E(RHF) =  -152.112699586     A.U. after   10 cycles
 E2 =    -0.5270719744D+00 EUMP2 =    -0.15263977156010D+03
 CCSD(T)
 CCSD(T)= -0.15266679685D+03

 The electronic state is 1-A'.
 Alpha  occ. eigenvalues --  -20.57829 -20.53339  -1.35114  -1.30744  -0.72515
 Alpha  occ. eigenvalues --   -0.68268  -0.58844  -0.54115  -0.52234  -0.47883
 Alpha virt. eigenvalues --    0.11933   0.17082   0.19315   0.28214   0.49870
 Alpha virt. eigenvalues --    0.55155   0.56578   0.58833   0.69514   0.73041
 Alpha virt. eigenvalues --    0.74636   0.76923   0.81198   0.83004   0.84323

 Mulliken charges:
               1
     1  O   -0.533558
     2  H    0.275059
     3  H    0.243295
     4  O   -0.501510
     5  H    0.261515
     6  H    0.255199
 Sum of Mulliken charges =  -0.00000

 Dipole moment (field-independent basis, Debye):
    X=             -2.2404    Y=             -3.3604    Z=             -0.0000  Tot=              4.0388
 Quadrupole moment (field-independent basis, Debye-Ang):
   XX=             -9.5821   YY=             -8.2912   ZZ=            -14.7302
   XY=             -3.3653   XZ=              0.0000   YZ=             -0.0000

 Normal termination of Gaussian 16 at Sat Aug 27 23:28:56 2022.
