 Gaussian 16, Revision A.03,
 Gaussian 16:  ES64L-G16RevA.03 25-Dec-2016

 ------------------
 #p CCSD(T)/cc-pVTZ
 ------------------

 ------------
 H2O_H2O_4819
 ------------
 Symbolic Z-matrix:
 Charge =  0 Multiplicity = 1

                         Standard orientation:
 ---------------------------------------------------------------------
 Center     Atomic      Atomic             Coordinates (Angstroms)
 Number     Number       Type             X           Y           Z
 ---------------------------------------------------------------------
      1          8           0        0.030141    3.024764   -0.000000
      2          1           0        0.028327    2.042164   -0.000000
      3          1           0       -0.898763    3.345145    0.000000
      4          8           0        0.030141   -2.849123   -0.000000
      5          1           0        0.960011   -3.166688   -0.000000
      6          1           0       -0.571825   -3.625746    0.000000
 ---------------------------------------------------------------------

 SCF Done:  E(RHF) =  -152.108335493     A.U. after   10 cycles
 E2 =    -0.5258001575D+00 EUMP2 =    -0.15263413565015D+03
 CCSD(T)
 CCSD(T)= -0.15266133632D+03

 The electronic state is 1-A'.
 Alpha  occ. eigenvalues --  -20.56130 -20.55033  -1.33432  -1.32339  -0.70836
 Alpha  occ. eigenvalues --   -0.69744  -0.56922  -0.55810  -0.50551  -0.49462
 Alpha virt. eigenvalues --    0.13482   0.14805   0.19696   0.20954   0.53676
 Alpha virt. eigenvalues --    0.54817   0.56712   0.57767   0.67003   0.68544
 Alpha virt. eigenvalues --    0.78333   0.79397   0.79699   0.80522   0.82283

 Mulliken charges:
               1
     1  O   -0.513758
     2  H    0.259551
     3  H    0.254157
     4  O   -0.514318
     5  H    0.257363
     6  H    0.257006
 Sum of Mulliken charges =  -0.00000

 Dipole moment (field-independent basis, Debye):
    X=             -1.0350    Y=             -3.0750    Z=              0.0000  Tot=              3.2445
 Quadrupole moment (field-independent basis, Debye-Ang):
   XX=             -9.2308   YY=             -6.2979   ZZ=            -14.7145
   XY=             -6.9460   XZ=             -0.0000   YZ=              0.0000

 Normal termination of Gaussian 16 at Sun Aug 28 06:08:36 2022.
