 Gaussian 16, Revision A.03,
 Gaussian 16:  ES64L-G16RevA.03 25-Dec-2016

 ------------------
 #p CCSD(T)/cc-pVTZ
 ------------------

 ------------
 H2O_H2O_1963
 ------------
 Symbolic Z-matrix:
 Charge =  0 Multiplicity = 1

                         Standard orientation:
 ---------------------------------------------------------------------
 Center     Atomic      Atomic             Coordinates (Angstroms)
 Number     Number       Type             X           Y           Z
 ---------------------------------------------------------------------
      1          8           0        0.052334    1.890251   -0.000000
      2          1           0        0.050418    0.907652   -0.000000
      3          1           0       -0.876535    2.210730   -0.000000
      4          8           0        0.052334   -1.710402    0.000000
      5          1           0        0.789828   -2.359716    0.000000
      6          1           0       -0.801061   -2.197457    0.000000
 ---------------------------------------------------------------------

 SCF Done:  E(RHF) =  -152.112347807     A.U. after   10 cycles
 E2 =    -0.5264740238D+00 EUMP2 =    -0.15263882183057D+03
 CCSD(T)
 CCSD(T)= -0.15266588267D+03

 The electronic state is 1-A'.
 Alpha  occ. eigenvalues --  -20.57401 -20.53644  -1.34652  -1.31007  -0.72034
 Alpha  occ. eigenvalues --   -0.68441  -0.58350  -0.54457  -0.51791  -0.48157
 Alpha virt. eigenvalues --    0.12175   0.16997   0.19176   0.26406   0.51373
 Alpha virt. eigenvalues --    0.55101   0.56353   0.58977   0.69041   0.72361
 Alpha virt. eigenvalues --    0.76119   0.77487   0.80775   0.83395   0.84277

 Mulliken charges:
               1
     1  O   -0.529440
     2  H    0.269897
     3  H    0.247872
     4  O   -0.507446
     5  H    0.262279
     6  H    0.256836
 Sum of Mulliken charges =  -0.00000

 Dipole moment (field-independent basis, Debye):
    X=             -1.7680    Y=             -3.3930    Z=              0.0000  Tot=              3.8260
 Quadrupole moment (field-independent basis, Debye-Ang):
   XX=             -9.2319   YY=             -7.9048   ZZ=            -14.7291
   XY=             -3.9167   XZ=              0.0000   YZ=             -0.0000

 Normal termination of Gaussian 16 at Sun Aug 28 03:12:04 2022.
