 Gaussian 16, Revision A.03,
 Gaussian 16:  ES64L-G16RevA.03 25-Dec-2016

 ------------------
 #p CCSD(T)/cc-pVTZ
 ------------------

 -----------
 H2O_H2O_289
 -----------
 Symbolic Z-matrix:
 Charge =  0 Multiplicity = 1

                         Standard orientation:
 ---------------------------------------------------------------------
 Center     Atomic      Atomic             Coordinates (Angstroms)
 Number     Number       Type             X           Y           Z
 ---------------------------------------------------------------------
      1          8           0        0.048735    1.222344   -0.000000
      2          1           0        0.045409    0.239748   -0.000000
      3          1           0       -0.879674    1.544155   -0.000000
      4          8           0        0.048735   -1.042120    0.000000
      5          1           0        0.826257   -1.642925    0.000000
      6          1           0       -0.771755   -1.582770    0.000000
 ---------------------------------------------------------------------

 SCF Done:  E(RHF) =  -152.081654227     A.U. after   11 cycles
 E2 =    -0.5336100940D+00 EUMP2 =    -0.15261526432147D+03
 CCSD(T)
 CCSD(T)= -0.15264126142D+03

 The electronic state is 1-A'.
 Alpha  occ. eigenvalues --  -20.61081 -20.46712  -1.40646  -1.25934  -0.76484
 Alpha  occ. eigenvalues --   -0.74513  -0.56794  -0.56725  -0.47169  -0.42698
 Alpha virt. eigenvalues --    0.10843   0.17050   0.20482   0.33435   0.47163
 Alpha virt. eigenvalues --    0.52857   0.62535   0.64531   0.70711   0.71859
 Alpha virt. eigenvalues --    0.77738   0.79900   0.80532   0.82063   0.84075

 Mulliken charges:
               1
     1  O   -0.639971
     2  H    0.307530
     3  H    0.215577
     4  O   -0.384930
     5  H    0.255670
     6  H    0.246124
 Sum of Mulliken charges =  -0.00000

 Dipole moment (field-independent basis, Debye):
    X=             -1.5187    Y=             -4.6519    Z=              0.0000  Tot=              4.8935
 Quadrupole moment (field-independent basis, Debye-Ang):
   XX=             -9.1477   YY=             -9.8056   ZZ=            -14.6277
   XY=             -2.8608   XZ=              0.0000   YZ=              0.0000

 Normal termination of Gaussian 16 at Fri Aug 26 17:11:53 2022.
