 Gaussian 16, Revision A.03,
 Gaussian 16:  ES64L-G16RevA.03 25-Dec-2016

 ------------------
 #p CCSD(T)/cc-pVTZ
 ------------------

 ------------
 H2O_H2O_3363
 ------------
 Symbolic Z-matrix:
 Charge =  0 Multiplicity = 1

                         Standard orientation:
 ---------------------------------------------------------------------
 Center     Atomic      Atomic             Coordinates (Angstroms)
 Number     Number       Type             X           Y           Z
 ---------------------------------------------------------------------
      1          8           0        0.052293    2.448703    0.000000
      2          1           0        0.050830    1.466102    0.000000
      3          1           0       -0.876725    2.768753   -0.000000
      4          8           0        0.052293   -2.268805    0.000000
      5          1           0        0.790087   -2.917779    0.000000
      6          1           0       -0.800877   -2.756254   -0.000000
 ---------------------------------------------------------------------

 SCF Done:  E(RHF) =  -152.109308181     A.U. after   10 cycles
 E2 =    -0.5258820963D+00 EUMP2 =    -0.15263519027712D+03
 CCSD(T)
 CCSD(T)= -0.15266235213D+03

 The electronic state is 1-A'.
 Alpha  occ. eigenvalues --  -20.56495 -20.54606  -1.33782  -1.31921  -0.71184
 Alpha  occ. eigenvalues --   -0.69315  -0.57305  -0.55403  -0.50907  -0.49052
 Alpha virt. eigenvalues --    0.12673   0.15630   0.19533   0.21987   0.53366
 Alpha virt. eigenvalues --    0.55160   0.56437   0.58161   0.67271   0.69352
 Alpha virt. eigenvalues --    0.77999   0.79029   0.79450   0.79784   0.83086

 Mulliken charges:
               1
     1  O   -0.516860
     2  H    0.263259
     3  H    0.251931
     4  O   -0.515023
     5  H    0.259923
     6  H    0.256770
 Sum of Mulliken charges =   0.00000

 Dipole moment (field-independent basis, Debye):
    X=             -1.7860    Y=             -3.2112    Z=             -0.0000  Tot=              3.6745
 Quadrupole moment (field-independent basis, Debye-Ang):
   XX=             -9.2259   YY=             -6.9712   ZZ=            -14.7180
   XY=             -4.7070   XZ=              0.0000   YZ=             -0.0000

 Normal termination of Gaussian 16 at Fri Aug 26 21:17:16 2022.
