 Gaussian 16, Revision A.03,
 Gaussian 16:  ES64L-G16RevA.03 25-Dec-2016

 ------------------
 #p CCSD(T)/cc-pVTZ
 ------------------

 ------------
 H2O_H2O_2333
 ------------
 Symbolic Z-matrix:
 Charge =  0 Multiplicity = 1

                         Standard orientation:
 ---------------------------------------------------------------------
 Center     Atomic      Atomic             Coordinates (Angstroms)
 Number     Number       Type             X           Y           Z
 ---------------------------------------------------------------------
      1          8           0        0.070210    2.034599   -0.000000
      2          1           0        0.069220    1.051998   -0.000000
      3          1           0       -0.858961    2.354202   -0.000000
      4          8           0        0.070210   -1.864374    0.000000
      5          1           0        0.560653   -2.715826    0.000000
      6          1           0       -0.894278   -2.052175    0.000000
 ---------------------------------------------------------------------

 SCF Done:  E(RHF) =  -152.110572177     A.U. after   10 cycles
 E2 =    -0.5262567594D+00 EUMP2 =    -0.15263682893596D+03
 CCSD(T)
 CCSD(T)= -0.15266393567D+03

 The electronic state is 1-A'.
 Alpha  occ. eigenvalues --  -20.57066 -20.54223  -1.34332  -1.31552  -0.71744
 Alpha  occ. eigenvalues --   -0.68936  -0.57909  -0.55019  -0.51459  -0.48688
 Alpha virt. eigenvalues --    0.12069   0.16392   0.19410   0.24568   0.52739
 Alpha virt. eigenvalues --    0.55828   0.55949   0.58603   0.68835   0.71375
 Alpha virt. eigenvalues --    0.77084   0.78771   0.80202   0.82053   0.83474

 Mulliken charges:
               1
     1  O   -0.520908
     2  H    0.266479
     3  H    0.247680
     4  O   -0.507492
     5  H    0.260015
     6  H    0.254226
 Sum of Mulliken charges =  -0.00000

 Dipole moment (field-independent basis, Debye):
    X=             -2.3807    Y=             -3.1404    Z=              0.0000  Tot=              3.9408
 Quadrupole moment (field-independent basis, Debye-Ang):
   XX=             -9.6928   YY=             -7.9017   ZZ=            -14.7217
   XY=             -3.5084   XZ=             -0.0000   YZ=             -0.0000

 Normal termination of Gaussian 16 at Sun Aug 28 06:22:54 2022.
