 Gaussian 16, Revision A.03,
 Gaussian 16:  ES64L-G16RevA.03 25-Dec-2016

 ------------------
 #p CCSD(T)/cc-pVTZ
 ------------------

 ------------
 H2O_H2O_4007
 ------------
 Symbolic Z-matrix:
 Charge =  0 Multiplicity = 1

                         Standard orientation:
 ---------------------------------------------------------------------
 Center     Atomic      Atomic             Coordinates (Angstroms)
 Number     Number       Type             X           Y           Z
 ---------------------------------------------------------------------
      1          8           0        0.073527    2.700941   -0.000000
      2          1           0        0.072898    1.718340   -0.000000
      3          1           0       -0.855761    3.020203   -0.000000
      4          8           0        0.073527   -2.533985    0.000000
      5          1           0        0.507556   -3.415532    0.000000
      6          1           0       -0.901133   -2.658660    0.000000
 ---------------------------------------------------------------------

 SCF Done:  E(RHF) =  -152.108341262     A.U. after   10 cycles
 E2 =    -0.5258546804D+00 EUMP2 =    -0.15263419594192D+03
 CCSD(T)
 CCSD(T)= -0.15266138998D+03

 The electronic state is 1-A'.
 Alpha  occ. eigenvalues --  -20.56300 -20.54963  -1.33599  -1.32270  -0.71009
 Alpha  occ. eigenvalues --   -0.69665  -0.57086  -0.55736  -0.50716  -0.49390
 Alpha virt. eigenvalues --    0.12869   0.15104   0.19431   0.21421   0.53321
 Alpha virt. eigenvalues --    0.54988   0.56537   0.57862   0.66700   0.68985
 Alpha virt. eigenvalues --    0.78180   0.79052   0.79466   0.80502   0.82719

 Mulliken charges:
               1
     1  O   -0.512779
     2  H    0.260517
     3  H    0.251879
     4  O   -0.513608
     5  H    0.259296
     6  H    0.254695
 Sum of Mulliken charges =  -0.00000

 Dipole moment (field-independent basis, Debye):
    X=             -2.5175    Y=             -2.9460    Z=              0.0000  Tot=              3.8751
 Quadrupole moment (field-independent basis, Debye-Ang):
   XX=             -9.8105   YY=             -7.2394   ZZ=            -14.7145
   XY=             -3.8196   XZ=              0.0000   YZ=              0.0000

 Normal termination of Gaussian 16 at Sat Aug 27 00:57:44 2022.
