 Gaussian 16, Revision A.03,
 Gaussian 16:  ES64L-G16RevA.03 25-Dec-2016

 ------------------
 #p CCSD(T)/cc-pVTZ
 ------------------

 -----------
 H2O_H2O_210
 -----------
 Symbolic Z-matrix:
 Charge =  0 Multiplicity = 1

                         Standard orientation:
 ---------------------------------------------------------------------
 Center     Atomic      Atomic             Coordinates (Angstroms)
 Number     Number       Type             X           Y           Z
 ---------------------------------------------------------------------
      1          8           0        0.063341    1.189780   -0.000000
      2          1           0        0.061053    0.207181   -0.000000
      3          1           0       -0.865407    1.510610   -0.000000
      4          8           0        0.063341   -1.014423    0.000000
      5          1           0        0.659694   -1.795364    0.000000
      6          1           0       -0.868794   -1.325278    0.000000
 ---------------------------------------------------------------------

 SCF Done:  E(RHF) =  -152.069720871     A.U. after   11 cycles
 E2 =    -0.5348620515D+00 EUMP2 =    -0.15260458292211D+03
 CCSD(T)
 CCSD(T)= -0.15263043559D+03

 The electronic state is 1-A'.
 Alpha  occ. eigenvalues --  -20.61389 -20.46331  -1.41606  -1.25762  -0.78394
 Alpha  occ. eigenvalues --   -0.74367  -0.57287  -0.56190  -0.46786  -0.42464
 Alpha virt. eigenvalues --    0.10660   0.16528   0.20894   0.32899   0.48160
 Alpha virt. eigenvalues --    0.52397   0.61451   0.64021   0.71560   0.71720
 Alpha virt. eigenvalues --    0.78433   0.78943   0.80880   0.83288   0.85085

 Mulliken charges:
               1
     1  O   -0.637492
     2  H    0.297588
     3  H    0.206014
     4  O   -0.352277
     5  H    0.242701
     6  H    0.243465
 Sum of Mulliken charges =  -0.00000

 Dipole moment (field-independent basis, Debye):
    X=             -1.9542    Y=             -4.6622    Z=              0.0000  Tot=              5.0552
 Quadrupole moment (field-independent basis, Debye-Ang):
   XX=             -9.4318   YY=             -9.8856   ZZ=            -14.5978
   XY=             -2.7423   XZ=              0.0000   YZ=             -0.0000

 Normal termination of Gaussian 16 at Fri Aug 26 16:37:39 2022.
