 Gaussian 16, Revision A.03,
 Gaussian 16:  ES64L-G16RevA.03 25-Dec-2016

 ------------------
 #p CCSD(T)/cc-pVTZ
 ------------------

 ------------
 H2O_H2O_2212
 ------------
 Symbolic Z-matrix:
 Charge =  0 Multiplicity = 1

                         Standard orientation:
 ---------------------------------------------------------------------
 Center     Atomic      Atomic             Coordinates (Angstroms)
 Number     Number       Type             X           Y           Z
 ---------------------------------------------------------------------
      1          8           0        0.056014    1.989442    0.000000
      2          1           0        0.054363    1.006842    0.000000
      3          1           0       -0.872942    2.309670   -0.000000
      4          8           0        0.056014   -1.810564    0.000000
      5          1           0        0.749650   -2.506535    0.000000
      6          1           0       -0.827293   -2.241000   -0.000000
 ---------------------------------------------------------------------

 SCF Done:  E(RHF) =  -152.111486464     A.U. after   10 cycles
 E2 =    -0.5262781516D+00 EUMP2 =    -0.15263776461540D+03
 CCSD(T)
 CCSD(T)= -0.15266485080D+03

 The electronic state is 1-A'.
 Alpha  occ. eigenvalues --  -20.57171 -20.53928  -1.34425  -1.31271  -0.71819
 Alpha  occ. eigenvalues --   -0.68673  -0.58059  -0.54742  -0.51562  -0.48416
 Alpha virt. eigenvalues --    0.12214   0.16690   0.19270   0.25213   0.52095
 Alpha virt. eigenvalues --    0.55462   0.56241   0.58950   0.68973   0.71844
 Alpha virt. eigenvalues --    0.76830   0.78147   0.80468   0.83196   0.83539

 Mulliken charges:
               1
     1  O   -0.525196
     2  H    0.267966
     3  H    0.248527
     4  O   -0.508363
     5  H    0.261024
     6  H    0.256042
 Sum of Mulliken charges =  -0.00000

 Dipole moment (field-independent basis, Debye):
    X=             -1.8977    Y=             -3.3248    Z=             -0.0000  Tot=              3.8283
 Quadrupole moment (field-independent basis, Debye-Ang):
   XX=             -9.2918   YY=             -7.7490   ZZ=            -14.7253
   XY=             -3.9508   XZ=              0.0000   YZ=             -0.0000

 Normal termination of Gaussian 16 at Sun Aug 28 05:27:54 2022.
