 Gaussian 16, Revision A.03,
 Gaussian 16:  ES64L-G16RevA.03 25-Dec-2016

 ------------------
 #p CCSD(T)/cc-pVTZ
 ------------------

 ------------
 H2O_H2O_1222
 ------------
 Symbolic Z-matrix:
 Charge =  0 Multiplicity = 1

                         Standard orientation:
 ---------------------------------------------------------------------
 Center     Atomic      Atomic             Coordinates (Angstroms)
 Number     Number       Type             X           Y           Z
 ---------------------------------------------------------------------
      1          8           0       -0.019980    1.584149    0.000000
      2          1           0       -0.015846    0.601557    0.000000
      3          1           0        0.908165    1.906723    0.000000
      4          8           0       -0.019980   -1.417102    0.000000
      5          1           0       -0.993627   -1.549454    0.000000
      6          1           0        0.420982   -2.295203    0.000000
 ---------------------------------------------------------------------

 SCF Done:  E(RHF) =  -152.113484504     A.U. after   10 cycles
 E2 =    -0.5278062512D+00 EUMP2 =    -0.15264129075484D+03
 CCSD(T)
 CCSD(T)= -0.15266823233D+03

 The electronic state is 1-A'.
 Alpha  occ. eigenvalues --  -20.58324 -20.52572  -1.35735  -1.30113  -0.73213
 Alpha  occ. eigenvalues --   -0.67961  -0.59535  -0.53301  -0.52817  -0.47255
 Alpha virt. eigenvalues --    0.12072   0.17984   0.18934   0.30682   0.49673
 Alpha virt. eigenvalues --    0.54590   0.55742   0.61938   0.68623   0.73180
 Alpha virt. eigenvalues --    0.73722   0.76859   0.81905   0.82373   0.84373

 Mulliken charges:
               1
     1  O   -0.557202
     2  H    0.283445
     3  H    0.250628
     4  O   -0.488553
     5  H    0.263646
     6  H    0.248036
 Sum of Mulliken charges =   0.00000

 Dipole moment (field-independent basis, Debye):
    X=              0.6748    Y=             -3.3976    Z=              0.0000  Tot=              3.4640
 Quadrupole moment (field-independent basis, Debye-Ang):
   XX=             -9.4423   YY=             -8.6408   ZZ=            -14.7276
   XY=              4.0427   XZ=              0.0000   YZ=              0.0000

 Normal termination of Gaussian 16 at Fri Aug 26 23:13:08 2022.
