 Gaussian 16, Revision A.03,
 Gaussian 16:  ES64L-G16RevA.03 25-Dec-2016

 ------------------
 #p CCSD(T)/cc-pVTZ
 ------------------

 ------------
 H2O_H2O_4757
 ------------
 Symbolic Z-matrix:
 Charge =  0 Multiplicity = 1

                         Standard orientation:
 ---------------------------------------------------------------------
 Center     Atomic      Atomic             Coordinates (Angstroms)
 Number     Number       Type             X           Y           Z
 ---------------------------------------------------------------------
      1          8           0        0.073522    3.000104    0.000000
      2          1           0        0.072957    2.017502    0.000000
      3          1           0       -0.855788    3.319304    0.000000
      4          8           0        0.073522   -2.833138   -0.000000
      5          1           0        0.507609   -3.714656   -0.000000
      6          1           0       -0.901130   -2.957878   -0.000000
 ---------------------------------------------------------------------

 SCF Done:  E(RHF) =  -152.108032127     A.U. after   10 cycles
 E2 =    -0.5258326967D+00 EUMP2 =    -0.15263386482328D+03
 CCSD(T)
 CCSD(T)= -0.15266107118D+03

 The electronic state is 1-A'.
 Alpha  occ. eigenvalues --  -20.56153 -20.55109  -1.33454  -1.32413  -0.70863
 Alpha  occ. eigenvalues --   -0.69812  -0.56931  -0.55875  -0.50570  -0.49531
 Alpha virt. eigenvalues --    0.13358   0.14739   0.19552   0.20984   0.53577
 Alpha virt. eigenvalues --    0.54804   0.56657   0.57715   0.66999   0.68518
 Alpha virt. eigenvalues --    0.78317   0.79333   0.79636   0.80659   0.82173

 Mulliken charges:
               1
     1  O   -0.511794
     2  H    0.259087
     3  H    0.252656
     4  O   -0.512673
     5  H    0.258125
     6  H    0.254599
 Sum of Mulliken charges =  -0.00000

 Dipole moment (field-independent basis, Debye):
    X=             -2.5228    Y=             -2.9248    Z=             -0.0000  Tot=              3.8625
 Quadrupole moment (field-independent basis, Debye-Ang):
   XX=             -9.8085   YY=             -6.8950   ZZ=            -14.7134
   XY=             -4.0230   XZ=             -0.0000   YZ=              0.0000

 Normal termination of Gaussian 16 at Sun Aug 28 05:36:37 2022.
