 Gaussian 16, Revision A.03,
 Gaussian 16:  ES64L-G16RevA.03 25-Dec-2016

 ------------------
 #p CCSD(T)/cc-pVTZ
 ------------------

 ------------
 H2O_H2O_4616
 ------------
 Symbolic Z-matrix:
 Charge =  0 Multiplicity = 1

                         Standard orientation:
 ---------------------------------------------------------------------
 Center     Atomic      Atomic             Coordinates (Angstroms)
 Number     Number       Type             X           Y           Z
 ---------------------------------------------------------------------
      1          8           0        0.041104    2.947332   -0.000000
      2          1           0        0.039565    1.964732   -0.000000
      3          1           0       -0.887889    3.267454   -0.000000
      4          8           0        0.041104   -2.767374    0.000000
      5          1           0        0.891291   -3.260007    0.000000
      6          1           0       -0.700627   -3.411844    0.000000
 ---------------------------------------------------------------------

 SCF Done:  E(RHF) =  -152.108402844     A.U. after   10 cycles
 E2 =    -0.5258037365D+00 EUMP2 =    -0.15263420658017D+03
 CCSD(T)
 CCSD(T)= -0.15266140475D+03

 The electronic state is 1-A'.
 Alpha  occ. eigenvalues --  -20.56164 -20.54966  -1.33465  -1.32273  -0.70869
 Alpha  occ. eigenvalues --   -0.69675  -0.56958  -0.55744  -0.50584  -0.49396
 Alpha virt. eigenvalues --    0.13420   0.14893   0.19713   0.21006   0.53676
 Alpha virt. eigenvalues --    0.54841   0.56684   0.57795   0.66893   0.68688
 Alpha virt. eigenvalues --    0.78301   0.79460   0.79694   0.80247   0.82591

 Mulliken charges:
               1
     1  O   -0.513924
     2  H    0.260212
     3  H    0.253617
     4  O   -0.514599
     5  H    0.257965
     6  H    0.256730
 Sum of Mulliken charges =  -0.00000

 Dipole moment (field-independent basis, Debye):
    X=             -1.4102    Y=             -3.1559    Z=              0.0000  Tot=              3.4566
 Quadrupole moment (field-independent basis, Debye-Ang):
   XX=             -9.1495   YY=             -6.1658   ZZ=            -14.7148
   XY=             -6.0901   XZ=              0.0000   YZ=             -0.0000

 Normal termination of Gaussian 16 at Sun Aug 28 04:22:56 2022.
