 Gaussian 16, Revision A.03,
 Gaussian 16:  ES64L-G16RevA.03 25-Dec-2016

 ------------------
 #p CCSD(T)/cc-pVTZ
 ------------------

 ------------
 H2O_H2O_4283
 ------------
 Symbolic Z-matrix:
 Charge =  0 Multiplicity = 1

                         Standard orientation:
 ---------------------------------------------------------------------
 Center     Atomic      Atomic             Coordinates (Angstroms)
 Number     Number       Type             X           Y           Z
 ---------------------------------------------------------------------
      1          8           0        0.070186    2.812430    0.000000
      2          1           0        0.069478    1.829828    0.000000
      3          1           0       -0.859077    3.131766    0.000000
      4          8           0        0.070186   -2.642164   -0.000000
      5          1           0        0.560874   -3.493476   -0.000000
      6          1           0       -0.894248   -2.830242   -0.000000
 ---------------------------------------------------------------------

 SCF Done:  E(RHF) =  -152.108266906     A.U. after   10 cycles
 E2 =    -0.5258366117D+00 EUMP2 =    -0.15263410351746D+03
 CCSD(T)
 CCSD(T)= -0.15266130204D+03

 The electronic state is 1-A'.
 Alpha  occ. eigenvalues --  -20.56236 -20.54992  -1.33536  -1.32298  -0.70944
 Alpha  occ. eigenvalues --   -0.69695  -0.57022  -0.55764  -0.50653  -0.49419
 Alpha virt. eigenvalues --    0.13117   0.14968   0.19521   0.21199   0.53447
 Alpha virt. eigenvalues --    0.54913   0.56594   0.57801   0.66759   0.68832
 Alpha virt. eigenvalues --    0.78238   0.79321   0.79440   0.80444   0.82663

 Mulliken charges:
               1
     1  O   -0.512722
     2  H    0.260214
     3  H    0.252304
     4  O   -0.513666
     5  H    0.258876
     6  H    0.254995
 Sum of Mulliken charges =  -0.00000

 Dipole moment (field-independent basis, Debye):
    X=             -2.4053    Y=             -2.9950    Z=             -0.0000  Tot=              3.8412
 Quadrupole moment (field-independent basis, Debye-Ang):
   XX=             -9.6796   YY=             -6.9236   ZZ=            -14.7142
   XY=             -4.1269   XZ=             -0.0000   YZ=              0.0000

 Normal termination of Gaussian 16 at Sun Aug 28 01:28:18 2022.
