 Gaussian 16, Revision A.03,
 Gaussian 16:  ES64L-G16RevA.03 25-Dec-2016

 ------------------
 #p CCSD(T)/cc-pVTZ
 ------------------

 ------------
 H2O_H2O_4448
 ------------
 Symbolic Z-matrix:
 Charge =  0 Multiplicity = 1

                         Standard orientation:
 ---------------------------------------------------------------------
 Center     Atomic      Atomic             Coordinates (Angstroms)
 Number     Number       Type             X           Y           Z
 ---------------------------------------------------------------------
      1          8           0       -0.016582    2.868543    0.000000
      2          1           0       -0.014258    1.885945    0.000000
      3          1           0        0.912155    3.189407    0.000000
      4          8           0       -0.016582   -2.705135    0.000000
      5          1           0       -0.996926   -2.771719    0.000000
      6          1           0        0.364337   -3.610898    0.000000
 ---------------------------------------------------------------------

 SCF Done:  E(RHF) =  -152.108458974     A.U. after   10 cycles
 E2 =    -0.5257999230D+00 EUMP2 =    -0.15263425889731D+03
 CCSD(T)
 CCSD(T)= -0.15266145591D+03

 The electronic state is 1-A'.
 Alpha  occ. eigenvalues --  -20.56189 -20.55050  -1.33491  -1.32358  -0.70897
 Alpha  occ. eigenvalues --   -0.69764  -0.56985  -0.55832  -0.50610  -0.49482
 Alpha virt. eigenvalues --    0.13197   0.14926   0.19421   0.21303   0.53424
 Alpha virt. eigenvalues --    0.54933   0.56666   0.57782   0.66820   0.68688
 Alpha virt. eigenvalues --    0.78276   0.79375   0.79469   0.80716   0.82466

 Mulliken charges:
               1
     1  O   -0.514441
     2  H    0.259494
     3  H    0.254821
     4  O   -0.514946
     5  H    0.257073
     6  H    0.257999
 Sum of Mulliken charges =  -0.00000

 Dipole moment (field-independent basis, Debye):
    X=              0.5702    Y=             -2.8681    Z=              0.0000  Tot=              2.9242
 Quadrupole moment (field-independent basis, Debye-Ang):
   XX=             -9.5435   YY=             -7.2350   ZZ=            -14.7149
   XY=              7.5317   XZ=              0.0000   YZ=              0.0000

 Normal termination of Gaussian 16 at Sun Aug 28 02:54:36 2022.
