 Gaussian 16, Revision A.03,
 Gaussian 16:  ES64L-G16RevA.03 25-Dec-2016

 ------------------
 #p CCSD(T)/cc-pVTZ
 ------------------

 ------------
 H2O_H2O_4843
 ------------
 Symbolic Z-matrix:
 Charge =  0 Multiplicity = 1

                         Standard orientation:
 ---------------------------------------------------------------------
 Center     Atomic      Atomic             Coordinates (Angstroms)
 Number     Number       Type             X           Y           Z
 ---------------------------------------------------------------------
      1          8           0        0.033744    3.035777    0.000000
      2          1           0        0.032040    2.053177    0.000000
      3          1           0       -0.895195    3.356055    0.000000
      4          8           0        0.033744   -2.858218   -0.000000
      5          1           0        0.940896   -3.235817   -0.000000
      6          1           0       -0.617643   -3.593881   -0.000000
 ---------------------------------------------------------------------

 SCF Done:  E(RHF) =  -152.108323271     A.U. after   10 cycles
 E2 =    -0.5258012424D+00 EUMP2 =    -0.15263412451369D+03
 CCSD(T)
 CCSD(T)= -0.15266132543D+03

 The electronic state is 1-A'.
 Alpha  occ. eigenvalues --  -20.56127 -20.55025  -1.33429  -1.32332  -0.70833
 Alpha  occ. eigenvalues --   -0.69735  -0.56918  -0.55802  -0.50548  -0.49454
 Alpha virt. eigenvalues --    0.13500   0.14803   0.19718   0.20936   0.53696
 Alpha virt. eigenvalues --    0.54814   0.56714   0.57771   0.67014   0.68543
 Alpha virt. eigenvalues --    0.78336   0.79405   0.79719   0.80495   0.82289

 Mulliken charges:
               1
     1  O   -0.513666
     2  H    0.259610
     3  H    0.254008
     4  O   -0.514243
     5  H    0.257457
     6  H    0.256833
 Sum of Mulliken charges =  -0.00000

 Dipole moment (field-independent basis, Debye):
    X=             -1.1586    Y=             -3.1083    Z=             -0.0000  Tot=              3.3172
 Quadrupole moment (field-independent basis, Debye-Ang):
   XX=             -9.1871   YY=             -6.1647   ZZ=            -14.7145
   XY=             -6.7273   XZ=             -0.0000   YZ=              0.0000

 Normal termination of Gaussian 16 at Sun Aug 28 06:19:21 2022.
