 Gaussian 16, Revision A.03,
 Gaussian 16:  ES64L-G16RevA.03 25-Dec-2016

 ------------------
 #p CCSD(T)/cc-pVTZ
 ------------------

 ------------
 H2O_H2O_3635
 ------------
 Symbolic Z-matrix:
 Charge =  0 Multiplicity = 1

                         Standard orientation:
 ---------------------------------------------------------------------
 Center     Atomic      Atomic             Coordinates (Angstroms)
 Number     Number       Type             X           Y           Z
 ---------------------------------------------------------------------
      1          8           0        0.063228    2.556014   -0.000000
      2          1           0        0.062206    1.573413   -0.000000
      3          1           0       -0.865933    2.875647   -0.000000
      4          8           0        0.063228   -2.380495    0.000000
      5          1           0        0.660587   -3.160667    0.000000
      6          1           0       -0.868506   -2.692551    0.000000
 ---------------------------------------------------------------------

 SCF Done:  E(RHF) =  -152.108832416     A.U. after   10 cycles
 E2 =    -0.5258663306D+00 EUMP2 =    -0.15263469874672D+03
 CCSD(T)
 CCSD(T)= -0.15266187612D+03

 The electronic state is 1-A'.
 Alpha  occ. eigenvalues --  -20.56402 -20.54765  -1.33695  -1.32076  -0.71101
 Alpha  occ. eigenvalues --   -0.69470  -0.57200  -0.55550  -0.50816  -0.49201
 Alpha virt. eigenvalues --    0.12751   0.15389   0.19526   0.21647   0.53399
 Alpha virt. eigenvalues --    0.55034   0.56482   0.57980   0.66848   0.69253
 Alpha virt. eigenvalues --    0.78086   0.78912   0.79644   0.79943   0.82930

 Mulliken charges:
               1
     1  O   -0.514804
     2  H    0.262096
     3  H    0.251754
     4  O   -0.514599
     5  H    0.259764
     6  H    0.255790
 Sum of Mulliken charges =  -0.00000

 Dipole moment (field-independent basis, Debye):
    X=             -2.1619    Y=             -3.1156    Z=              0.0000  Tot=              3.7922
 Quadrupole moment (field-independent basis, Debye-Ang):
   XX=             -9.4555   YY=             -6.9994   ZZ=            -14.7163
   XY=             -4.3104   XZ=              0.0000   YZ=             -0.0000

 Normal termination of Gaussian 16 at Fri Aug 26 22:48:27 2022.
