 Gaussian 16, Revision A.03,
 Gaussian 16:  ES64L-G16RevA.03 25-Dec-2016

 ------------------
 #p CCSD(T)/cc-pVTZ
 ------------------

 ------------
 H2O_H2O_1169
 ------------
 Symbolic Z-matrix:
 Charge =  0 Multiplicity = 1

                         Standard orientation:
 ---------------------------------------------------------------------
 Center     Atomic      Atomic             Coordinates (Angstroms)
 Number     Number       Type             X           Y           Z
 ---------------------------------------------------------------------
      1          8           0        0.030300    1.568812   -0.000000
      2          1           0        0.026703    0.586217   -0.000000
      3          1           0       -0.898021    1.890878   -0.000000
      4          8           0        0.030300   -1.393281    0.000000
      5          1           0        0.959593   -1.712532    0.000000
      6          1           0       -0.573073   -2.168810    0.000000
 ---------------------------------------------------------------------

 SCF Done:  E(RHF) =  -152.113990887     A.U. after   10 cycles
 E2 =    -0.5279661817D+00 EUMP2 =    -0.15264195706861D+03
 CCSD(T)
 CCSD(T)= -0.15266886931D+03

 The electronic state is 1-A'.
 Alpha  occ. eigenvalues --  -20.58468 -20.52181  -1.35878  -1.29764  -0.73215
 Alpha  occ. eigenvalues --   -0.67908  -0.59622  -0.52967  -0.52911  -0.46901
 Alpha virt. eigenvalues --    0.12005   0.18231   0.18715   0.31063   0.49249
 Alpha virt. eigenvalues --    0.54629   0.55907   0.61712   0.68507   0.72538
 Alpha virt. eigenvalues --    0.73107   0.77172   0.82163   0.82553   0.84661

 Mulliken charges:
               1
     1  O   -0.560303
     2  H    0.288299
     3  H    0.246875
     4  O   -0.494865
     5  H    0.265494
     6  H    0.254500
 Sum of Mulliken charges =  -0.00000

 Dipole moment (field-independent basis, Debye):
    X=             -1.0108    Y=             -3.5987    Z=              0.0000  Tot=              3.7380
 Quadrupole moment (field-independent basis, Debye-Ang):
   XX=             -9.2247   YY=             -8.6150   ZZ=            -14.7305
   XY=             -3.7681   XZ=              0.0000   YZ=             -0.0000

 Normal termination of Gaussian 16 at Fri Aug 26 22:52:43 2022.
