 Gaussian 16, Revision A.03,
 Gaussian 16:  ES64L-G16RevA.03 25-Dec-2016

 ------------------
 #p CCSD(T)/cc-pVTZ
 ------------------

 ------------
 H2O_H2O_3668
 ------------
 Symbolic Z-matrix:
 Charge =  0 Multiplicity = 1

                         Standard orientation:
 ---------------------------------------------------------------------
 Center     Atomic      Atomic             Coordinates (Angstroms)
 Number     Number       Type             X           Y           Z
 ---------------------------------------------------------------------
      1          8           0        0.033773    2.567086    0.000000
      2          1           0        0.031747    1.584486    0.000000
      3          1           0       -0.895061    2.887668    0.000000
      4          8           0        0.033773   -2.389549   -0.000000
      5          1           0        0.940801   -2.767446   -0.000000
      6          1           0       -0.617857   -3.124999   -0.000000
 ---------------------------------------------------------------------

 SCF Done:  E(RHF) =  -152.109095148     A.U. after   10 cycles
 E2 =    -0.5258325291D+00 EUMP2 =    -0.15263492767701D+03
 CCSD(T)
 CCSD(T)= -0.15266210083D+03

 The electronic state is 1-A'.
 Alpha  occ. eigenvalues --  -20.56381 -20.54728  -1.33675  -1.32042  -0.71077
 Alpha  occ. eigenvalues --   -0.69443  -0.57192  -0.55524  -0.50798  -0.49172
 Alpha virt. eigenvalues --    0.12849   0.15424   0.19541   0.21678   0.53410
 Alpha virt. eigenvalues --    0.55092   0.56546   0.57922   0.66827   0.69261
 Alpha virt. eigenvalues --    0.78101   0.78990   0.79670   0.79858   0.82978

 Mulliken charges:
               1
     1  O   -0.516667
     2  H    0.262252
     3  H    0.253485
     4  O   -0.516104
     5  H    0.259037
     6  H    0.257997
 Sum of Mulliken charges =  -0.00000

 Dipole moment (field-independent basis, Debye):
    X=             -1.1557    Y=             -3.1493    Z=             -0.0000  Tot=              3.3547
 Quadrupole moment (field-independent basis, Debye-Ang):
   XX=             -9.1861   YY=             -6.8808   ZZ=            -14.7172
   XY=             -5.7694   XZ=             -0.0000   YZ=              0.0000

 CCSD(T)=-152.6621008\RMSD=7.019e-09\PG=CS [SG(H4O2)]\\@
 Normal termination of Gaussian 16 at Fri Aug 26 22:59:19 2022.
