 Gaussian 16, Revision A.03,
 Gaussian 16:  ES64L-G16RevA.03 25-Dec-2016

 ------------------
 #p CCSD(T)/cc-pVTZ
 ------------------

 ------------
 H2O_H2O_4231
 ------------
 Symbolic Z-matrix:
 Charge =  0 Multiplicity = 1

                         Standard orientation:
 ---------------------------------------------------------------------
 Center     Atomic      Atomic             Coordinates (Angstroms)
 Number     Number       Type             X           Y           Z
 ---------------------------------------------------------------------
      1          8           0        0.076750    2.788661   -0.000000
      2          1           0        0.076242    1.806059   -0.000000
      3          1           0       -0.852578    3.107807   -0.000000
      4          8           0        0.076750   -2.625437    0.000000
      5          1           0        0.452306   -3.533436    0.000000
      6          1           0       -0.903970   -2.686222    0.000000
 ---------------------------------------------------------------------

 SCF Done:  E(RHF) =  -152.108157082     A.U. after   10 cycles
 E2 =    -0.5258494700D+00 EUMP2 =    -0.15263400655213D+03
 CCSD(T)
 CCSD(T)= -0.15266120711D+03

 The electronic state is 1-A'.
 Alpha  occ. eigenvalues --  -20.56250 -20.55047  -1.33551  -1.32353  -0.70961
 Alpha  occ. eigenvalues --   -0.69749  -0.57031  -0.55815  -0.50666  -0.49471
 Alpha virt. eigenvalues --    0.12979   0.14962   0.19391   0.21323   0.53338
 Alpha virt. eigenvalues --    0.54940   0.56567   0.57809   0.66755   0.68813
 Alpha virt. eigenvalues --    0.78226   0.79254   0.79390   0.80677   0.82591

 Mulliken charges:
               1
     1  O   -0.512062
     2  H    0.259787
     3  H    0.252065
     4  O   -0.513063
     5  H    0.258934
     6  H    0.254340
 Sum of Mulliken charges =  -0.00000

 Dipole moment (field-independent basis, Debye):
    X=             -2.6298    Y=             -2.8723    Z=              0.0000  Tot=              3.8943
 Quadrupole moment (field-independent basis, Debye-Ang):
   XX=             -9.9488   YY=             -7.3539   ZZ=            -14.7138
   XY=             -3.6453   XZ=              0.0000   YZ=             -0.0000

 Normal termination of Gaussian 16 at Sun Aug 28 00:58:48 2022.
