 Gaussian 16, Revision A.03,
 Gaussian 16:  ES64L-G16RevA.03 25-Dec-2016

 ------------------
 #p CCSD(T)/cc-pVTZ
 ------------------

 ------------
 H2O_H2O_4792
 ------------
 Symbolic Z-matrix:
 Charge =  0 Multiplicity = 1

                         Standard orientation:
 ---------------------------------------------------------------------
 Center     Atomic      Atomic             Coordinates (Angstroms)
 Number     Number       Type             X           Y           Z
 ---------------------------------------------------------------------
      1          8           0        0.037403    3.016616    0.000000
      2          1           0        0.035794    2.034015    0.000000
      3          1           0       -0.891566    3.336804   -0.000000
      4          8           0        0.037403   -2.837616    0.000000
      5          1           0        0.917958   -3.273652    0.000000
      6          1           0       -0.660639   -3.529167   -0.000000
 ---------------------------------------------------------------------

 SCF Done:  E(RHF) =  -152.108336953     A.U. after   10 cycles
 E2 =    -0.5258022445D+00 EUMP2 =    -0.15263413919794D+03
 CCSD(T)
 CCSD(T)= -0.15266133958D+03

 The electronic state is 1-A'.
 Alpha  occ. eigenvalues --  -20.56135 -20.55007  -1.33437  -1.32313  -0.70841
 Alpha  occ. eigenvalues --   -0.69717  -0.56927  -0.55784  -0.50556  -0.49436
 Alpha virt. eigenvalues --    0.13487   0.14824   0.19725   0.20947   0.53698
 Alpha virt. eigenvalues --    0.54821   0.56707   0.57780   0.66988   0.68579
 Alpha virt. eigenvalues --    0.78328   0.79422   0.79719   0.80426   0.82377

 Mulliken charges:
               1
     1  O   -0.513687
     2  H    0.259790
     3  H    0.253840
     4  O   -0.514301
     5  H    0.257629
     6  H    0.256728
 Sum of Mulliken charges =  -0.00000

 Dipole moment (field-independent basis, Debye):
    X=             -1.2839    Y=             -3.1348    Z=             -0.0000  Tot=              3.3875
 Quadrupole moment (field-independent basis, Debye-Ang):
   XX=             -9.1598   YY=             -6.1088   ZZ=            -14.7146
   XY=             -6.4504   XZ=              0.0000   YZ=             -0.0000

 Normal termination of Gaussian 16 at Sun Aug 28 05:55:31 2022.
