 Gaussian 16, Revision A.03,
 Gaussian 16:  ES64L-G16RevA.03 25-Dec-2016

 ------------------
 #p CCSD(T)/cc-pVTZ
 ------------------

 -----------
 H2O_H2O_479
 -----------
 Symbolic Z-matrix:
 Charge =  0 Multiplicity = 1

                         Standard orientation:
 ---------------------------------------------------------------------
 Center     Atomic      Atomic             Coordinates (Angstroms)
 Number     Number       Type             X           Y           Z
 ---------------------------------------------------------------------
      1          8           0        0.082830   -1.288114    0.000000
      2          1           0        0.082119   -0.305513    0.000000
      3          1           0       -0.846433   -1.607453    0.000000
      4          8           0        0.082830    1.133652    0.000000
      5          1           0        0.336459    2.082956    0.000000
      6          1           0       -0.897420    1.065705    0.000000
 ---------------------------------------------------------------------

 SCF Done:  E(RHF) =  -152.092598249     A.U. after   11 cycles
 E2 =    -0.5330860066D+00 EUMP2 =    -0.15262568425556D+03
 CCSD(T)
 CCSD(T)= -0.15265209657D+03

 The electronic state is 1-A'.
 Alpha  occ. eigenvalues --  -20.60175 -20.50167  -1.38990  -1.28433  -0.77421
 Alpha  occ. eigenvalues --   -0.69232  -0.58944  -0.55322  -0.50850  -0.45378
 Alpha virt. eigenvalues --    0.11131   0.16522   0.20688   0.32695   0.48649
 Alpha virt. eigenvalues --    0.52570   0.59202   0.64373   0.71815   0.71880
 Alpha virt. eigenvalues --    0.74117   0.78149   0.78773   0.83504   0.84308

 Mulliken charges:
               1
     1  O   -0.582226
     2  H    0.292199
     3  H    0.215066
     4  O   -0.390620
     5  H    0.231518
     6  H    0.234063
 Sum of Mulliken charges =  -0.00000

 Dipole moment (field-independent basis, Debye):
    X=             -2.6447    Y=              3.7438    Z=              0.0000  Tot=              4.5837
 Quadrupole moment (field-independent basis, Debye-Ang):
   XX=            -10.2712   YY=             -9.3802   ZZ=            -14.6406
   XY=              2.5119   XZ=              0.0000   YZ=              0.0000

 Normal termination of Gaussian 16 at Fri Aug 26 18:32:36 2022.
