 Gaussian 16, Revision A.03,
 Gaussian 16:  ES64L-G16RevA.03 25-Dec-2016

 ------------------
 #p CCSD(T)/cc-pVTZ
 ------------------

 ------------
 H2O_H2O_4877
 ------------
 Symbolic Z-matrix:
 Charge =  0 Multiplicity = 1

                         Standard orientation:
 ---------------------------------------------------------------------
 Center     Atomic      Atomic             Coordinates (Angstroms)
 Number     Number       Type             X           Y           Z
 ---------------------------------------------------------------------
      1          8           0        0.088229   -3.037667    0.000000
      2          1           0        0.088093   -2.055065    0.000000
      3          1           0       -0.841221   -3.356461    0.000000
      4          8           0        0.088229    2.893340    0.000000
      5          1           0        0.216350    3.867552    0.000000
      6          1           0       -0.874879    2.698590    0.000000
 ---------------------------------------------------------------------

 SCF Done:  E(RHF) =  -152.107714309     A.U. after   10 cycles
 E2 =    -0.5258567134D+00 EUMP2 =    -0.15263357102257D+03
 CCSD(T)
 CCSD(T)= -0.15266078477D+03

 The electronic state is 1-A'.
 Alpha  occ. eigenvalues --  -20.56145 -20.55299  -1.33447  -1.32600  -0.70859
 Alpha  occ. eigenvalues --   -0.69999  -0.56909  -0.56054  -0.50559  -0.49714
 Alpha virt. eigenvalues --    0.13198   0.14597   0.19214   0.21158   0.53476
 Alpha virt. eigenvalues --    0.54715   0.56622   0.57599   0.67079   0.68324
 Alpha virt. eigenvalues --    0.78328   0.79158   0.79718   0.80893   0.81704

 Mulliken charges:
               1
     1  O   -0.510103
     2  H    0.257545
     3  H    0.252534
     4  O   -0.510946
     5  H    0.257760
     6  H    0.253209
 Sum of Mulliken charges =  -0.00000

 Dipole moment (field-independent basis, Debye):
    X=             -3.0285    Y=              2.5257    Z=              0.0000  Tot=              3.9434
 Quadrupole moment (field-independent basis, Debye-Ang):
   XX=            -10.5486   YY=             -8.4256   ZZ=            -14.7122
   XY=              2.7075   XZ=              0.0000   YZ=              0.0000

 Normal termination of Gaussian 16 at Sun Aug 28 06:36:43 2022.
