 Gaussian 16, Revision A.03,
 Gaussian 16:  ES64L-G16RevA.03 25-Dec-2016

 ------------------
 #p CCSD(T)/cc-pVTZ
 ------------------

 ---------
 H2O_H2O_6
 ---------
 Symbolic Z-matrix:
 Charge =  0 Multiplicity = 1

                         Standard orientation:
 ---------------------------------------------------------------------
 Center     Atomic      Atomic             Coordinates (Angstroms)
 Number     Number       Type             X           Y           Z
 ---------------------------------------------------------------------
      1          8           0        0.076819   -1.103339    0.000000
      2          1           0        0.075475   -0.120739    0.000000
      3          1           0       -0.852237   -1.423277    0.000000
      4          8           0        0.076819    0.940246    0.000000
      5          1           0        0.451603    1.848565    0.000000
      6          1           0       -0.903951    1.000196    0.000000
 ---------------------------------------------------------------------

 SCF Done:  E(RHF) =  -152.019493056     A.U. after   11 cycles
 E2 =    -0.5383038258D+00 EUMP2 =    -0.15255779688185D+03
 CCSD(T)
 CCSD(T)= -0.15258320377D+03

 The electronic state is 1-A'.
 Alpha  occ. eigenvalues --  -20.62172 -20.44760  -1.45139  -1.24959  -0.83332
 Alpha  occ. eigenvalues --   -0.74699  -0.59061  -0.54547  -0.45061  -0.41503
 Alpha virt. eigenvalues --    0.10275   0.15717   0.21774   0.31638   0.49397
 Alpha virt. eigenvalues --    0.51190   0.60206   0.64584   0.70183   0.71754
 Alpha virt. eigenvalues --    0.76514   0.79220   0.81778   0.85129   0.88151

 Mulliken charges:
               1
     1  O   -0.647764
     2  H    0.260770
     3  H    0.186217
     4  O   -0.270257
     5  H    0.229243
     6  H    0.241791
 Sum of Mulliken charges =  -0.00000

 Dipole moment (field-independent basis, Debye):
    X=             -2.3205    Y=              4.7633    Z=              0.0000  Tot=              5.2985
 Quadrupole moment (field-independent basis, Debye-Ang):
   XX=             -9.8971   YY=            -10.1684   ZZ=            -14.5063
   XY=              2.4464   XZ=              0.0000   YZ=              0.0000

 Normal termination of Gaussian 16 at Fri Aug 26 15:13:44 2022.
