 Gaussian 16, Revision A.03,
 Gaussian 16:  ES64L-G16RevA.03 25-Dec-2016

 ------------------
 #p CCSD(T)/cc-pVTZ
 ------------------

 ------------
 H2O_H2O_2051
 ------------
 Symbolic Z-matrix:
 Charge =  0 Multiplicity = 1

                         Standard orientation:
 ---------------------------------------------------------------------
 Center     Atomic      Atomic             Coordinates (Angstroms)
 Number     Number       Type             X           Y           Z
 ---------------------------------------------------------------------
      1          8           0        0.090686   -1.907785    0.000000
      2          1           0        0.090581   -0.925183    0.000000
      3          1           0       -0.838773   -2.226550    0.000000
      4          8           0        0.090686    1.769080    0.000000
      5          1           0        0.154847    2.749584    0.000000
      6          1           0       -0.857631    1.511786    0.000000
 ---------------------------------------------------------------------

 SCF Done:  E(RHF) =  -152.109163150     A.U. after   10 cycles
 E2 =    -0.5266533377D+00 EUMP2 =    -0.15263581648788D+03
 CCSD(T)
 CCSD(T)= -0.15266294542D+03

 The electronic state is 1-A'.
 Alpha  occ. eigenvalues --  -20.57265 -20.54736  -1.34558  -1.32049  -0.72073
 Alpha  occ. eigenvalues --   -0.69376  -0.58063  -0.55478  -0.51656  -0.49163
 Alpha virt. eigenvalues --    0.11517   0.16129   0.20068   0.25379   0.52181
 Alpha virt. eigenvalues --    0.55636   0.56931   0.57433   0.68236   0.73497
 Alpha virt. eigenvalues --    0.76247   0.78836   0.79926   0.81863   0.83029

 Mulliken charges:
               1
     1  O   -0.515700
     2  H    0.265680
     3  H    0.244747
     4  O   -0.499745
     5  H    0.258353
     6  H    0.246665
 Sum of Mulliken charges =  -0.00000

 Dipole moment (field-independent basis, Debye):
    X=             -3.0592    Y=              2.5845    Z=              0.0000  Tot=              4.0048
 Quadrupole moment (field-independent basis, Debye-Ang):
   XX=            -10.7345   YY=             -8.9534   ZZ=            -14.7153
   XY=              2.3235   XZ=              0.0000   YZ=              0.0000

 Normal termination of Gaussian 16 at Sun Aug 28 03:53:47 2022.
