 Gaussian 16, Revision A.03,
 Gaussian 16:  ES64L-G16RevA.03 25-Dec-2016

 ------------------
 #p CCSD(T)/cc-pVTZ
 ------------------

 -----------
 H2O_H2O_505
 -----------
 Symbolic Z-matrix:
 Charge =  0 Multiplicity = 1

                         Standard orientation:
 ---------------------------------------------------------------------
 Center     Atomic      Atomic             Coordinates (Angstroms)
 Number     Number       Type             X           Y           Z
 ---------------------------------------------------------------------
      1          8           0        0.079886   -1.300548    0.000000
      2          1           0        0.078975   -0.317947    0.000000
      3          1           0       -0.849311   -1.620076    0.000000
      4          8           0        0.079886    1.141555    0.000000
      5          1           0        0.394870    2.072302    0.000000
      6          1           0       -0.902708    1.137665    0.000000
 ---------------------------------------------------------------------

 SCF Done:  E(RHF) =  -152.095497552     A.U. after   11 cycles
 E2 =    -0.5326581362D+00 EUMP2 =    -0.15262815568827D+03
 CCSD(T)
 CCSD(T)= -0.15265459201D+03

 The electronic state is 1-A'.
 Alpha  occ. eigenvalues --  -20.60112 -20.50101  -1.38766  -1.28350  -0.76907
 Alpha  occ. eigenvalues --   -0.69416  -0.58942  -0.55206  -0.50765  -0.45302
 Alpha virt. eigenvalues --    0.11156   0.16625   0.20534   0.32799   0.48543
 Alpha virt. eigenvalues --    0.52862   0.59267   0.63938   0.71735   0.71933
 Alpha virt. eigenvalues --    0.74069   0.78629   0.78647   0.83706   0.84208

 Mulliken charges:
               1
     1  O   -0.584731
     2  H    0.295562
     3  H    0.217094
     4  O   -0.397873
     5  H    0.233659
     6  H    0.236288
 Sum of Mulliken charges =  -0.00000

 Dipole moment (field-independent basis, Debye):
    X=             -2.5531    Y=              3.8107    Z=              0.0000  Tot=              4.5869
 Quadrupole moment (field-independent basis, Debye-Ang):
   XX=            -10.1202   YY=             -9.3419   ZZ=            -14.6496
   XY=              2.6185   XZ=              0.0000   YZ=              0.0000

 Normal termination of Gaussian 16 at Fri Aug 26 18:42:39 2022.
