 Gaussian 16, Revision A.03,
 Gaussian 16:  ES64L-G16RevA.03 25-Dec-2016

 ------------------
 #p CCSD(T)/cc-pVTZ
 ------------------

 -----------
 H2O_H2O_469
 -----------
 Symbolic Z-matrix:
 Charge =  0 Multiplicity = 1

                         Standard orientation:
 ---------------------------------------------------------------------
 Center     Atomic      Atomic             Coordinates (Angstroms)
 Number     Number       Type             X           Y           Z
 ---------------------------------------------------------------------
      1          8           0        0.030375    1.289574   -0.000000
      2          1           0        0.025942    0.306982   -0.000000
      3          1           0       -0.897672    1.612430   -0.000000
      4          8           0        0.030375   -1.114094    0.000000
      5          1           0        0.959395   -1.434136    0.000000
      6          1           0       -0.573658   -1.889112    0.000000
 ---------------------------------------------------------------------

 SCF Done:  E(RHF) =  -152.097301964     A.U. after   11 cycles
 E2 =    -0.5319971703D+00 EUMP2 =    -0.15262929913448D+03
 CCSD(T)
 CCSD(T)= -0.15265560748D+03

 The electronic state is 1-A'.
 Alpha  occ. eigenvalues --  -20.60306 -20.48490  -1.38992  -1.27085  -0.76025
 Alpha  occ. eigenvalues --   -0.71024  -0.58515  -0.55514  -0.48984  -0.44017
 Alpha virt. eigenvalues --    0.11304   0.17782   0.19778   0.33848   0.47281
 Alpha virt. eigenvalues --    0.53498   0.59759   0.67534   0.69190   0.72207
 Alpha virt. eigenvalues --    0.74640   0.78079   0.80040   0.83583   0.83824

 Mulliken charges:
               1
     1  O   -0.623372
     2  H    0.306040
     3  H    0.231936
     4  O   -0.419206
     5  H    0.261569
     6  H    0.243034
 Sum of Mulliken charges =   0.00000

 Dipole moment (field-independent basis, Debye):
    X=             -0.9727    Y=             -4.2665    Z=              0.0000  Tot=              4.3760
 Quadrupole moment (field-independent basis, Debye-Ang):
   XX=             -9.1867   YY=             -9.4742   ZZ=            -14.6638
   XY=             -3.1094   XZ=              0.0000   YZ=              0.0000

 Normal termination of Gaussian 16 at Fri Aug 26 18:28:40 2022.
