 Gaussian 16, Revision A.03,
 Gaussian 16:  ES64L-G16RevA.03 25-Dec-2016

 ------------------
 #p CCSD(T)/cc-pVTZ
 ------------------

 ------------
 H2O_H2O_1448
 ------------
 Symbolic Z-matrix:
 Charge =  0 Multiplicity = 1

                         Standard orientation:
 ---------------------------------------------------------------------
 Center     Atomic      Atomic             Coordinates (Angstroms)
 Number     Number       Type             X           Y           Z
 ---------------------------------------------------------------------
      1          8           0       -0.016727    1.671888    0.000000
      2          1           0       -0.012655    0.689295    0.000000
      3          1           0        0.911437    1.994404    0.000000
      4          8           0       -0.016727   -1.508539    0.000000
      5          1           0       -0.996951   -1.576867    0.000000
      6          1           0        0.365803   -2.413622    0.000000
 ---------------------------------------------------------------------

 SCF Done:  E(RHF) =  -152.113243454     A.U. after   10 cycles
 E2 =    -0.5272070591D+00 EUMP2 =    -0.15264045051292D+03
 CCSD(T)
 CCSD(T)= -0.15266745444D+03

 The electronic state is 1-A'.
 Alpha  occ. eigenvalues --  -20.57946 -20.53193  -1.35284  -1.30641  -0.72769
 Alpha  occ. eigenvalues --   -0.68208  -0.59096  -0.53961  -0.52391  -0.47794
 Alpha virt. eigenvalues --    0.12145   0.17601   0.19113   0.29251   0.50609
 Alpha virt. eigenvalues --    0.54432   0.55704   0.60866   0.68813   0.73969
 Alpha virt. eigenvalues --    0.74031   0.77098   0.81395   0.82689   0.84295

 Mulliken charges:
               1
     1  O   -0.546153
     2  H    0.276009
     3  H    0.252842
     4  O   -0.497816
     5  H    0.263275
     6  H    0.251843
 Sum of Mulliken charges =  -0.00000

 Dipole moment (field-independent basis, Debye):
    X=              0.5712    Y=             -3.2220    Z=              0.0000  Tot=              3.2722
 Quadrupole moment (field-independent basis, Debye-Ang):
   XX=             -9.5425   YY=             -8.5318   ZZ=            -14.7297
   XY=              4.3766   XZ=              0.0000   YZ=              0.0000

 Normal termination of Gaussian 16 at Sat Aug 27 00:38:49 2022.
