 Gaussian 16, Revision A.03,
 Gaussian 16:  ES64L-G16RevA.03 25-Dec-2016

 ------------------
 #p CCSD(T)/cc-pVTZ
 ------------------

 ------------
 H2O_H2O_3056
 ------------
 Symbolic Z-matrix:
 Charge =  0 Multiplicity = 1

                         Standard orientation:
 ---------------------------------------------------------------------
 Center     Atomic      Atomic             Coordinates (Angstroms)
 Number     Number       Type             X           Y           Z
 ---------------------------------------------------------------------
      1          8           0        0.076759    2.319971   -0.000000
      2          1           0        0.076145    1.337370   -0.000000
      3          1           0       -0.852535    2.639218   -0.000000
      4          8           0        0.076759   -2.156764    0.000000
      5          1           0        0.452218   -3.064804    0.000000
      6          1           0       -0.903967   -2.217444    0.000000
 ---------------------------------------------------------------------

 SCF Done:  E(RHF) =  -152.109028065     A.U. after   10 cycles
 E2 =    -0.5259927267D+00 EUMP2 =    -0.15263502079133D+03
 CCSD(T)
 CCSD(T)= -0.15266218144D+03

 The electronic state is 1-A'.
 Alpha  occ. eigenvalues --  -20.56628 -20.54726  -1.33915  -1.32038  -0.71330
 Alpha  occ. eigenvalues --   -0.69423  -0.57420  -0.55507  -0.51034  -0.49162
 Alpha virt. eigenvalues --    0.12158   0.15725   0.19418   0.22597   0.53736
 Alpha virt. eigenvalues --    0.55112   0.56346   0.58397   0.67896   0.69273
 Alpha virt. eigenvalues --    0.77863   0.78750   0.79687   0.80430   0.82928

 Mulliken charges:
               1
     1  O   -0.514751
     2  H    0.262634
     3  H    0.249883
     4  O   -0.511529
     5  H    0.259949
     6  H    0.253814
 Sum of Mulliken charges =  -0.00000

 Dipole moment (field-independent basis, Debye):
    X=             -2.6163    Y=             -2.9315    Z=             -0.0000  Tot=              3.9292
 Quadrupole moment (field-independent basis, Debye-Ang):
   XX=             -9.9562   YY=             -7.8181   ZZ=            -14.7167
   XY=             -3.3786   XZ=              0.0000   YZ=             -0.0000

 Normal termination of Gaussian 16 at Fri Aug 26 19:31:43 2022.
