 Gaussian 16, Revision A.03,
 Gaussian 16:  ES64L-G16RevA.03 25-Dec-2016

 ------------------
 #p CCSD(T)/cc-pVTZ
 ------------------

 ------------
 H2O_H2O_4513
 ------------
 Symbolic Z-matrix:
 Charge =  0 Multiplicity = 1

                         Standard orientation:
 ---------------------------------------------------------------------
 Center     Atomic      Atomic             Coordinates (Angstroms)
 Number     Number       Type             X           Y           Z
 ---------------------------------------------------------------------
      1          8           0        0.052271    2.907424    0.000000
      2          1           0        0.051046    1.924823    0.000000
      3          1           0       -0.876824    3.227249   -0.000000
      4          8           0        0.052271   -2.727502    0.000000
      5          1           0        0.790222   -3.376295    0.000000
      6          1           0       -0.800782   -3.215156   -0.000000
 ---------------------------------------------------------------------

 SCF Done:  E(RHF) =  -152.108383642     A.U. after   10 cycles
 E2 =    -0.5258117330D+00 EUMP2 =    -0.15263419537483D+03
 CCSD(T)
 CCSD(T)= -0.15266139318D+03

 The electronic state is 1-A'.
 Alpha  occ. eigenvalues --  -20.56184 -20.54950  -1.33486  -1.32258  -0.70890
 Alpha  occ. eigenvalues --   -0.69658  -0.56978  -0.55727  -0.50604  -0.49380
 Alpha virt. eigenvalues --    0.13364   0.14923   0.19695   0.21035   0.53654
 Alpha virt. eigenvalues --    0.54848   0.56661   0.57795   0.66843   0.68751
 Alpha virt. eigenvalues --    0.78283   0.79476   0.79663   0.80150   0.82668

 Mulliken charges:
               1
     1  O   -0.513658
     2  H    0.260418
     3  H    0.253114
     4  O   -0.514435
     5  H    0.258354
     6  H    0.256207
 Sum of Mulliken charges =  -0.00000

 Dipole moment (field-independent basis, Debye):
    X=             -1.7926    Y=             -3.1582    Z=             -0.0000  Tot=              3.6315
 Quadrupole moment (field-independent basis, Debye-Ang):
   XX=             -9.2250   YY=             -6.2375   ZZ=            -14.7147
   XY=             -5.3536   XZ=              0.0000   YZ=             -0.0000

 Normal termination of Gaussian 16 at Sun Aug 28 03:29:35 2022.
