 Gaussian 16, Revision A.03,
 Gaussian 16:  ES64L-G16RevA.03 25-Dec-2016

 ------------------
 #p CCSD(T)/cc-pVTZ
 ------------------

 ------------
 H2O_H2O_4005
 ------------
 Symbolic Z-matrix:
 Charge =  0 Multiplicity = 1

                         Standard orientation:
 ---------------------------------------------------------------------
 Center     Atomic      Atomic             Coordinates (Angstroms)
 Number     Number       Type             X           Y           Z
 ---------------------------------------------------------------------
      1          8           0        0.079847    2.696658    0.000000
      2          1           0        0.079422    1.714057    0.000000
      3          1           0       -0.849509    3.015726    0.000000
      4          8           0        0.079847   -2.537586   -0.000000
      5          1           0        0.395290   -3.468178   -0.000000
      6          1           0       -0.902749   -2.534182   -0.000000
 ---------------------------------------------------------------------

 SCF Done:  E(RHF) =  -152.108179731     A.U. after   10 cycles
 E2 =    -0.5258676299D+00 EUMP2 =    -0.15263404736106D+03
 CCSD(T)
 CCSD(T)= -0.15266124518D+03

 The electronic state is 1-A'.
 Alpha  occ. eigenvalues --  -20.56304 -20.55042  -1.33604  -1.32348  -0.71016
 Alpha  occ. eigenvalues --   -0.69742  -0.57083  -0.55810  -0.50718  -0.49466
 Alpha virt. eigenvalues --    0.12730   0.15071   0.19293   0.21560   0.53234
 Alpha virt. eigenvalues --    0.55001   0.56520   0.57870   0.66715   0.68921
 Alpha virt. eigenvalues --    0.78178   0.79046   0.79395   0.80800   0.82622

 Mulliken charges:
               1
     1  O   -0.511916
     2  H    0.259875
     3  H    0.251699
     4  O   -0.512833
     5  H    0.259246
     6  H    0.253929
 Sum of Mulliken charges =  -0.00000

 Dipole moment (field-independent basis, Debye):
    X=             -2.7338    Y=             -2.8063    Z=             -0.0000  Tot=              3.9177
 Quadrupole moment (field-independent basis, Debye-Ang):
   XX=            -10.0957   YY=             -7.6764   ZZ=            -14.7138
   XY=             -3.3637   XZ=             -0.0000   YZ=              0.0000

 Normal termination of Gaussian 16 at Sat Aug 27 00:57:04 2022.
