 Gaussian 16, Revision A.03,
 Gaussian 16:  ES64L-G16RevA.03 25-Dec-2016

 ------------------
 #p CCSD(T)/cc-pVTZ
 ------------------

 ------------
 H2O_H2O_4490
 ------------
 Symbolic Z-matrix:
 Charge =  0 Multiplicity = 1

                         Standard orientation:
 ---------------------------------------------------------------------
 Center     Atomic      Atomic             Coordinates (Angstroms)
 Number     Number       Type             X           Y           Z
 ---------------------------------------------------------------------
      1          8           0        0.044826    2.897730    0.000000
      2          1           0        0.043372    1.915129    0.000000
      3          1           0       -0.884194    3.217771    0.000000
      4          8           0        0.044826   -2.717298   -0.000000
      5          1           0        0.861021   -3.264411   -0.000000
      6          1           0       -0.737415   -3.311944   -0.000000
 ---------------------------------------------------------------------

 SCF Done:  E(RHF) =  -152.108447304     A.U. after   10 cycles
 E2 =    -0.5258065441D+00 EUMP2 =    -0.15263425384761D+03
 CCSD(T)
 CCSD(T)= -0.15266145028D+03

 The electronic state is 1-A'.
 Alpha  occ. eigenvalues --  -20.56186 -20.54937  -1.33488  -1.32244  -0.70891
 Alpha  occ. eigenvalues --   -0.69646  -0.56982  -0.55716  -0.50607  -0.49368
 Alpha virt. eigenvalues --    0.13364   0.14945   0.19703   0.21051   0.53660
 Alpha virt. eigenvalues --    0.54852   0.56665   0.57802   0.66827   0.68771
 Alpha virt. eigenvalues --    0.78280   0.79487   0.79684   0.80093   0.82693

 Mulliken charges:
               1
     1  O   -0.514049
     2  H    0.260516
     3  H    0.253397
     4  O   -0.514760
     5  H    0.258239
     6  H    0.256657
 Sum of Mulliken charges =  -0.00000

 Dipole moment (field-independent basis, Debye):
    X=             -1.5373    Y=             -3.1677    Z=             -0.0000  Tot=              3.5210
 Quadrupole moment (field-independent basis, Debye-Ang):
   XX=             -9.1569   YY=             -6.2216   ZZ=            -14.7149
   XY=             -5.7810   XZ=             -0.0000   YZ=              0.0000

 Normal termination of Gaussian 16 at Sun Aug 28 03:19:12 2022.
