 Gaussian 16, Revision A.03,
 Gaussian 16:  ES64L-G16RevA.03 25-Dec-2016

 ------------------
 #p CCSD(T)/cc-pVTZ
 ------------------

 -----------
 H2O_H2O_150
 -----------
 Symbolic Z-matrix:
 Charge =  0 Multiplicity = 1

                         Standard orientation:
 ---------------------------------------------------------------------
 Center     Atomic      Atomic             Coordinates (Angstroms)
 Number     Number       Type             X           Y           Z
 ---------------------------------------------------------------------
      1          8           0        0.092949   -1.146703    0.000000
      2          1           0        0.092949   -0.164102    0.000000
      3          1           0       -0.836544   -1.465370    0.000000
      4          8           0        0.092949    1.013916    0.000000
      5          1           0        0.092950    1.996518    0.000000
      6          1           0       -0.836544    0.695250    0.000000
 ---------------------------------------------------------------------

 SCF Done:  E(RHF) =  -152.040143225     A.U. after   11 cycles
 E2 =    -0.5384784783D+00 EUMP2 =    -0.15257862170351D+03
 CCSD(T)
 CCSD(T)= -0.15260438100D+03

 The electronic state is 1-A'.
 Alpha  occ. eigenvalues --  -20.61211 -20.48442  -1.43192  -1.27487  -0.83116
 Alpha  occ. eigenvalues --   -0.69503  -0.57522  -0.57455  -0.49178  -0.44339
 Alpha virt. eigenvalues --    0.10868   0.15946   0.21822   0.31695   0.49040
 Alpha virt. eigenvalues --    0.50714   0.59631   0.67645   0.71118   0.72669
 Alpha virt. eigenvalues --    0.75036   0.77924   0.79438   0.84006   0.85272

 Mulliken charges:
               1
     1  O   -0.585965
     2  H    0.259515
     3  H    0.190080
     4  O   -0.326260
     5  H    0.226309
     6  H    0.236321
 Sum of Mulliken charges =   0.00000

 Dipole moment (field-independent basis, Debye):
    X=             -2.9123    Y=              3.7728    Z=              0.0000  Tot=              4.7661
 Quadrupole moment (field-independent basis, Debye-Ang):
   XX=            -10.8054   YY=             -9.9106   ZZ=            -14.5285
   XY=              1.9129   XZ=              0.0000   YZ=              0.0000

 Normal termination of Gaussian 16 at Fri Aug 26 16:12:38 2022.
