 Gaussian 16, Revision A.03,
 Gaussian 16:  ES64L-G16RevA.03 25-Dec-2016

 ------------------
 #p CCSD(T)/cc-pVTZ
 ------------------

 ------------
 H2O_H2O_1149
 ------------
 Symbolic Z-matrix:
 Charge =  0 Multiplicity = 1

                         Standard orientation:
 ---------------------------------------------------------------------
 Center     Atomic      Atomic             Coordinates (Angstroms)
 Number     Number       Type             X           Y           Z
 ---------------------------------------------------------------------
      1          8           0        0.013649   -1.549983    0.000000
      2          1           0        0.009066   -0.567392    0.000000
      3          1           0       -0.914347   -1.872982    0.000000
      4          8           0        0.013649    1.390766    0.000000
      5          1           0        0.996240    1.395348    0.000000
      6          1           0       -0.309349    2.318762    0.000000
 ---------------------------------------------------------------------

 SCF Done:  E(RHF) =  -152.112588145     A.U. after   10 cycles
 E2 =    -0.5281007399D+00 EUMP2 =    -0.15264068888542D+03
 CCSD(T)
 CCSD(T)= -0.15266762053D+03

 The electronic state is 1-A'.
 Alpha  occ. eigenvalues --  -20.58417 -20.52607  -1.35898  -1.30172  -0.73542
 Alpha  occ. eigenvalues --   -0.67948  -0.59663  -0.53308  -0.52944  -0.47307
 Alpha virt. eigenvalues --    0.12071   0.17909   0.19101   0.31120   0.49542
 Alpha virt. eigenvalues --    0.54642   0.55572   0.62516   0.68491   0.72842
 Alpha virt. eigenvalues --    0.74488   0.76500   0.81639   0.82184   0.84265

 Mulliken charges:
               1
     1  O   -0.560551
     2  H    0.283200
     3  H    0.252488
     4  O   -0.477347
     5  H    0.261217
     6  H    0.240993
 Sum of Mulliken charges =  -0.00000

 Dipole moment (field-independent basis, Debye):
    X=             -0.4689    Y=              3.2778    Z=              0.0000  Tot=              3.3112
 Quadrupole moment (field-independent basis, Debye-Ang):
   XX=             -9.6413   YY=             -8.7801   ZZ=            -14.7210
   XY=              4.1562   XZ=              0.0000   YZ=              0.0000

 Normal termination of Gaussian 16 at Fri Aug 26 22:45:18 2022.
