 Gaussian 16, Revision A.03,
 Gaussian 16:  ES64L-G16RevA.03 25-Dec-2016

 ------------------
 #p CCSD(T)/cc-pVTZ
 ------------------

 ------------
 H2O_H2O_2602
 ------------
 Symbolic Z-matrix:
 Charge =  0 Multiplicity = 1

                         Standard orientation:
 ---------------------------------------------------------------------
 Center     Atomic      Atomic             Coordinates (Angstroms)
 Number     Number       Type             X           Y           Z
 ---------------------------------------------------------------------
      1          8           0        0.088233   -2.130215    0.000000
      2          1           0        0.088038   -1.147614    0.000000
      3          1           0       -0.841197   -2.449066    0.000000
      4          8           0        0.088233    1.985899    0.000000
      5          1           0        0.216295    2.960119    0.000000
      6          1           0       -0.874865    1.791090    0.000000
 ---------------------------------------------------------------------

 SCF Done:  E(RHF) =  -152.108822446     A.U. after   10 cycles
 E2 =    -0.5262110603D+00 EUMP2 =    -0.15263503350662D+03
 CCSD(T)
 CCSD(T)= -0.15266218785D+03

 The electronic state is 1-A'.
 Alpha  occ. eigenvalues --  -20.56864 -20.54863  -1.34151  -1.32170  -0.71594
 Alpha  occ. eigenvalues --   -0.69539  -0.57643  -0.55623  -0.51261  -0.49288
 Alpha virt. eigenvalues --    0.11638   0.15874   0.19646   0.23758   0.53882
 Alpha virt. eigenvalues --    0.55338   0.56485   0.58049   0.68561   0.70229
 Alpha virt. eigenvalues --    0.77487   0.78923   0.79618   0.80532   0.83022

 Mulliken charges:
               1
     1  O   -0.513665
     2  H    0.262824
     3  H    0.247820
     4  O   -0.506354
     5  H    0.259375
     6  H    0.250000
 Sum of Mulliken charges =   0.00000

 Dipole moment (field-independent basis, Debye):
    X=             -2.9955    Y=              2.6234    Z=              0.0000  Tot=              3.9818
 Quadrupole moment (field-independent basis, Debye-Ang):
   XX=            -10.5693   YY=             -8.7062   ZZ=            -14.7152
   XY=              2.5476   XZ=              0.0000   YZ=              0.0000

 Normal termination of Gaussian 16 at Fri Aug 26 15:55:38 2022.
