 Gaussian 16, Revision A.03,
 Gaussian 16:  ES64L-G16RevA.03 25-Dec-2016

 ------------------
 #p CCSD(T)/cc-pVTZ
 ------------------

 -----------
 H2O_H2O_717
 -----------
 Symbolic Z-matrix:
 Charge =  0 Multiplicity = 1

                         Standard orientation:
 ---------------------------------------------------------------------
 Center     Atomic      Atomic             Coordinates (Angstroms)
 Number     Number       Type             X           Y           Z
 ---------------------------------------------------------------------
      1          8           0        0.037586    1.391119    0.000000
      2          1           0        0.033967    0.408524    0.000000
      3          1           0       -0.890727    1.713206   -0.000000
      4          8           0        0.037586   -1.212272    0.000000
      5          1           0        0.917248   -1.650109    0.000000
      6          1           0       -0.661868   -1.902395   -0.000000
 ---------------------------------------------------------------------

 SCF Done:  E(RHF) =  -152.108905441     A.U. after   10 cycles
 E2 =    -0.5301051690D+00 EUMP2 =    -0.15263901061022D+03
 CCSD(T)
 CCSD(T)= -0.15266563247D+03

 The electronic state is 1-A'.
 Alpha  occ. eigenvalues --  -20.59544 -20.50147  -1.37453  -1.28210  -0.74470
 Alpha  occ. eigenvalues --   -0.69242  -0.59466  -0.54344  -0.50763  -0.45252
 Alpha virt. eigenvalues --    0.11600   0.18103   0.19224   0.33266   0.47755
 Alpha virt. eigenvalues --    0.54188   0.58517   0.63916   0.68926   0.72396
 Alpha virt. eigenvalues --    0.72525   0.78043   0.81534   0.83127   0.84317

 Mulliken charges:
               1
     1  O   -0.595971
     2  H    0.308897
     3  H    0.236598
     4  O   -0.465936
     5  H    0.264101
     6  H    0.252310
 Sum of Mulliken charges =  -0.00000

 Dipole moment (field-independent basis, Debye):
    X=             -1.2236    Y=             -4.0267    Z=             -0.0000  Tot=              4.2085
 Quadrupole moment (field-independent basis, Debye-Ang):
   XX=             -9.1399   YY=             -9.1249   ZZ=            -14.7032
   XY=             -3.2777   XZ=              0.0000   YZ=             -0.0000

 Normal termination of Gaussian 16 at Fri Aug 26 20:04:23 2022.
