 Gaussian 16, Revision A.03,
 Gaussian 16:  ES64L-G16RevA.03 25-Dec-2016

 ------------------
 #p CCSD(T)/cc-pVTZ
 ------------------

 -----------
 H2O_H2O_351
 -----------
 Symbolic Z-matrix:
 Charge =  0 Multiplicity = 1

                         Standard orientation:
 ---------------------------------------------------------------------
 Center     Atomic      Atomic             Coordinates (Angstroms)
 Number     Number       Type             X           Y           Z
 ---------------------------------------------------------------------
      1          8           0        0.090690   -1.229688    0.000000
      2          1           0        0.090525   -0.247086    0.000000
      3          1           0       -0.838749   -1.548511    0.000000
      4          8           0        0.090690    1.090994    0.000000
      5          1           0        0.154791    2.071502    0.000000
      6          1           0       -0.857611    0.833641    0.000000
 ---------------------------------------------------------------------

 SCF Done:  E(RHF) =  -152.075606439     A.U. after   11 cycles
 E2 =    -0.5352436029D+00 EUMP2 =    -0.15261085004208D+03
 CCSD(T)
 CCSD(T)= -0.15263707906D+03

 The electronic state is 1-A'.
 Alpha  occ. eigenvalues --  -20.60524 -20.50036  -1.40337  -1.28484  -0.79823
 Alpha  occ. eigenvalues --   -0.68698  -0.58785  -0.56002  -0.50793  -0.45398
 Alpha virt. eigenvalues --    0.11064   0.16232   0.21290   0.32273   0.48968
 Alpha virt. eigenvalues --    0.51382   0.59337   0.66182   0.71368   0.72527
 Alpha virt. eigenvalues --    0.74906   0.76505   0.79112   0.82706   0.84626

 Mulliken charges:
               1
     1  O   -0.575405
     2  H    0.276741
     3  H    0.205378
     4  O   -0.364918
     5  H    0.227490
     6  H    0.230714
 Sum of Mulliken charges =  -0.00000

 Dipole moment (field-independent basis, Debye):
    X=             -2.8817    Y=              3.5745    Z=              0.0000  Tot=              4.5914
 Quadrupole moment (field-independent basis, Debye-Ang):
   XX=            -10.7102   YY=             -9.6057   ZZ=            -14.5969
   XY=              2.1135   XZ=              0.0000   YZ=              0.0000

 Normal termination of Gaussian 16 at Fri Aug 26 17:37:49 2022.
