 Gaussian 16, Revision A.03,
 Gaussian 16:  ES64L-G16RevA.03 25-Dec-2016

 ------------------
 #p CCSD(T)/cc-pVTZ
 ------------------

 -----------
 H2O_H2O_414
 -----------
 Symbolic Z-matrix:
 Charge =  0 Multiplicity = 1

                         Standard orientation:
 ---------------------------------------------------------------------
 Center     Atomic      Atomic             Coordinates (Angstroms)
 Number     Number       Type             X           Y           Z
 ---------------------------------------------------------------------
      1          8           0        0.048722    1.272210    0.000000
      2          1           0        0.045537    0.289614    0.000000
      3          1           0       -0.879733    1.593888   -0.000000
      4          8           0        0.048722   -1.091972    0.000000
      5          1           0        0.826329   -1.692667    0.000000
      6          1           0       -0.771690   -1.632740   -0.000000
 ---------------------------------------------------------------------

 SCF Done:  E(RHF) =  -152.094012530     A.U. after   11 cycles
 E2 =    -0.5324691817D+00 EUMP2 =    -0.15262648171163D+03
 CCSD(T)
 CCSD(T)= -0.15265270281D+03

 The electronic state is 1-A'.
 Alpha  occ. eigenvalues --  -20.60575 -20.47941  -1.39429  -1.26708  -0.75740
 Alpha  occ. eigenvalues --   -0.72539  -0.57814  -0.55875  -0.48470  -0.43581
 Alpha virt. eigenvalues --    0.11087   0.17346   0.20117   0.33543   0.47303
 Alpha virt. eigenvalues --    0.53299   0.61847   0.64018   0.70549   0.72149
 Alpha virt. eigenvalues --    0.75447   0.79162   0.80987   0.82236   0.83906

 Mulliken charges:
               1
     1  O   -0.624933
     2  H    0.312479
     3  H    0.221863
     4  O   -0.415775
     5  H    0.257929
     6  H    0.248437
 Sum of Mulliken charges =  -0.00000

 Dipole moment (field-independent basis, Debye):
    X=             -1.5408    Y=             -4.4434    Z=             -0.0000  Tot=              4.7029
 Quadrupole moment (field-independent basis, Debye-Ang):
   XX=             -9.1565   YY=             -9.5852   ZZ=            -14.6567
   XY=             -2.9631   XZ=              0.0000   YZ=             -0.0000

 Normal termination of Gaussian 16 at Fri Aug 26 18:06:05 2022.
