 Gaussian 16, Revision A.03,
 Gaussian 16:  ES64L-G16RevA.03 25-Dec-2016

 ------------------
 #p CCSD(T)/cc-pVTZ
 ------------------

 ------------
 H2O_H2O_2620
 ------------
 Symbolic Z-matrix:
 Charge =  0 Multiplicity = 1

                         Standard orientation:
 ---------------------------------------------------------------------
 Center     Atomic      Atomic             Coordinates (Angstroms)
 Number     Number       Type             X           Y           Z
 ---------------------------------------------------------------------
      1          8           0        0.026679    2.145919   -0.000000
      2          1           0        0.023946    1.163321   -0.000000
      3          1           0       -0.901925    2.467169   -0.000000
      4          8           0        0.026679   -1.972707    0.000000
      5          1           0        0.975088   -2.229662    0.000000
      6          1           0       -0.523966   -2.786524    0.000000
 ---------------------------------------------------------------------

 SCF Done:  E(RHF) =  -152.110676331     A.U. after   10 cycles
 E2 =    -0.5260282270D+00 EUMP2 =    -0.15263670455816D+03
 CCSD(T)
 CCSD(T)= -0.15266382107D+03

 The electronic state is 1-A'.
 Alpha  occ. eigenvalues --  -20.56847 -20.54289  -1.34118  -1.31618  -0.71519
 Alpha  occ. eigenvalues --   -0.69022  -0.57700  -0.55110  -0.51252  -0.48762
 Alpha virt. eigenvalues --    0.12334   0.16315   0.19305   0.23865   0.53317
 Alpha virt. eigenvalues --    0.55570   0.56395   0.58645   0.68973   0.70131
 Alpha virt. eigenvalues --    0.77525   0.79052   0.80078   0.80571   0.83510

 Mulliken charges:
               1
     1  O   -0.523422
     2  H    0.265440
     3  H    0.253053
     4  O   -0.512998
     5  H    0.260013
     6  H    0.257914
 Sum of Mulliken charges =  -0.00000

 Dipole moment (field-independent basis, Debye):
    X=             -0.9097    Y=             -3.1581    Z=              0.0000  Tot=              3.2865
 Quadrupole moment (field-independent basis, Debye-Ang):
   XX=             -9.2884   YY=             -7.6499   ZZ=            -14.7223
   XY=             -5.1780   XZ=              0.0000   YZ=             -0.0000

 Normal termination of Gaussian 16 at Fri Aug 26 16:05:26 2022.
