 Gaussian 16, Revision A.03,
 Gaussian 16:  ES64L-G16RevA.03 25-Dec-2016

 ------------------
 #p CCSD(T)/cc-pVTZ
 ------------------

 -----------
 H2O_H2O_407
 -----------
 Symbolic Z-matrix:
 Charge =  0 Multiplicity = 1

                         Standard orientation:
 ---------------------------------------------------------------------
 Center     Atomic      Atomic             Coordinates (Angstroms)
 Number     Number       Type             X           Y           Z
 ---------------------------------------------------------------------
      1          8           0       -0.073592    1.264926    0.000000
      2          1           0       -0.072198    0.282325    0.000000
      3          1           0        0.855447    1.584911    0.000000
      4          8           0       -0.073592   -1.098084    0.000000
      5          1           0       -0.506935   -1.979968    0.000000
      6          1           0        0.901164   -1.222002    0.000000
 ---------------------------------------------------------------------

 SCF Done:  E(RHF) =  -152.090407052     A.U. after   11 cycles
 E2 =    -0.5333138325D+00 EUMP2 =    -0.15262372088481D+03
 CCSD(T)
 CCSD(T)= -0.15264997371D+03

 The electronic state is 1-A'.
 Alpha  occ. eigenvalues --  -20.60513 -20.48881  -1.39523  -1.27455  -0.77236
 Alpha  occ. eigenvalues --   -0.70835  -0.58144  -0.55811  -0.49492  -0.44348
 Alpha virt. eigenvalues --    0.11024   0.16677   0.20546   0.32982   0.48556
 Alpha virt. eigenvalues --    0.52868   0.59848   0.64005   0.72017   0.72430
 Alpha virt. eigenvalues --    0.74838   0.78723   0.79182   0.84004   0.84347

 Mulliken charges:
               1
     1  O   -0.602549
     2  H    0.298349
     3  H    0.214247
     4  O   -0.387040
     5  H    0.237167
     6  H    0.239826
 Sum of Mulliken charges =   0.00000

 Dipole moment (field-independent basis, Debye):
    X=              2.3276    Y=             -4.1242    Z=              0.0000  Tot=              4.7357
 Quadrupole moment (field-independent basis, Debye-Ang):
   XX=             -9.8188   YY=             -9.4878   ZZ=            -14.6379
   XY=              2.7308   XZ=              0.0000   YZ=              0.0000

 Normal termination of Gaussian 16 at Fri Aug 26 18:02:17 2022.
