 Gaussian 16, Revision A.03,
 Gaussian 16:  ES64L-G16RevA.03 25-Dec-2016

 ------------------
 #p CCSD(T)/cc-pVTZ
 ------------------

 ------------
 H2O_H2O_1354
 ------------
 Symbolic Z-matrix:
 Charge =  0 Multiplicity = 1

                         Standard orientation:
 ---------------------------------------------------------------------
 Center     Atomic      Atomic             Coordinates (Angstroms)
 Number     Number       Type             X           Y           Z
 ---------------------------------------------------------------------
      1          8           0        0.082817   -1.637145    0.000000
      2          1           0        0.082265   -0.654544    0.000000
      3          1           0       -0.846497   -1.956333    0.000000
      4          8           0        0.082817    1.482656    0.000000
      5          1           0        0.336600    2.431920    0.000000
      6          1           0       -0.897443    1.414869    0.000000
 ---------------------------------------------------------------------

 SCF Done:  E(RHF) =  -152.110950935     A.U. after   10 cycles
 E2 =    -0.5278100314D+00 EUMP2 =    -0.15263876096686D+03
 CCSD(T)
 CCSD(T)= -0.15266578177D+03

 The electronic state is 1-A'.
 Alpha  occ. eigenvalues --  -20.58111 -20.53557  -1.35487  -1.30982  -0.73097
 Alpha  occ. eigenvalues --   -0.68444  -0.59075  -0.54288  -0.52551  -0.48091
 Alpha virt. eigenvalues --    0.11649   0.16671   0.19927   0.29031   0.49267
 Alpha virt. eigenvalues --    0.54784   0.58050   0.58281   0.69055   0.73498
 Alpha virt. eigenvalues --    0.74703   0.77150   0.81222   0.82147   0.83768

 Mulliken charges:
               1
     1  O   -0.532572
     2  H    0.278497
     3  H    0.238518
     4  O   -0.479916
     5  H    0.247819
     6  H    0.247654
 Sum of Mulliken charges =  -0.00000

 Dipole moment (field-independent basis, Debye):
    X=             -2.7585    Y=              3.0703    Z=              0.0000  Tot=              4.1275
 Quadrupole moment (field-independent basis, Debye-Ang):
   XX=            -10.2906   YY=             -8.7161   ZZ=            -14.7181
   XY=              2.7279   XZ=              0.0000   YZ=              0.0000

 Normal termination of Gaussian 16 at Sat Aug 27 00:04:14 2022.
