 Gaussian 16, Revision A.03,
 Gaussian 16:  ES64L-G16RevA.03 25-Dec-2016

 ------------------
 #p CCSD(T)/cc-pVTZ
 ------------------

 -----------
 H2O_H2O_443
 -----------
 Symbolic Z-matrix:
 Charge =  0 Multiplicity = 1

                         Standard orientation:
 ---------------------------------------------------------------------
 Center     Atomic      Atomic             Coordinates (Angstroms)
 Number     Number       Type             X           Y           Z
 ---------------------------------------------------------------------
      1          8           0        0.033971    1.280637   -0.000000
      2          1           0        0.029758    0.298044   -0.000000
      3          1           0       -0.894148    1.603285   -0.000000
      4          8           0        0.033971   -1.103251    0.000000
      5          1           0        0.940156   -1.483165    0.000000
      6          1           0       -0.619294   -1.837249    0.000000
 ---------------------------------------------------------------------

 SCF Done:  E(RHF) =  -152.095786379     A.U. after   11 cycles
 E2 =    -0.5321842057D+00 EUMP2 =    -0.15262797058432D+03
 CCSD(T)
 CCSD(T)= -0.15265423635D+03

 The electronic state is 1-A'.
 Alpha  occ. eigenvalues --  -20.60422 -20.48200  -1.39195  -1.26883  -0.75993
 Alpha  occ. eigenvalues --   -0.71595  -0.58241  -0.55680  -0.48694  -0.43791
 Alpha virt. eigenvalues --    0.11230   0.17678   0.19882   0.33802   0.47178
 Alpha virt. eigenvalues --    0.53432   0.60288   0.66957   0.69397   0.72187
 Alpha virt. eigenvalues --    0.75021   0.78437   0.80250   0.83234   0.83814

 Mulliken charges:
               1
     1  O   -0.626110
     2  H    0.307924
     3  H    0.229175
     4  O   -0.417311
     5  H    0.261506
     6  H    0.244815
 Sum of Mulliken charges =  -0.00000

 Dipole moment (field-independent basis, Debye):
    X=             -1.0827    Y=             -4.3462    Z=              0.0000  Tot=              4.4790
 Quadrupole moment (field-independent basis, Debye-Ang):
   XX=             -9.1448   YY=             -9.5261   ZZ=            -14.6605
   XY=             -3.0560   XZ=              0.0000   YZ=             -0.0000

 Normal termination of Gaussian 16 at Fri Aug 26 18:17:54 2022.
