 Gaussian 16, Revision A.03,
 Gaussian 16:  ES64L-G16RevA.03 25-Dec-2016

 ------------------
 #p CCSD(T)/cc-pVTZ
 ------------------

 ------------
 H2O_H2O_4575
 ------------
 Symbolic Z-matrix:
 Charge =  0 Multiplicity = 1

                         Standard orientation:
 ---------------------------------------------------------------------
 Center     Atomic      Atomic             Coordinates (Angstroms)
 Number     Number       Type             X           Y           Z
 ---------------------------------------------------------------------
      1          8           0        0.092949   -2.911735    0.000000
      2          1           0        0.092949   -1.929134    0.000000
      3          1           0       -0.836544   -3.230402    0.000000
      4          8           0        0.092949    2.778948    0.000000
      5          1           0        0.092949    3.761550    0.000000
      6          1           0       -0.836544    2.460281    0.000000
 ---------------------------------------------------------------------

 SCF Done:  E(RHF) =  -152.107608027     A.U. after   10 cycles
 E2 =    -0.5258760901D+00 EUMP2 =    -0.15263348411704D+03
 CCSD(T)
 CCSD(T)= -0.15266069960D+03

 The electronic state is 1-A'.
 Alpha  occ. eigenvalues --  -20.56199 -20.55360  -1.33500  -1.32660  -0.70915
 Alpha  occ. eigenvalues --   -0.70058  -0.56959  -0.56111  -0.50611  -0.49773
 Alpha virt. eigenvalues --    0.12788   0.14696   0.18888   0.21647   0.53276
 Alpha virt. eigenvalues --    0.54775   0.56554   0.57639   0.66958   0.68393
 Alpha virt. eigenvalues --    0.78280   0.79102   0.79668   0.81210   0.81621

 Mulliken charges:
               1
     1  O   -0.509407
     2  H    0.257121
     3  H    0.252240
     4  O   -0.510373
     5  H    0.258037
     6  H    0.252381
 Sum of Mulliken charges =  -0.00000

 Dipole moment (field-independent basis, Debye):
    X=             -3.1883    Y=              2.3282    Z=              0.0000  Tot=              3.9479
 Quadrupole moment (field-independent basis, Debye-Ang):
   XX=            -10.8449   YY=             -9.2886   ZZ=            -14.7117
   XY=              2.1579   XZ=              0.0000   YZ=              0.0000

 Normal termination of Gaussian 16 at Sun Aug 28 04:05:18 2022.
