 Gaussian 16, Revision A.03,
 Gaussian 16:  ES64L-G16RevA.03 25-Dec-2016

 ------------------
 #p CCSD(T)/cc-pVTZ
 ------------------

 -----------
 H2O_H2O_474
 -----------
 Symbolic Z-matrix:
 Charge =  0 Multiplicity = 1

                         Standard orientation:
 ---------------------------------------------------------------------
 Center     Atomic      Atomic             Coordinates (Angstroms)
 Number     Number       Type             X           Y           Z
 ---------------------------------------------------------------------
      1          8           0        0.013733   -1.280730    0.000000
      2          1           0        0.008122   -0.298144    0.000000
      3          1           0       -0.913926   -1.604698    0.000000
      4          8           0        0.013733    1.121541    0.000000
      5          1           0        0.996319    1.127151    0.000000
      6          1           0       -0.310236    2.049200    0.000000
 ---------------------------------------------------------------------

 SCF Done:  E(RHF) =  -152.094416585     A.U. after   11 cycles
 E2 =    -0.5323482827D+00 EUMP2 =    -0.15262676486811D+03
 CCSD(T)
 CCSD(T)= -0.15265309860D+03

 The electronic state is 1-A'.
 Alpha  occ. eigenvalues --  -20.60143 -20.49218  -1.39014  -1.27680  -0.77303
 Alpha  occ. eigenvalues --   -0.69129  -0.59376  -0.55382  -0.49659  -0.44659
 Alpha virt. eigenvalues --    0.11510   0.17973   0.19670   0.34124   0.47852
 Alpha virt. eigenvalues --    0.52952   0.58439   0.68188   0.71181   0.72015
 Alpha virt. eigenvalues --    0.74720   0.76601   0.78370   0.83834   0.84545

 Mulliken charges:
               1
     1  O   -0.620626
     2  H    0.292923
     3  H    0.242056
     4  O   -0.403434
     5  H    0.257948
     6  H    0.231133
 Sum of Mulliken charges =  -0.00000

 Dipole moment (field-independent basis, Debye):
    X=             -0.4500    Y=              3.8995    Z=              0.0000  Tot=              3.9254
 Quadrupole moment (field-independent basis, Debye-Ang):
   XX=             -9.5836   YY=             -9.4296   ZZ=            -14.6515
   XY=              3.3873   XZ=              0.0000   YZ=              0.0000

 Normal termination of Gaussian 16 at Fri Aug 26 18:30:37 2022.
