 Gaussian 16, Revision A.03,
 Gaussian 16:  ES64L-G16RevA.03 25-Dec-2016

 ------------------
 #p CCSD(T)/cc-pVTZ
 ------------------

 ------------
 H2O_H2O_4429
 ------------
 Symbolic Z-matrix:
 Charge =  0 Multiplicity = 1

                         Standard orientation:
 ---------------------------------------------------------------------
 Center     Atomic      Atomic             Coordinates (Angstroms)
 Number     Number       Type             X           Y           Z
 ---------------------------------------------------------------------
      1          8           0        0.082798    2.863713   -0.000000
      2          1           0        0.082489    1.881112   -0.000000
      3          1           0       -0.846595    3.182672   -0.000000
      4          8           0        0.082798   -2.709184    0.000000
      5          1           0        0.336815   -3.658384    0.000000
      6          1           0       -0.897479   -2.641637    0.000000
 ---------------------------------------------------------------------

 SCF Done:  E(RHF) =  -152.107941391     A.U. after   10 cycles
 E2 =    -0.5258544743D+00 EUMP2 =    -0.15263379586500D+03
 CCSD(T)
 CCSD(T)= -0.15266100280D+03

 The electronic state is 1-A'.
 Alpha  occ. eigenvalues --  -20.56215 -20.55160  -1.33516  -1.32464  -0.70928
 Alpha  occ. eigenvalues --   -0.69860  -0.56988  -0.55922  -0.50630  -0.49580
 Alpha virt. eigenvalues --    0.13002   0.14827   0.19265   0.21331   0.53334
 Alpha virt. eigenvalues --    0.54881   0.56578   0.57748   0.66855   0.68625
 Alpha virt. eigenvalues --    0.78261   0.79286   0.79467   0.80928   0.82238

 Mulliken charges:
               1
     1  O   -0.511080
     2  H    0.258810
     3  H    0.252161
     4  O   -0.512112
     5  H    0.258544
     6  H    0.253677
 Sum of Mulliken charges =  -0.00000

 Dipole moment (field-independent basis, Debye):
    X=             -2.8387    Y=             -2.7136    Z=              0.0000  Tot=              3.9271
 Quadrupole moment (field-independent basis, Debye-Ang):
   XX=            -10.2445   YY=             -7.8187   ZZ=            -14.7130
   XY=             -3.1898   XZ=              0.0000   YZ=             -0.0000

 Normal termination of Gaussian 16 at Sun Aug 28 02:47:16 2022.
