 Gaussian 16, Revision A.03,
 Gaussian 16:  ES64L-G16RevA.03 25-Dec-2016

 ------------------
 #p CCSD(T)/cc-pVTZ
 ------------------

 ------------
 H2O_H2O_3109
 ------------
 Symbolic Z-matrix:
 Charge =  0 Multiplicity = 1

                         Standard orientation:
 ---------------------------------------------------------------------
 Center     Atomic      Atomic             Coordinates (Angstroms)
 Number     Number       Type             X           Y           Z
 ---------------------------------------------------------------------
      1          8           0        0.066760    2.345292   -0.000000
      2          1           0        0.065776    1.362691   -0.000000
      3          1           0       -0.862413    2.664889    0.000000
      4          8           0        0.066760   -2.172188   -0.000000
      5          1           0        0.611848   -2.989738   -0.000000
      6          1           0       -0.883378   -2.422674    0.000000
 ---------------------------------------------------------------------

 SCF Done:  E(RHF) =  -152.109326892     A.U. after   10 cycles
 E2 =    -0.5259523413D+00 EUMP2 =    -0.15263527923339D+03
 CCSD(T)
 CCSD(T)= -0.15266243451D+03

 The electronic state is 1-A'.
 Alpha  occ. eigenvalues --  -20.56605 -20.54601  -1.33888  -1.31917  -0.71296
 Alpha  occ. eigenvalues --   -0.69305  -0.57408  -0.55394  -0.51012  -0.49045
 Alpha virt. eigenvalues --    0.12389   0.15766   0.19452   0.22426   0.53443
 Alpha virt. eigenvalues --    0.55251   0.56330   0.58436   0.67826   0.69330
 Alpha virt. eigenvalues --    0.77890   0.78859   0.79793   0.79889   0.83071

 Mulliken charges:
               1
     1  O   -0.516290
     2  H    0.263398
     3  H    0.250547
     4  O   -0.513046
     5  H    0.260112
     6  H    0.255279
 Sum of Mulliken charges =  -0.00000

 Dipole moment (field-independent basis, Debye):
    X=             -2.2768    Y=             -3.1075    Z=              0.0000  Tot=              3.8523
 Quadrupole moment (field-independent basis, Debye-Ang):
   XX=             -9.5648   YY=             -7.3934   ZZ=            -14.7179
   XY=             -3.9271   XZ=             -0.0000   YZ=              0.0000

 Normal termination of Gaussian 16 at Fri Aug 26 19:49:02 2022.
