 Gaussian 16, Revision A.03,
 Gaussian 16:  ES64L-G16RevA.03 25-Dec-2016

 ------------------
 #p CCSD(T)/cc-pVTZ
 ------------------

 ------------
 H2O_H2O_2086
 ------------
 Symbolic Z-matrix:
 Charge =  0 Multiplicity = 1

                         Standard orientation:
 ---------------------------------------------------------------------
 Center     Atomic      Atomic             Coordinates (Angstroms)
 Number     Number       Type             X           Y           Z
 ---------------------------------------------------------------------
      1          8           0        0.059666    1.938785    0.000000
      2          1           0        0.058138    0.956185    0.000000
      3          1           0       -0.869330    2.258897   -0.000000
      4          8           0        0.059666   -1.761374    0.000000
      5          1           0        0.706391   -2.501140    0.000000
      6          1           0       -0.849855   -2.133231   -0.000000
 ---------------------------------------------------------------------

 SCF Done:  E(RHF) =  -152.111715446     A.U. after   10 cycles
 E2 =    -0.5263878006D+00 EUMP2 =    -0.15263810324698D+03
 CCSD(T)
 CCSD(T)= -0.15266518014D+03

 The electronic state is 1-A'.
 Alpha  occ. eigenvalues --  -20.57281 -20.53847  -1.34535  -1.31196  -0.71930
 Alpha  occ. eigenvalues --   -0.68604  -0.58187  -0.54655  -0.51671  -0.48341
 Alpha virt. eigenvalues --    0.12148   0.16777   0.19266   0.25731   0.51756
 Alpha virt. eigenvalues --    0.55413   0.56210   0.58855   0.68967   0.72187
 Alpha virt. eigenvalues --    0.76497   0.77962   0.80574   0.83456   0.83930

 Mulliken charges:
               1
     1  O   -0.526050
     2  H    0.268592
     3  H    0.247557
     4  O   -0.507198
     5  H    0.261363
     6  H    0.255738
 Sum of Mulliken charges =  -0.00000

 Dipole moment (field-independent basis, Debye):
    X=             -2.0184    Y=             -3.3200    Z=              0.0000  Tot=              3.8854
 Quadrupole moment (field-independent basis, Debye-Ang):
   XX=             -9.3717   YY=             -7.8681   ZZ=            -14.7264
   XY=             -3.7806   XZ=              0.0000   YZ=              0.0000

 Normal termination of Gaussian 16 at Sun Aug 28 04:13:16 2022.
