 Gaussian 16, Revision A.03,
 Gaussian 16:  ES64L-G16RevA.03 25-Dec-2016

 ------------------
 #p CCSD(T)/cc-pVTZ
 ------------------

 ------------
 H2O_H2O_1516
 ------------
 Symbolic Z-matrix:
 Charge =  0 Multiplicity = 1

                         Standard orientation:
 ---------------------------------------------------------------------
 Center     Atomic      Atomic             Coordinates (Angstroms)
 Number     Number       Type             X           Y           Z
 ---------------------------------------------------------------------
      1          8           0        0.041211    1.710766    0.000000
      2          1           0        0.038498    0.728168    0.000000
      3          1           0       -0.887398    2.031998   -0.000000
      4          8           0        0.041211   -1.530906    0.000000
      5          1           0        0.890809   -2.024555    0.000000
      6          1           0       -0.701289   -2.174490   -0.000000
 ---------------------------------------------------------------------

 SCF Done:  E(RHF) =  -152.113930515     A.U. after   10 cycles
 E2 =    -0.5270866639D+00 EUMP2 =    -0.15264101717889D+03
 CCSD(T)
 CCSD(T)= -0.15266801588D+03

 The electronic state is 1-A'.
 Alpha  occ. eigenvalues --  -20.57930 -20.52938  -1.35212  -1.30381  -0.72554
 Alpha  occ. eigenvalues --   -0.68024  -0.59037  -0.53729  -0.52345  -0.47534
 Alpha virt. eigenvalues --    0.12098   0.17651   0.18942   0.28952   0.50171
 Alpha virt. eigenvalues --    0.54487   0.56078   0.59773   0.68918   0.72062
 Alpha virt. eigenvalues --    0.74381   0.76902   0.81509   0.83053   0.84815

 Mulliken charges:
               1
     1  O   -0.542502
     2  H    0.277564
     3  H    0.247149
     4  O   -0.506604
     5  H    0.265218
     6  H    0.259177
 Sum of Mulliken charges =  -0.00000

 Dipole moment (field-independent basis, Debye):
    X=             -1.3828    Y=             -3.5229    Z=             -0.0000  Tot=              3.7846
 Quadrupole moment (field-independent basis, Debye-Ang):
   XX=             -9.1519   YY=             -8.2608   ZZ=            -14.7353
   XY=             -3.8622   XZ=             -0.0000   YZ=             -0.0000

 CCSD(T)=-152.6680159\RMSD=6.508e-09\PG=CS [SG(H4O2)]\\@
 Normal termination of Gaussian 16 at Sat Aug 27 01:04:41 2022.
