 Gaussian 16, Revision A.03,
 Gaussian 16:  ES64L-G16RevA.03 25-Dec-2016

 ------------------
 #p CCSD(T)/cc-pVTZ
 ------------------

 ------------
 H2O_H2O_1812
 ------------
 Symbolic Z-matrix:
 Charge =  0 Multiplicity = 1

                         Standard orientation:
 ---------------------------------------------------------------------
 Center     Atomic      Atomic             Coordinates (Angstroms)
 Number     Number       Type             X           Y           Z
 ---------------------------------------------------------------------
      1          8           0        0.056028    1.829883    0.000000
      2          1           0        0.054225    0.847283    0.000000
      3          1           0       -0.872879    2.150254    0.000000
      4          8           0        0.056028   -1.651022   -0.000000
      5          1           0        0.749556   -2.347099   -0.000000
      6          1           0       -0.827346   -2.081322   -0.000000
 ---------------------------------------------------------------------

 SCF Done:  E(RHF) =  -152.112696688     A.U. after   10 cycles
 E2 =    -0.5266602328D+00 EUMP2 =    -0.15263935692107D+03
 CCSD(T)
 CCSD(T)= -0.15266640309D+03

 The electronic state is 1-A'.
 Alpha  occ. eigenvalues --  -20.57562 -20.53489  -1.34818  -1.30868  -0.72196
 Alpha  occ. eigenvalues --   -0.68331  -0.58545  -0.54294  -0.51954  -0.48017
 Alpha virt. eigenvalues --    0.12104   0.17111   0.19164   0.27146   0.50818
 Alpha virt. eigenvalues --    0.55040   0.56315   0.58983   0.69094   0.72454
 Alpha virt. eigenvalues --    0.75578   0.77207   0.80960   0.83278   0.84383

 Mulliken charges:
               1
     1  O   -0.531428
     2  H    0.271527
     3  H    0.246546
     4  O   -0.506436
     5  H    0.263007
     6  H    0.256784
 Sum of Mulliken charges =   0.00000

 Dipole moment (field-independent basis, Debye):
    X=             -1.8883    Y=             -3.4098    Z=             -0.0000  Tot=              3.8977
 Quadrupole moment (field-independent basis, Debye-Ang):
   XX=             -9.2954   YY=             -8.0349   ZZ=            -14.7308
   XY=             -3.7434   XZ=             -0.0000   YZ=             -0.0000

 Normal termination of Gaussian 16 at Sun Aug 28 01:51:37 2022.
