 Gaussian 16, Revision A.03,
 Gaussian 16:  ES64L-G16RevA.03 25-Dec-2016

 ------------------
 #p CCSD(T)/cc-pVTZ
 ------------------

 ------------
 H2O_H2O_4781
 ------------
 Symbolic Z-matrix:
 Charge =  0 Multiplicity = 1

                         Standard orientation:
 ---------------------------------------------------------------------
 Center     Atomic      Atomic             Coordinates (Angstroms)
 Number     Number       Type             X           Y           Z
 ---------------------------------------------------------------------
      1          8           0        0.076747    3.008046   -0.000000
      2          1           0        0.076277    2.025445   -0.000000
      3          1           0       -0.852594    3.327157   -0.000000
      4          8           0        0.076747   -2.844816    0.000000
      5          1           0        0.452339   -3.752801    0.000000
      6          1           0       -0.903971   -2.905640    0.000000
 ---------------------------------------------------------------------

 SCF Done:  E(RHF) =  -152.107971837     A.U. after   10 cycles
 E2 =    -0.5258371218D+00 EUMP2 =    -0.15263380895869D+03
 CCSD(T)
 CCSD(T)= -0.15266101671D+03

 The electronic state is 1-A'.
 Alpha  occ. eigenvalues --  -20.56151 -20.55142  -1.33453  -1.32446  -0.70862
 Alpha  occ. eigenvalues --   -0.69845  -0.56926  -0.55906  -0.50567  -0.49563
 Alpha virt. eigenvalues --    0.13336   0.14710   0.19501   0.21001   0.53555
 Alpha virt. eigenvalues --    0.54792   0.56652   0.57695   0.67017   0.68483
 Alpha virt. eigenvalues --    0.78319   0.79302   0.79651   0.80720   0.82067

 Mulliken charges:
               1
     1  O   -0.511470
     2  H    0.258817
     3  H    0.252608
     4  O   -0.512353
     5  H    0.258072
     6  H    0.254326
 Sum of Mulliken charges =  -0.00000

 Dipole moment (field-independent basis, Debye):
    X=             -2.6336    Y=             -2.8588    Z=              0.0000  Tot=              3.8870
 Quadrupole moment (field-independent basis, Debye-Ang):
   XX=             -9.9474   YY=             -7.1296   ZZ=            -14.7132
   XY=             -3.7702   XZ=              0.0000   YZ=             -0.0000

 Normal termination of Gaussian 16 at Sun Aug 28 05:51:25 2022.
