 Gaussian 16, Revision A.03,
 Gaussian 16:  ES64L-G16RevA.03 25-Dec-2016

 ------------------
 #p CCSD(T)/cc-pVTZ
 ------------------

 -----------
 H2O_H2O_967
 -----------
 Symbolic Z-matrix:
 Charge =  0 Multiplicity = 1

                         Standard orientation:
 ---------------------------------------------------------------------
 Center     Atomic      Atomic             Coordinates (Angstroms)
 Number     Number       Type             X           Y           Z
 ---------------------------------------------------------------------
      1          8           0        0.037563    1.490847   -0.000000
      2          1           0        0.034201    0.508252   -0.000000
      3          1           0       -0.890835    1.812692    0.000000
      4          8           0        0.037563   -1.311981   -0.000000
      5          1           0        0.917340   -1.749586   -0.000000
      6          1           0       -0.661711   -2.002287    0.000000
 ---------------------------------------------------------------------

 SCF Done:  E(RHF) =  -152.113125004     A.U. after   10 cycles
 E2 =    -0.5287606172D+00 EUMP2 =    -0.15264188562143D+03
 CCSD(T)
 CCSD(T)= -0.15266870156D+03

 The electronic state is 1-A'.
 Alpha  occ. eigenvalues --  -20.58909 -20.51383  -1.36455  -1.29125  -0.73656
 Alpha  occ. eigenvalues --   -0.68164  -0.59773  -0.53494  -0.52072  -0.46232
 Alpha virt. eigenvalues --    0.11839   0.18327   0.18779   0.32216   0.48448
 Alpha virt. eigenvalues --    0.54631   0.56715   0.62194   0.68660   0.71982
 Alpha virt. eigenvalues --    0.72674   0.77564   0.82175   0.82801   0.84695

 Mulliken charges:
               1
     1  O   -0.573607
     2  H    0.298876
     3  H    0.241935
     4  O   -0.488827
     5  H    0.265909
     6  H    0.255712
 Sum of Mulliken charges =  -0.00000

 Dipole moment (field-independent basis, Debye):
    X=             -1.2396    Y=             -3.8005    Z=             -0.0000  Tot=              3.9976
 Quadrupole moment (field-independent basis, Debye-Ang):
   XX=             -9.1506   YY=             -8.8125   ZZ=            -14.7238
   XY=             -3.4888   XZ=             -0.0000   YZ=             -0.0000

 Normal termination of Gaussian 16 at Fri Aug 26 21:37:55 2022.
