 Gaussian 16, Revision A.03,
 Gaussian 16:  ES64L-G16RevA.03 25-Dec-2016

 ------------------
 #p CCSD(T)/cc-pVTZ
 ------------------

 -----------
 H2O_H2O_374
 -----------
 Symbolic Z-matrix:
 Charge =  0 Multiplicity = 1

                         Standard orientation:
 ---------------------------------------------------------------------
 Center     Atomic      Atomic             Coordinates (Angstroms)
 Number     Number       Type             X           Y           Z
 ---------------------------------------------------------------------
      1          8           0        0.013748   -1.240840    0.000000
      2          1           0        0.007945   -0.258256    0.000000
      3          1           0       -0.913847   -1.564991    0.000000
      4          8           0        0.013748    1.081657    0.000000
      5          1           0        0.996333    1.087460    0.000000
      6          1           0       -0.310402    2.009252    0.000000
 ---------------------------------------------------------------------

 SCF Done:  E(RHF) =  -152.085867980     A.U. after   11 cycles
 E2 =    -0.5333388353D+00 EUMP2 =    -0.15261920681484D+03
 CCSD(T)
 CCSD(T)= -0.15264536233D+03

 The electronic state is 1-A'.
 Alpha  occ. eigenvalues --  -20.60501 -20.48355  -1.39907  -1.27099  -0.78342
 Alpha  occ. eigenvalues --   -0.69839  -0.58807  -0.55984  -0.48731  -0.44027
 Alpha virt. eigenvalues --    0.11354   0.17807   0.19914   0.34166   0.47806
 Alpha virt. eigenvalues --    0.52602   0.58924   0.68476   0.71948   0.72434
 Alpha virt. eigenvalues --    0.75314   0.76969   0.77737   0.83881   0.84933

 Mulliken charges:
               1
     1  O   -0.632781
     2  H    0.289413
     3  H    0.238980
     4  O   -0.384580
     5  H    0.259087
     6  H    0.229880
 Sum of Mulliken charges =  -0.00000

 Dipole moment (field-independent basis, Debye):
    X=             -0.4428    Y=              4.0471    Z=              0.0000  Tot=              4.0713
 Quadrupole moment (field-independent basis, Debye-Ang):
   XX=             -9.5661   YY=             -9.5683   ZZ=            -14.6301
   XY=              3.2688   XZ=              0.0000   YZ=              0.0000

 Normal termination of Gaussian 16 at Fri Aug 26 17:47:14 2022.
