 Gaussian 16, Revision A.03,
 Gaussian 16:  ES64L-G16RevA.03 25-Dec-2016

 ------------------
 #p CCSD(T)/cc-pVTZ
 ------------------

 ------------
 H2O_H2O_3395
 ------------
 Symbolic Z-matrix:
 Charge =  0 Multiplicity = 1

                         Standard orientation:
 ---------------------------------------------------------------------
 Center     Atomic      Atomic             Coordinates (Angstroms)
 Number     Number       Type             X           Y           Z
 ---------------------------------------------------------------------
      1          8           0        0.026647    2.455058   -0.000000
      2          1           0        0.024271    1.472459   -0.000000
      3          1           0       -0.902073    2.775970   -0.000000
      4          8           0        0.026647   -2.281827    0.000000
      5          1           0        0.975150   -2.538437    0.000000
      6          1           0       -0.523701   -3.095843    0.000000
 ---------------------------------------------------------------------

 SCF Done:  E(RHF) =  -152.109381599     A.U. after   10 cycles
 E2 =    -0.5258571587D+00 EUMP2 =    -0.15263523875763D+03
 CCSD(T)
 CCSD(T)= -0.15266240111D+03

 The electronic state is 1-A'.
 Alpha  occ. eigenvalues --  -20.56470 -20.54672  -1.33760  -1.31988  -0.71163
 Alpha  occ. eigenvalues --   -0.69390  -0.57287  -0.55475  -0.50886  -0.49121
 Alpha virt. eigenvalues --    0.12624   0.15619   0.19424   0.22121   0.53360
 Alpha virt. eigenvalues --    0.55305   0.56510   0.58060   0.67189   0.69327
 Alpha virt. eigenvalues --    0.78017   0.78779   0.79716   0.80077   0.83039

 Mulliken charges:
               1
     1  O   -0.517895
     2  H    0.262570
     3  H    0.253837
     4  O   -0.515997
     5  H    0.258996
     6  H    0.258489
 Sum of Mulliken charges =  -0.00000

 Dipole moment (field-independent basis, Debye):
    X=             -0.9117    Y=             -3.0882    Z=              0.0000  Tot=              3.2200
 Quadrupole moment (field-independent basis, Debye-Ang):
   XX=             -9.2883   YY=             -7.2252   ZZ=            -14.7182
   XY=             -5.8863   XZ=              0.0000   YZ=             -0.0000

 Normal termination of Gaussian 16 at Fri Aug 26 21:27:43 2022.
