 Gaussian 16, Revision A.03,
 Gaussian 16:  ES64L-G16RevA.03 25-Dec-2016

 ------------------
 #p CCSD(T)/cc-pVTZ
 ------------------

 ------------
 H2O_H2O_1703
 ------------
 Symbolic Z-matrix:
 Charge =  0 Multiplicity = 1

                         Standard orientation:
 ---------------------------------------------------------------------
 Center     Atomic      Atomic             Coordinates (Angstroms)
 Number     Number       Type             X           Y           Z
 ---------------------------------------------------------------------
      1          8           0        0.085608   -1.774086    0.000000
      2          1           0        0.085241   -0.791484    0.000000
      3          1           0       -0.843766   -2.093099    0.000000
      4          8           0        0.085608    1.624505    0.000000
      5          1           0        0.276945    2.588298    0.000000
      6          1           0       -0.888145    1.492933    0.000000
 ---------------------------------------------------------------------

 SCF Done:  E(RHF) =  -152.110372432     A.U. after   10 cycles
 E2 =    -0.5270576748D+00 EUMP2 =    -0.15263743010681D+03
 CCSD(T)
 CCSD(T)= -0.15266451202D+03

 The electronic state is 1-A'.
 Alpha  occ. eigenvalues --  -20.57632 -20.54189  -1.34939  -1.31539  -0.72480
 Alpha  occ. eigenvalues --   -0.68886  -0.58513  -0.54935  -0.52032  -0.48657
 Alpha virt. eigenvalues --    0.11652   0.16451   0.19956   0.26989   0.50618
 Alpha virt. eigenvalues --    0.55265   0.57245   0.57816   0.68677   0.74453
 Alpha virt. eigenvalues --    0.74958   0.77847   0.80535   0.82722   0.83529

 Mulliken charges:
               1
     1  O   -0.522659
     2  H    0.270589
     3  H    0.242253
     4  O   -0.494504
     5  H    0.255720
     6  H    0.248601
 Sum of Mulliken charges =  -0.00000

 Dipole moment (field-independent basis, Debye):
    X=             -2.8738    Y=              2.8630    Z=              0.0000  Tot=              4.0565
 Quadrupole moment (field-independent basis, Debye-Ang):
   XX=            -10.4381   YY=             -8.6917   ZZ=            -14.7193
   XY=              2.6355   XZ=              0.0000   YZ=              0.0000

 6538224\MP4DQ=-152.6461954\MP4SDQ=-152.6493247\CCSD=-152.6487\CCSD(T)=
 Normal termination of Gaussian 16 at Sun Aug 28 00:49:34 2022.
