 Gaussian 16, Revision A.03,
 Gaussian 16:  ES64L-G16RevA.03 25-Dec-2016

 ------------------
 #p CCSD(T)/cc-pVTZ
 ------------------

 ------------
 H2O_H2O_3638
 ------------
 Symbolic Z-matrix:
 Charge =  0 Multiplicity = 1

                         Standard orientation:
 ---------------------------------------------------------------------
 Center     Atomic      Atomic             Coordinates (Angstroms)
 Number     Number       Type             X           Y           Z
 ---------------------------------------------------------------------
      1          8           0        0.052287    2.558397    0.000000
      2          1           0        0.050889    1.575797    0.000000
      3          1           0       -0.876752    2.878386    0.000000
      4          8           0        0.052287   -2.378493   -0.000000
      5          1           0        0.790124   -3.027417   -0.000000
      6          1           0       -0.800851   -2.865999   -0.000000
 ---------------------------------------------------------------------

 SCF Done:  E(RHF) =  -152.109004282     A.U. after   10 cycles
 E2 =    -0.5258507452D+00 EUMP2 =    -0.15263485502694D+03
 CCSD(T)
 CCSD(T)= -0.15266202888D+03

 The electronic state is 1-A'.
 Alpha  occ. eigenvalues --  -20.56398 -20.54709  -1.33690  -1.32021  -0.71093
 Alpha  occ. eigenvalues --   -0.69418  -0.57203  -0.55500  -0.50813  -0.49149
 Alpha virt. eigenvalues --    0.12840   0.15425   0.19580   0.21630   0.53455
 Alpha virt. eigenvalues --    0.55013   0.56505   0.57955   0.66856   0.69285
 Alpha virt. eigenvalues --    0.78089   0.79139   0.79561   0.79692   0.82990

 Mulliken charges:
               1
     1  O   -0.515828
     2  H    0.262508
     3  H    0.252317
     4  O   -0.515379
     5  H    0.259633
     6  H    0.256748
 Sum of Mulliken charges =  -0.00000

 Dipole moment (field-independent basis, Debye):
    X=             -1.7880    Y=             -3.1938    Z=             -0.0000  Tot=              3.6602
 Quadrupole moment (field-independent basis, Debye-Ang):
   XX=             -9.2255   YY=             -6.7970   ZZ=            -14.7169
   XY=             -4.8617   XZ=             -0.0000   YZ=              0.0000

 Normal termination of Gaussian 16 at Fri Aug 26 22:49:27 2022.
