 Gaussian 16, Revision A.03,
 Gaussian 16:  ES64L-G16RevA.03 25-Dec-2016

 ------------------
 #p CCSD(T)/cc-pVTZ
 ------------------

 -----------
 H2O_H2O_651
 -----------
 Symbolic Z-matrix:
 Charge =  0 Multiplicity = 1

                         Standard orientation:
 ---------------------------------------------------------------------
 Center     Atomic      Atomic             Coordinates (Angstroms)
 Number     Number       Type             X           Y           Z
 ---------------------------------------------------------------------
      1          8           0        0.090689   -1.349352    0.000000
      2          1           0        0.090539   -0.366751    0.000000
      3          1           0       -0.838755   -1.668160    0.000000
      4          8           0        0.090689    1.210656    0.000000
      5          1           0        0.154806    2.191164    0.000000
      6          1           0       -0.857616    0.953318    0.000000
 ---------------------------------------------------------------------

 SCF Done:  E(RHF) =  -152.097682839     A.U. after   11 cycles
 E2 =    -0.5319893717D+00 EUMP2 =    -0.15262967221016D+03
 CCSD(T)
 CCSD(T)= -0.15265636506D+03

 The electronic state is 1-A'.
 Alpha  occ. eigenvalues --  -20.59554 -20.52021  -1.37907  -1.29883  -0.76762
 Alpha  occ. eigenvalues --   -0.67929  -0.59754  -0.54428  -0.52751  -0.46881
 Alpha virt. eigenvalues --    0.11322   0.16424   0.20875   0.32070   0.48333
 Alpha virt. eigenvalues --    0.52252   0.58803   0.63826   0.69547   0.71286
 Alpha virt. eigenvalues --    0.73900   0.78454   0.78475   0.82826   0.83096

 Mulliken charges:
               1
     1  O   -0.555049
     2  H    0.287962
     3  H    0.220126
     4  O   -0.414307
     5  H    0.232840
     6  H    0.228428
 Sum of Mulliken charges =  -0.00000

 Dipole moment (field-independent basis, Debye):
    X=             -2.9384    Y=              3.2032    Z=              0.0000  Tot=              4.3467
 Quadrupole moment (field-independent basis, Debye-Ang):
   XX=            -10.7458   YY=             -9.3231   ZZ=            -14.6562
   XY=              2.1849   XZ=              0.0000   YZ=              0.0000

 Normal termination of Gaussian 16 at Fri Aug 26 19:38:08 2022.
