 Gaussian 16, Revision A.03,
 Gaussian 16:  ES64L-G16RevA.03 25-Dec-2016

 ------------------
 #p CCSD(T)/cc-pVTZ
 ------------------

 ------------
 H2O_H2O_1336
 ------------
 Symbolic Z-matrix:
 Charge =  0 Multiplicity = 1

                         Standard orientation:
 ---------------------------------------------------------------------
 Center     Atomic      Atomic             Coordinates (Angstroms)
 Number     Number       Type             X           Y           Z
 ---------------------------------------------------------------------
      1          8           0        0.059693    1.639610   -0.000000
      2          1           0        0.057870    0.657010   -0.000000
      3          1           0       -0.869208    1.960000   -0.000000
      4          8           0        0.059693   -1.462234    0.000000
      5          1           0        0.706195   -2.202194    0.000000
      6          1           0       -0.849940   -1.833819    0.000000
 ---------------------------------------------------------------------

 SCF Done:  E(RHF) =  -152.113598387     A.U. after   10 cycles
 E2 =    -0.5275882654D+00 EUMP2 =    -0.15264118665239D+03
 CCSD(T)
 CCSD(T)= -0.15266815580D+03

 The electronic state is 1-A'.
 Alpha  occ. eigenvalues --  -20.58206 -20.52702  -1.35535  -1.30189  -0.72877
 Alpha  occ. eigenvalues --   -0.68001  -0.59290  -0.53460  -0.52645  -0.47325
 Alpha virt. eigenvalues --    0.11910   0.17459   0.19164   0.29875   0.49109
 Alpha virt. eigenvalues --    0.54919   0.56668   0.59380   0.69632   0.72255
 Alpha virt. eigenvalues --    0.73676   0.76677   0.81782   0.82781   0.84748

 Mulliken charges:
               1
     1  O   -0.544896
     2  H    0.283224
     3  H    0.241858
     4  O   -0.499996
     5  H    0.263009
     6  H    0.256801
 Sum of Mulliken charges =  -0.00000

 Dipole moment (field-independent basis, Debye):
    X=             -1.9906    Y=             -3.5433    Z=              0.0000  Tot=              4.0642
 Quadrupole moment (field-independent basis, Debye-Ang):
   XX=             -9.3774   YY=             -8.4386   ZZ=            -14.7323
   XY=             -3.4227   XZ=              0.0000   YZ=             -0.0000

 Normal termination of Gaussian 16 at Fri Aug 26 23:56:20 2022.
