 Gaussian 16, Revision A.03,
 Gaussian 16:  ES64L-G16RevA.03 25-Dec-2016

 ------------------
 #p CCSD(T)/cc-pVTZ
 ------------------

 ------------
 H2O_H2O_1132
 ------------
 Symbolic Z-matrix:
 Charge =  0 Multiplicity = 1

                         Standard orientation:
 ---------------------------------------------------------------------
 Center     Atomic      Atomic             Coordinates (Angstroms)
 Number     Number       Type             X           Y           Z
 ---------------------------------------------------------------------
      1          8           0        0.073569    1.554132    0.000000
      2          1           0        0.072449    0.571531    0.000000
      3          1           0       -0.855560    1.873858    0.000000
      4          8           0        0.073569   -1.387249   -0.000000
      5          1           0        0.507158   -2.269013   -0.000000
      6          1           0       -0.901153   -1.511439   -0.000000
 ---------------------------------------------------------------------

 SCF Done:  E(RHF) =  -152.111937933     A.U. after   10 cycles
 E2 =    -0.5283964872D+00 EUMP2 =    -0.15264033442024D+03
 CCSD(T)
 CCSD(T)= -0.15266726205D+03

 The electronic state is 1-A'.
 Alpha  occ. eigenvalues --  -20.58532 -20.52596  -1.35982  -1.30145  -0.73473
 Alpha  occ. eigenvalues --   -0.68118  -0.59507  -0.53315  -0.53030  -0.47250
 Alpha virt. eigenvalues --    0.11687   0.17054   0.19629   0.30729   0.48534
 Alpha virt. eigenvalues --    0.54695   0.58427   0.58984   0.69688   0.72911
 Alpha virt. eigenvalues --    0.74224   0.76569   0.81872   0.82175   0.84202

 Mulliken charges:
               1
     1  O   -0.548009
     2  H    0.288274
     3  H    0.236421
     4  O   -0.476137
     5  H    0.249331
     6  H    0.250119
 Sum of Mulliken charges =  -0.00000

 Dipole moment (field-independent basis, Debye):
    X=             -2.4347    Y=             -3.4293    Z=              0.0000  Tot=              4.2057
 Quadrupole moment (field-independent basis, Debye-Ang):
   XX=             -9.8445   YY=             -8.6979   ZZ=            -14.7196
   XY=             -3.0162   XZ=             -0.0000   YZ=              0.0000

 Normal termination of Gaussian 16 at Fri Aug 26 22:39:12 2022.
