 Gaussian 16, Revision A.03,
 Gaussian 16:  ES64L-G16RevA.03 25-Dec-2016

 ------------------
 #p CCSD(T)/cc-pVTZ
 ------------------

 ------------
 H2O_H2O_1587
 ------------
 Symbolic Z-matrix:
 Charge =  0 Multiplicity = 1

                         Standard orientation:
 ---------------------------------------------------------------------
 Center     Atomic      Atomic             Coordinates (Angstroms)
 Number     Number       Type             X           Y           Z
 ---------------------------------------------------------------------
      1          8           0        0.056037    1.740130    0.000000
      2          1           0        0.054136    0.757530    0.000000
      3          1           0       -0.872838    2.060593    0.000000
      4          8           0        0.056037   -1.561280   -0.000000
      5          1           0        0.749496   -2.257427   -0.000000
      6          1           0       -0.827379   -1.991492   -0.000000
 ---------------------------------------------------------------------

 SCF Done:  E(RHF) =  -152.113354871     A.U. after   10 cycles
 E2 =    -0.5270075681D+00 EUMP2 =    -0.15264036243909D+03
 CCSD(T)
 CCSD(T)= -0.15266737820D+03

 The electronic state is 1-A'.
 Alpha  occ. eigenvalues --  -20.57838 -20.53148  -1.35111  -1.30566  -0.72472
 Alpha  occ. eigenvalues --   -0.68133  -0.58890  -0.53938  -0.52242  -0.47713
 Alpha virt. eigenvalues --    0.12033   0.17340   0.19112   0.28415   0.50009
 Alpha virt. eigenvalues --    0.54908   0.56316   0.59180   0.69248   0.72299
 Alpha virt. eigenvalues --    0.74676   0.76801   0.81324   0.83088   0.84633

 Mulliken charges:
               1
     1  O   -0.536957
     2  H    0.275749
     3  H    0.244973
     4  O   -0.505264
     5  H    0.264085
     6  H    0.257414
 Sum of Mulliken charges =  -0.00000

 Dipole moment (field-independent basis, Debye):
    X=             -1.8807    Y=             -3.4756    Z=             -0.0000  Tot=              3.9518
 Quadrupole moment (field-independent basis, Debye-Ang):
   XX=             -9.2968   YY=             -8.2108   ZZ=            -14.7333
   XY=             -3.6250   XZ=             -0.0000   YZ=              0.0000

 Normal termination of Gaussian 16 at Sat Aug 27 23:30:23 2022.
