 Gaussian 16, Revision A.03,
 Gaussian 16:  ES64L-G16RevA.03 25-Dec-2016

 ------------------
 #p CCSD(T)/cc-pVTZ
 ------------------

 ------------
 H2O_H2O_3349
 ------------
 Symbolic Z-matrix:
 Charge =  0 Multiplicity = 1

                         Standard orientation:
 ---------------------------------------------------------------------
 Center     Atomic      Atomic             Coordinates (Angstroms)
 Number     Number       Type             X           Y           Z
 ---------------------------------------------------------------------
      1          8           0       -0.013511    2.427531    0.000000
      2          1           0       -0.010640    1.444933    0.000000
      3          1           0        0.915047    2.748911    0.000000
      4          8           0       -0.013511   -2.268266    0.000000
      5          1           0       -0.996107   -2.271136    0.000000
      6          1           0        0.307870   -3.196824    0.000000
 ---------------------------------------------------------------------

 SCF Done:  E(RHF) =  -152.109264275     A.U. after   10 cycles
 E2 =    -0.5258636586D+00 EUMP2 =    -0.15263512793336D+03
 CCSD(T)
 CCSD(T)= -0.15266229408D+03

 The electronic state is 1-A'.
 Alpha  occ. eigenvalues --  -20.56476 -20.54811  -1.33771  -1.32125  -0.71180
 Alpha  occ. eigenvalues --   -0.69533  -0.57291  -0.55611  -0.50894  -0.49258
 Alpha virt. eigenvalues --    0.12370   0.15610   0.19193   0.22572   0.53447
 Alpha virt. eigenvalues --    0.55444   0.56510   0.58011   0.67211   0.69276
 Alpha virt. eigenvalues --    0.78006   0.78640   0.79585   0.80790   0.82954

 Mulliken charges:
               1
     1  O   -0.517787
     2  H    0.261372
     3  H    0.255048
     4  O   -0.515717
     5  H    0.257893
     6  H    0.259191
 Sum of Mulliken charges =  -0.00000

 Dipole moment (field-independent basis, Debye):
    X=              0.4655    Y=             -2.8387    Z=              0.0000  Tot=              2.8766
 Quadrupole moment (field-independent basis, Debye-Ang):
   XX=             -9.6479   YY=             -7.8669   ZZ=            -14.7176
   XY=              6.5660   XZ=              0.0000   YZ=              0.0000

 Normal termination of Gaussian 16 at Fri Aug 26 21:12:36 2022.
