 Gaussian 16, Revision A.03,
 Gaussian 16:  ES64L-G16RevA.03 25-Dec-2016

 ------------------
 #p CCSD(T)/cc-pVTZ
 ------------------

 ------------
 H2O_H2O_1361
 ------------
 Symbolic Z-matrix:
 Charge =  0 Multiplicity = 1

                         Standard orientation:
 ---------------------------------------------------------------------
 Center     Atomic      Atomic             Coordinates (Angstroms)
 Number     Number       Type             X           Y           Z
 ---------------------------------------------------------------------
      1          8           0        0.059692    1.649582    0.000000
      2          1           0        0.057880    0.666982    0.000000
      3          1           0       -0.869212    1.969962    0.000000
      4          8           0        0.059692   -1.472205    0.000000
      5          1           0        0.706203   -2.212158    0.000000
      6          1           0       -0.849937   -1.843801    0.000000
 ---------------------------------------------------------------------

 SCF Done:  E(RHF) =  -152.113580037     A.U. after   10 cycles
 E2 =    -0.5275221465D+00 EUMP2 =    -0.15264110218332D+03
 CCSD(T)
 CCSD(T)= -0.15266807741D+03

 The electronic state is 1-A'.
 Alpha  occ. eigenvalues --  -20.58165 -20.52759  -1.35487  -1.30237  -0.72833
 Alpha  occ. eigenvalues --   -0.68012  -0.59250  -0.53521  -0.52599  -0.47374
 Alpha virt. eigenvalues --    0.11920   0.17442   0.19162   0.29721   0.49185
 Alpha virt. eigenvalues --    0.54929   0.56622   0.59344   0.69607   0.72278
 Alpha virt. eigenvalues --    0.73769   0.76669   0.81728   0.82813   0.84736

 Mulliken charges:
               1
     1  O   -0.543820
     2  H    0.282313
     3  H    0.242152
     4  O   -0.500608
     5  H    0.263126
     6  H    0.256838
 Sum of Mulliken charges =   0.00000

 Dipole moment (field-independent basis, Debye):
    X=             -1.9920    Y=             -3.5322    Z=             -0.0000  Tot=              4.0552
 Quadrupole moment (field-independent basis, Debye-Ang):
   XX=             -9.3774   YY=             -8.4165   ZZ=            -14.7325
   XY=             -3.4351   XZ=             -0.0000   YZ=             -0.0000

 Normal termination of Gaussian 16 at Sat Aug 27 00:06:52 2022.
