 Gaussian 16, Revision A.03,
 Gaussian 16:  ES64L-G16RevA.03 25-Dec-2016

 ------------------
 #p CCSD(T)/cc-pVTZ
 ------------------

 -----------
 H2O_H2O_769
 -----------
 Symbolic Z-matrix:
 Charge =  0 Multiplicity = 1

                         Standard orientation:
 ---------------------------------------------------------------------
 Center     Atomic      Atomic             Coordinates (Angstroms)
 Number     Number       Type             X           Y           Z
 ---------------------------------------------------------------------
      1          8           0        0.030339    1.409249    0.000000
      2          1           0        0.026308    0.426655    0.000000
      3          1           0       -0.897839    1.731725    0.000000
      4          8           0        0.030339   -1.233745   -0.000000
      5          1           0        0.959491   -1.553405   -0.000000
      6          1           0       -0.573377   -2.009008   -0.000000
 ---------------------------------------------------------------------

 SCF Done:  E(RHF) =  -152.109876165     A.U. after   10 cycles
 E2 =    -0.5297985801D+00 EUMP2 =    -0.15263967474466D+03
 CCSD(T)
 CCSD(T)= -0.15266634910D+03

 The electronic state is 1-A'.
 Alpha  occ. eigenvalues --  -20.59369 -20.50538  -1.37204  -1.28509  -0.74427
 Alpha  occ. eigenvalues --   -0.68740  -0.59696  -0.54123  -0.51155  -0.45574
 Alpha virt. eigenvalues --    0.11706   0.18287   0.19025   0.33149   0.47975
 Alpha virt. eigenvalues --    0.54308   0.57668   0.64661   0.68385   0.72404
 Alpha virt. eigenvalues --    0.72787   0.77651   0.81308   0.83312   0.84263

 Mulliken charges:
               1
     1  O   -0.591691
     2  H    0.304056
     3  H    0.240633
     4  O   -0.465648
     5  H    0.263626
     6  H    0.249023
 Sum of Mulliken charges =  -0.00000

 Dipole moment (field-independent basis, Debye):
    X=             -0.9947    Y=             -3.9039    Z=             -0.0000  Tot=              4.0287
 Quadrupole moment (field-independent basis, Debye-Ang):
   XX=             -9.2093   YY=             -9.0538   ZZ=            -14.7062
   XY=             -3.3994   XZ=             -0.0000   YZ=              0.0000

 Normal termination of Gaussian 16 at Fri Aug 26 20:23:49 2022.
