 Gaussian 16, Revision A.03,
 Gaussian 16:  ES64L-G16RevA.03 25-Dec-2016

 ------------------
 #p CCSD(T)/cc-pVTZ
 ------------------

 ---------
 H2_H2_109
 ---------
 Symbolic Z-matrix:
 Charge =  0 Multiplicity = 1

                         Standard orientation:
 ---------------------------------------------------------------------
 Center     Atomic      Atomic             Coordinates (Angstroms)
 Number     Number       Type             X           Y           Z
 ---------------------------------------------------------------------
      1          1           0       -0.189565   -1.829996    0.000000
      2          1           0        0.272082   -1.251652    0.000000
      3          1           0        0.000000    1.173131   -0.000000
      4          1           0       -0.082517    1.908516   -0.000000
 ---------------------------------------------------------------------

 SCF Done:  E(RHF) =  -2.26535965104     A.U. after    7 cycles
 E2 =    -0.6374391791D-01 EUMP2 =    -0.23291035689520D+01
 CCSD(T)
 CCSD(T)= -0.23445150866D+01

 The electronic state is 1-A'.
 Alpha  occ. eigenvalues --   -0.60610  -0.58630
 Alpha virt. eigenvalues --    0.15500   0.20217   0.29087   0.38654   0.61831
 Alpha virt. eigenvalues --    0.67087   0.68068   0.69823   0.70071   0.74648
 Alpha virt. eigenvalues --    0.98948   1.07508   1.08033   1.14813   1.16070

 Mulliken charges:
               1
     1  H    0.008383
     2  H   -0.007779
     3  H    0.002754
     4  H   -0.003358
 Sum of Mulliken charges =  -0.00000

 Dipole moment (field-independent basis, Debye):
    X=             -0.0140    Y=             -0.0068    Z=              0.0000  Tot=              0.0156
 Quadrupole moment (field-independent basis, Debye-Ang):
   XX=             -3.9255   YY=             -3.1580   ZZ=             -4.1767
   XY=              0.2438   XZ=              0.0000   YZ=             -0.0000

 49\MP4SDQ=-2.343294\CCSD=-2.3444745\CCSD(T)=-2.3445151\RMSD=1.611e-09\
 Normal termination of Gaussian 16 at Fri Feb  9 17:41:07 2024.
