 Gaussian 16, Revision A.03,
 Gaussian 16:  ES64L-G16RevA.03 25-Dec-2016

 ------------------
 #p CCSD(T)/cc-pVTZ
 ------------------

 --------
 H2_H2_95
 --------
 Symbolic Z-matrix:
 Charge =  0 Multiplicity = 1

                         Standard orientation:
 ---------------------------------------------------------------------
 Center     Atomic      Atomic             Coordinates (Angstroms)
 Number     Number       Type             X           Y           Z
 ---------------------------------------------------------------------
      1          1           0       -0.291147   -1.387906    0.000000
      2          1           0        0.434780   -1.244274    0.000000
      3          1           0        0.000000    0.953126    0.000000
      4          1           0       -0.143633    1.679053    0.000000
 ---------------------------------------------------------------------

 SCF Done:  E(RHF) =  -2.26416648579     A.U. after    7 cycles
 E2 =    -0.6412838596D-01 EUMP2 =    -0.23282948717549D+01
 CCSD(T)
 CCSD(T)= -0.23437265254D+01

 The electronic state is 1-A'.
 Alpha  occ. eigenvalues --   -0.61513  -0.57570
 Alpha virt. eigenvalues --    0.16179   0.19149   0.30022   0.34609   0.62797
 Alpha virt. eigenvalues --    0.66539   0.66599   0.70580   0.71442   0.75351
 Alpha virt. eigenvalues --    1.02147   1.09815   1.10354   1.14313   1.20791

 Mulliken charges:
               1
     1  H    0.002644
     2  H    0.000576
     3  H    0.006514
     4  H   -0.009735
 Sum of Mulliken charges =  -0.00000

 Dipole moment (field-independent basis, Debye):
    X=             -0.0046    Y=             -0.0559    Z=              0.0000  Tot=              0.0560
 Quadrupole moment (field-independent basis, Debye-Ang):
   XX=             -3.5371   YY=             -3.6718   ZZ=             -4.1613
   XY=              0.0118   XZ=              0.0000   YZ=              0.0000

 497\CCSD=-2.3436528\CCSD(T)=-2.3437265\RMSD=1.157e-09\PG=CS [SG(H4)]\\
 Normal termination of Gaussian 16 at Fri Feb  9 17:40:49 2024.
