 Gaussian 16, Revision A.03,
 Gaussian 16:  ES64L-G16RevA.03 25-Dec-2016

 ------------------
 #p CCSD(T)/cc-pVTZ
 ------------------

 ---------
 H2_H2_213
 ---------
 Symbolic Z-matrix:
 Charge =  0 Multiplicity = 1

                         Standard orientation:
 ---------------------------------------------------------------------
 Center     Atomic      Atomic             Coordinates (Angstroms)
 Number     Number       Type             X           Y           Z
 ---------------------------------------------------------------------
      1          1           0        0.000000    0.000000    2.660000
      2          1           0        0.000000    0.000000    1.920000
      3          1           0        0.000000    0.000000   -1.920000
      4          1           0        0.000000    0.000000   -2.660000
 ---------------------------------------------------------------------

 SCF Done:  E(RHF) =  -2.26590996020     A.U. after    6 cycles
 E2 =    -0.6338837892D-01 EUMP2 =    -0.23292983391172D+01
 CCSD(T)
 CCSD(T)= -0.23446801550D+01

 The electronic state is 1-SGG.
 Alpha  occ. eigenvalues --   -0.59608  -0.59473
 Alpha virt. eigenvalues --    0.13718   0.19848   0.28896   0.33783   0.62667
 Alpha virt. eigenvalues --    0.69199   0.69199   0.69209   0.69209   0.69785
 Alpha virt. eigenvalues --    1.08735   1.10529   1.11910   1.11910   1.11969

 Mulliken charges:
               1
     1  H    0.000849
     2  H   -0.000849
     3  H   -0.000849
     4  H    0.000849
 Sum of Mulliken charges =  -0.00000

 Dipole moment (field-independent basis, Debye):
    X=             -0.0000    Y=             -0.0000    Z=             -0.0000  Tot=              0.0000
 Quadrupole moment (field-independent basis, Debye-Ang):
   XX=             -4.1800   YY=             -4.1800   ZZ=             -2.8952
   XY=             -0.0000   XZ=             -0.0000   YZ=              0.0000

 728\CCSD=-2.3446763\CCSD(T)=-2.3446802\RMSD=3.131e-09\PG=D*H [C*(H1H1.
 Normal termination of Gaussian 16 at Fri Feb  9 17:43:28 2024.
