 Gaussian 16, Revision A.03,
 Gaussian 16:  ES64L-G16RevA.03 25-Dec-2016

 ------------------
 #p CCSD(T)/cc-pVTZ
 ------------------

 ---------
 H2_H2_137
 ---------
 Symbolic Z-matrix:
 Charge =  0 Multiplicity = 1

                         Standard orientation:
 ---------------------------------------------------------------------
 Center     Atomic      Atomic             Coordinates (Angstroms)
 Number     Number       Type             X           Y           Z
 ---------------------------------------------------------------------
      1          1           0       -0.310089   -1.650483    0.000000
      2          1           0        0.421480   -1.539092    0.000000
      3          1           0       -0.000000    1.229004    0.000000
      4          1           0       -0.111391    1.960572    0.000000
 ---------------------------------------------------------------------

 SCF Done:  E(RHF) =  -2.26571782986     A.U. after    7 cycles
 E2 =    -0.6358795934D-01 EUMP2 =    -0.23293057892037D+01
 CCSD(T)
 CCSD(T)= -0.23447026300D+01

 The electronic state is 1-A'.
 Alpha  occ. eigenvalues --   -0.60259  -0.58773
 Alpha virt. eigenvalues --    0.16293   0.17885   0.28887   0.35374   0.62571
 Alpha virt. eigenvalues --    0.63799   0.68672   0.69768   0.70328   0.78662
 Alpha virt. eigenvalues --    1.06751   1.08556   1.11489   1.12520   1.14684

 Mulliken charges:
               1
     1  H    0.003062
     2  H   -0.002196
     3  H    0.000938
     4  H   -0.001804
 Sum of Mulliken charges =  -0.00000

 Dipole moment (field-independent basis, Debye):
    X=             -0.0030    Y=             -0.0189    Z=              0.0000  Tot=              0.0191
 Quadrupole moment (field-independent basis, Debye-Ang):
   XX=             -3.5549   YY=             -3.5861   ZZ=             -4.1784
   XY=              0.0040   XZ=              0.0000   YZ=              0.0000

 902\CCSD=-2.3446802\CCSD(T)=-2.3447026\RMSD=1.937e-09\PG=CS [SG(H4)]\\
 Normal termination of Gaussian 16 at Fri Feb  9 17:41:45 2024.
