 Gaussian 16, Revision A.03,
 Gaussian 16:  ES64L-G16RevA.03 25-Dec-2016

 ------------------
 #p CCSD(T)/cc-pVTZ
 ------------------

 ---------
 H2_H2_302
 ---------
 Symbolic Z-matrix:
 Charge =  0 Multiplicity = 1

                         Standard orientation:
 ---------------------------------------------------------------------
 Center     Atomic      Atomic             Coordinates (Angstroms)
 Number     Number       Type             X           Y           Z
 ---------------------------------------------------------------------
      1          1           0       -0.339350   -2.720678    0.000000
      2          1           0        0.398298   -2.661730    0.000000
      3          1           0       -0.000000    2.322380    0.000000
      4          1           0       -0.058948    3.060029    0.000000
 ---------------------------------------------------------------------

 SCF Done:  E(RHF) =  -2.26594115994     A.U. after    6 cycles
 E2 =    -0.6335836244D-01 EUMP2 =    -0.23292995223797D+01
 CCSD(T)
 CCSD(T)= -0.23446768314D+01

 The electronic state is 1-A'.
 Alpha  occ. eigenvalues --   -0.59515  -0.59444
 Alpha virt. eigenvalues --    0.16533   0.16816   0.29646   0.31475   0.64206
 Alpha virt. eigenvalues --    0.64639   0.69229   0.69264   0.69293   0.69293
 Alpha virt. eigenvalues --    1.09520   1.09849   1.11967   1.11972   1.12035

 Mulliken charges:
               1
     1  H    0.000140
     2  H   -0.000136
     3  H    0.000255
     4  H   -0.000259
 Sum of Mulliken charges =  -0.00000

 Dipole moment (field-independent basis, Debye):
    X=             -0.0002    Y=             -0.0020    Z=              0.0000  Tot=              0.0021
 Quadrupole moment (field-independent basis, Debye-Ang):
   XX=             -3.5576   YY=             -3.5584   ZZ=             -4.1799
   XY=              0.0006   XZ=              0.0000   YZ=              0.0000

 709\CCSD=-2.3446762\CCSD(T)=-2.3446768\RMSD=2.634e-09\PG=CS [SG(H4)]\\
 Normal termination of Gaussian 16 at Fri Feb  9 17:45:30 2024.
