 Gaussian 16, Revision A.03,
 Gaussian 16:  ES64L-G16RevA.03 25-Dec-2016

 ------------------
 #p CCSD(T)/cc-pVTZ
 ------------------

 --------
 H2_H2_59
 --------
 Symbolic Z-matrix:
 Charge =  0 Multiplicity = 1

                         Standard orientation:
 ---------------------------------------------------------------------
 Center     Atomic      Atomic             Coordinates (Angstroms)
 Number     Number       Type             X           Y           Z
 ---------------------------------------------------------------------
      1          1           0       -0.262375   -1.171926    0.000000
      2          1           0        0.452725   -0.981575    0.000000
      3          1           0       -0.000000    0.719201    0.000000
      4          1           0       -0.190350    1.434300    0.000000
 ---------------------------------------------------------------------

 SCF Done:  E(RHF) =  -2.25728960265     A.U. after    7 cycles
 E2 =    -0.6547273476D-01 EUMP2 =    -0.23227623374113D+01
 CCSD(T)
 CCSD(T)= -0.23382584274D+01

 The electronic state is 1-A'.
 Alpha  occ. eigenvalues --   -0.64125  -0.55130
 Alpha virt. eigenvalues --    0.15821   0.20235   0.30529   0.35183   0.60467
 Alpha virt. eigenvalues --    0.62809   0.65174   0.70343   0.74505   0.84591
 Alpha virt. eigenvalues --    1.01871   1.09543   1.11777   1.18401   1.32179

 Mulliken charges:
               1
     1  H    0.005626
     2  H    0.004898
     3  H    0.013769
     4  H   -0.024294
 Sum of Mulliken charges =  -0.00000

 Dipole moment (field-independent basis, Debye):
    X=             -0.0003    Y=             -0.1478    Z=              0.0000  Tot=              0.1478
 Quadrupole moment (field-independent basis, Debye-Ang):
   XX=             -3.4876   YY=             -3.9142   ZZ=             -4.1100
   XY=              0.0490   XZ=              0.0000   YZ=              0.0000

 888\CCSD=-2.3380648\CCSD(T)=-2.3382584\RMSD=3.057e-09\PG=CS [SG(H4)]\\
 Normal termination of Gaussian 16 at Fri Feb  9 17:40:00 2024.
