 Gaussian 16, Revision A.03,
 Gaussian 16:  ES64L-G16RevA.03 25-Dec-2016

 ------------------
 #p CCSD(T)/cc-pVTZ
 ------------------

 ---------
 H2_H2_173
 ---------
 Symbolic Z-matrix:
 Charge =  0 Multiplicity = 1

                         Standard orientation:
 ---------------------------------------------------------------------
 Center     Atomic      Atomic             Coordinates (Angstroms)
 Number     Number       Type             X           Y           Z
 ---------------------------------------------------------------------
      1          1           0       -0.320376   -1.880428    0.000000
      2          1           0        0.413714   -1.787090    0.000000
      3          1           0       -0.000000    1.466714    0.000000
      4          1           0       -0.093338    2.200804    0.000000
 ---------------------------------------------------------------------

 SCF Done:  E(RHF) =  -2.26592212580     A.U. after    7 cycles
 E2 =    -0.6344493923D-01 EUMP2 =    -0.23293670650282D+01
 CCSD(T)
 CCSD(T)= -0.23447524972D+01

 The electronic state is 1-A'.
 Alpha  occ. eigenvalues --   -0.59826  -0.59178
 Alpha virt. eigenvalues --    0.16205   0.17204   0.28367   0.35407   0.61854
 Alpha virt. eigenvalues --    0.63994   0.69104   0.69382   0.69692   0.76164
 Alpha virt. eigenvalues --    1.08205   1.10975   1.11855   1.12131   1.12571

 Mulliken charges:
               1
     1  H    0.001421
     2  H   -0.001258
     3  H    0.000686
     4  H   -0.000849
 Sum of Mulliken charges =  -0.00000

 Dipole moment (field-independent basis, Debye):
    X=             -0.0017    Y=             -0.0087    Z=              0.0000  Tot=              0.0088
 Quadrupole moment (field-independent basis, Debye-Ang):
   XX=             -3.5574   YY=             -3.5690   ZZ=             -4.1804
   XY=              0.0027   XZ=              0.0000   YZ=              0.0000

 35444\CCSD=-2.3447438\CCSD(T)=-2.3447525\RMSD=2.380e-09\PG=CS [SG(H4)]
 Normal termination of Gaussian 16 at Fri Feb  9 17:42:33 2024.
