 Gaussian 16, Revision A.03,
 Gaussian 16:  ES64L-G16RevA.03 25-Dec-2016

 ------------------
 #p CCSD(T)/cc-pVTZ
 ------------------

 --------
 H2_H2_17
 --------
 Symbolic Z-matrix:
 Charge =  0 Multiplicity = 1

                         Standard orientation:
 ---------------------------------------------------------------------
 Center     Atomic      Atomic             Coordinates (Angstroms)
 Number     Number       Type             X           Y           Z
 ---------------------------------------------------------------------
      1          1           0       -0.187293   -0.942959    0.000000
      2          1           0        0.488591   -0.641661    0.000000
      3          1           0        0.000000    0.454368    0.000000
      4          1           0       -0.301298    1.130252    0.000000
 ---------------------------------------------------------------------

 SCF Done:  E(RHF) =  -2.21890886382     A.U. after    8 cycles
 E2 =    -0.6934173955D-01 EUMP2 =    -0.22882506033725D+01
 CCSD(T)
 CCSD(T)= -0.23038345351D+01

 The electronic state is 1-A'.
 Alpha  occ. eigenvalues --   -0.71871  -0.48828
 Alpha virt. eigenvalues --    0.14758   0.20933   0.30408   0.37697   0.58082
 Alpha virt. eigenvalues --    0.58399   0.67165   0.73037   0.80449   1.00515
 Alpha virt. eigenvalues --    1.07700   1.08937   1.14587   1.28682   1.48154

 Mulliken charges:
               1
     1  H    0.028842
     2  H    0.019526
     3  H    0.027715
     4  H   -0.076083
 Sum of Mulliken charges =  -0.00000

 Dipole moment (field-independent basis, Debye):
    X=              0.0724    Y=             -0.4614    Z=              0.0000  Tot=              0.4670
 Quadrupole moment (field-independent basis, Debye-Ang):
   XX=             -3.3933   YY=             -4.6306   ZZ=             -3.9726
   XY=              0.2783   XZ=              0.0000   YZ=              0.0000

 1\CCSD=-2.3033221\CCSD(T)=-2.3038345\RMSD=2.165e-09\PG=CS [SG(H4)]\\@
 Normal termination of Gaussian 16 at Fri Feb  9 17:39:03 2024.
