 Gaussian 16, Revision A.03,
 Gaussian 16:  ES64L-G16RevA.03 25-Dec-2016

 ------------------
 #p CCSD(T)/cc-pVTZ
 ------------------

 --------
 H2_H2_21
 --------
 Symbolic Z-matrix:
 Charge =  0 Multiplicity = 1

                         Standard orientation:
 ---------------------------------------------------------------------
 Center     Atomic      Atomic             Coordinates (Angstroms)
 Number     Number       Type             X           Y           Z
 ---------------------------------------------------------------------
      1          1           0        0.000000    0.000000    1.380000
      2          1           0        0.000000    0.000000    0.640000
      3          1           0        0.000000    0.000000   -0.640000
      4          1           0        0.000000    0.000000   -1.380000
 ---------------------------------------------------------------------

 SCF Done:  E(RHF) =  -2.24611758956     A.U. after    7 cycles
 E2 =    -0.6732097773D-01 EUMP2 =    -0.23134385672953D+01
 CCSD(T)
 CCSD(T)= -0.23289489645D+01

 The electronic state is 1-SGG.
 Alpha  occ. eigenvalues --   -0.67492  -0.53284
 Alpha virt. eigenvalues --    0.16644   0.22952   0.32381   0.52509   0.54146
 Alpha virt. eigenvalues --    0.60986   0.60986   0.75269   0.75269   0.76690
 Alpha virt. eigenvalues --    1.04181   1.04181   1.18119   1.45308   1.45308

 Mulliken charges:
               1
     1  H    0.036712
     2  H   -0.036712
     3  H   -0.036712
     4  H    0.036712
 Sum of Mulliken charges =   0.00000

 Dipole moment (field-independent basis, Debye):
    X=              0.0000    Y=             -0.0000    Z=             -0.0000  Tot=              0.0000
 Quadrupole moment (field-independent basis, Debye-Ang):
   XX=             -4.0528   YY=             -4.0528   ZZ=             -3.2572
   XY=             -0.0000   XZ=             -0.0000   YZ=              0.0000

 5941\CCSD=-2.3285505\CCSD(T)=-2.328949\RMSD=8.735e-09\PG=D*H [C*(H1H1.
 Normal termination of Gaussian 16 at Fri Feb  9 17:39:09 2024.
