 Gaussian 16, Revision A.03,
 Gaussian 16:  ES64L-G16RevA.03 25-Dec-2016

 ------------------
 #p CCSD(T)/cc-pVTZ
 ------------------

 ---------
 H2_H2_139
 ---------
 Symbolic Z-matrix:
 Charge =  0 Multiplicity = 1

                         Standard orientation:
 ---------------------------------------------------------------------
 Center     Atomic      Atomic             Coordinates (Angstroms)
 Number     Number       Type             X           Y           Z
 ---------------------------------------------------------------------
      1          1           0       -0.200217   -2.025761    0.000000
      2          1           0        0.270770   -1.454998    0.000000
      3          1           0       -0.000000    1.372065   -0.000000
      4          1           0       -0.070553    2.108694   -0.000000
 ---------------------------------------------------------------------

 SCF Done:  E(RHF) =  -2.26578091472     A.U. after    7 cycles
 E2 =    -0.6352964078D-01 EUMP2 =    -0.23293105554939D+01
 CCSD(T)
 CCSD(T)= -0.23447059366D+01

 The electronic state is 1-A'.
 Alpha  occ. eigenvalues --   -0.60057  -0.59095
 Alpha virt. eigenvalues --    0.14901   0.19927   0.28654   0.37667   0.62182
 Alpha virt. eigenvalues --    0.67005   0.68865   0.69473   0.69519   0.74461
 Alpha virt. eigenvalues --    1.05464   1.09220   1.10524   1.12626   1.13322

 Mulliken charges:
               1
     1  H    0.005475
     2  H   -0.005304
     3  H    0.000577
     4  H   -0.000748
 Sum of Mulliken charges =   0.00000

 Dipole moment (field-independent basis, Debye):
    X=             -0.0095    Y=             -0.0031    Z=              0.0000  Tot=              0.0100
 Quadrupole moment (field-independent basis, Debye-Ang):
   XX=             -3.9223   YY=             -3.1561   ZZ=             -4.1808
   XY=              0.2540   XZ=             -0.0000   YZ=             -0.0000

 3433469\MP4SDQ=-2.3434933\CCSD=-2.3446877\CCSD(T)=-2.3447059\RMSD=1.85
 Normal termination of Gaussian 16 at Fri Feb  9 17:41:48 2024.
