 Gaussian 16, Revision A.03,
 Gaussian 16:  ES64L-G16RevA.03 25-Dec-2016

 ------------------
 #p CCSD(T)/cc-pVTZ
 ------------------

 --------
 H2_H2_31
 --------
 Symbolic Z-matrix:
 Charge =  0 Multiplicity = 1

                         Standard orientation:
 ---------------------------------------------------------------------
 Center     Atomic      Atomic             Coordinates (Angstroms)
 Number     Number       Type             X           Y           Z
 ---------------------------------------------------------------------
      1          1           0       -0.131027   -1.329928   -0.000000
      2          1           0        0.277936   -0.713203   -0.000000
      3          1           0       -0.000000    0.658930    0.000000
      4          1           0       -0.146910    1.384202    0.000000
 ---------------------------------------------------------------------

 SCF Done:  E(RHF) =  -2.25008182292     A.U. after    7 cycles
 E2 =    -0.6666129476D-01 EUMP2 =    -0.23167431176799D+01
 CCSD(T)
 CCSD(T)= -0.23322514510D+01

 The electronic state is 1-A'.
 Alpha  occ. eigenvalues --   -0.66291  -0.53848
 Alpha virt. eigenvalues --    0.16275   0.21545   0.31746   0.37772   0.55995
 Alpha virt. eigenvalues --    0.61431   0.68493   0.72863   0.75204   0.82541
 Alpha virt. eigenvalues --    1.03406   1.04769   1.20830   1.30940   1.35514

 Mulliken charges:
               1
     1  H    0.005693
     2  H   -0.000045
     3  H   -0.003643
     4  H   -0.002005
 Sum of Mulliken charges =  -0.00000

 Dipole moment (field-independent basis, Debye):
    X=             -0.0239    Y=             -0.0725    Z=             -0.0000  Tot=              0.0763
 Quadrupole moment (field-independent basis, Debye-Ang):
   XX=             -3.8581   YY=             -3.5312   ZZ=             -4.0696
   XY=              0.2033   XZ=             -0.0000   YZ=             -0.0000

 307878\MP4SDQ=-2.3309306\CCSD=-2.3319273\CCSD(T)=-2.3322515\RMSD=8.652
 Normal termination of Gaussian 16 at Fri Feb  9 17:39:22 2024.
