 Gaussian 16, Revision A.03,
 Gaussian 16:  ES64L-G16RevA.03 25-Dec-2016

 ------------------
 #p CCSD(T)/cc-pVTZ
 ------------------

 --------
 H2_H2_85
 --------
 Symbolic Z-matrix:
 Charge =  0 Multiplicity = 1

                         Standard orientation:
 ---------------------------------------------------------------------
 Center     Atomic      Atomic             Coordinates (Angstroms)
 Number     Number       Type             X           Y           Z
 ---------------------------------------------------------------------
      1          1           0       -0.177982   -1.674383    0.000000
      2          1           0        0.273421   -1.088008    0.000000
      3          1           0       -0.000000    1.014286   -0.000000
      4          1           0       -0.095440    1.748105   -0.000000
 ---------------------------------------------------------------------

 SCF Done:  E(RHF) =  -2.26430073106     A.U. after    7 cycles
 E2 =    -0.6411573878D-01 EUMP2 =    -0.23284164698390D+01
 CCSD(T)
 CCSD(T)= -0.23438493768D+01

 The electronic state is 1-A'.
 Alpha  occ. eigenvalues --   -0.61428  -0.57919
 Alpha virt. eigenvalues --    0.15948   0.20519   0.29683   0.38836   0.62072
 Alpha virt. eigenvalues --    0.64663   0.66654   0.69848   0.71034   0.75349
 Alpha virt. eigenvalues --    0.99742   1.05277   1.05906   1.17956   1.20158

 Mulliken charges:
               1
     1  H    0.010836
     2  H   -0.009509
     3  H    0.004323
     4  H   -0.005650
 Sum of Mulliken charges =   0.00000

 Dipole moment (field-independent basis, Debye):
    X=             -0.0184    Y=             -0.0143    Z=              0.0000  Tot=              0.0233
 Quadrupole moment (field-independent basis, Debye-Ang):
   XX=             -3.9219   YY=             -3.1879   ZZ=             -4.1653
   XY=              0.2324   XZ=             -0.0000   YZ=             -0.0000

 424711\MP4SDQ=-2.3426146\CCSD=-2.3437705\CCSD(T)=-2.3438494\RMSD=1.568
 Normal termination of Gaussian 16 at Fri Feb  9 17:40:35 2024.
