 Gaussian 16, Revision A.03,
 Gaussian 16:  ES64L-G16RevA.03 25-Dec-2016

 ------------------
 #p CCSD(T)/cc-pVTZ
 ------------------

 --------
 H2_H2_16
 --------
 Symbolic Z-matrix:
 Charge =  0 Multiplicity = 1

                         Standard orientation:
 ---------------------------------------------------------------------
 Center     Atomic      Atomic             Coordinates (Angstroms)
 Number     Number       Type             X           Y           Z
 ---------------------------------------------------------------------
      1          1           0       -0.107211   -1.236484   -0.000000
      2          1           0        0.279682   -0.605680   -0.000000
      3          1           0       -0.000000    0.561272    0.000000
      4          1           0       -0.172471    1.280893    0.000000
 ---------------------------------------------------------------------

 SCF Done:  E(RHF) =  -2.23674621319     A.U. after    8 cycles
 E2 =    -0.6822874132D-01 EUMP2 =    -0.23049749545062D+01
 CCSD(T)
 CCSD(T)= -0.23205322333D+01

 The electronic state is 1-A'.
 Alpha  occ. eigenvalues --   -0.69224  -0.51638
 Alpha virt. eigenvalues --    0.16025   0.21870   0.31883   0.37720   0.54859
 Alpha virt. eigenvalues --    0.60078   0.68910   0.75602   0.76887   0.86102
 Alpha virt. eigenvalues --    1.05394   1.07063   1.26715   1.36384   1.40627

 Mulliken charges:
               1
     1  H   -0.001727
     2  H    0.010238
     3  H    0.004984
     4  H   -0.013495
 Sum of Mulliken charges =  -0.00000

 Dipole moment (field-independent basis, Debye):
    X=             -0.0180    Y=             -0.1090    Z=             -0.0000  Tot=              0.1105
 Quadrupole moment (field-independent basis, Debye-Ang):
   XX=             -3.8167   YY=             -3.7670   ZZ=             -4.0132
   XY=              0.2047   XZ=              0.0000   YZ=             -0.0000

 89986\MP4SDQ=-2.3191467\CCSD=-2.3200697\CCSD(T)=-2.3205322\RMSD=8.892e
 Normal termination of Gaussian 16 at Fri Feb  9 17:39:02 2024.
