 Gaussian 16, Revision A.03,
 Gaussian 16:  ES64L-G16RevA.03 25-Dec-2016

 ------------------
 #p CCSD(T)/cc-pVTZ
 ------------------

 --------
 H2_H2_89
 --------
 Symbolic Z-matrix:
 Charge =  0 Multiplicity = 1

                         Standard orientation:
 ---------------------------------------------------------------------
 Center     Atomic      Atomic             Coordinates (Angstroms)
 Number     Number       Type             X           Y           Z
 ---------------------------------------------------------------------
      1          1           0       -0.287443   -1.351157    0.000000
      2          1           0        0.437237   -1.201363    0.000000
      3          1           0        0.000000    0.913920    0.000000
      4          1           0       -0.149794    1.638601    0.000000
 ---------------------------------------------------------------------

 SCF Done:  E(RHF) =  -2.26360796555     A.U. after    7 cycles
 E2 =    -0.6427448258D-01 EUMP2 =    -0.23278824481281D+01
 CCSD(T)
 CCSD(T)= -0.23433224456D+01

 The electronic state is 1-A'.
 Alpha  occ. eigenvalues --   -0.61812  -0.57284
 Alpha virt. eigenvalues --    0.16140   0.19338   0.30174   0.34567   0.62615
 Alpha virt. eigenvalues --    0.66078   0.66260   0.70493   0.71839   0.76065
 Alpha virt. eigenvalues --    1.01621   1.10170   1.10240   1.14780   1.22328

 Mulliken charges:
               1
     1  H    0.002453
     2  H    0.001436
     3  H    0.007963
     4  H   -0.011852
 Sum of Mulliken charges =  -0.00000

 Dipole moment (field-independent basis, Debye):
    X=             -0.0046    Y=             -0.0656    Z=              0.0000  Tot=              0.0657
 Quadrupole moment (field-independent basis, Debye-Ang):
   XX=             -3.5319   YY=             -3.6971   ZZ=             -4.1559
   XY=              0.0148   XZ=              0.0000   YZ=              0.0000

 4\CCSD=-2.3432352\CCSD(T)=-2.3433224\RMSD=1.288e-09\PG=CS [SG(H4)]\\@
 Normal termination of Gaussian 16 at Fri Feb  9 17:40:41 2024.
