 Gaussian 16, Revision A.03,
 Gaussian 16:  ES64L-G16RevA.03 25-Dec-2016

 ------------------
 #p CCSD(T)/cc-pVTZ
 ------------------

 ---------
 H2_H2_176
 ---------
 Symbolic Z-matrix:
 Charge =  0 Multiplicity = 1

                         Standard orientation:
 ---------------------------------------------------------------------
 Center     Atomic      Atomic             Coordinates (Angstroms)
 Number     Number       Type             X           Y           Z
 ---------------------------------------------------------------------
      1          1           0       -0.321078   -1.899726    0.000000
      2          1           0        0.413170   -1.807634    0.000000
      3          1           0        0.000000    1.486556    0.000000
      4          1           0       -0.092092    2.220804    0.000000
 ---------------------------------------------------------------------

 SCF Done:  E(RHF) =  -2.26592736895     A.U. after    7 cycles
 E2 =    -0.6343834660D-01 EUMP2 =    -0.23293657155514D+01
 CCSD(T)
 CCSD(T)= -0.23447505616D+01

 The electronic state is 1-A'.
 Alpha  occ. eigenvalues --   -0.59804  -0.59199
 Alpha virt. eigenvalues --    0.16194   0.17170   0.28349   0.35358   0.61920
 Alpha virt. eigenvalues --    0.64021   0.69117   0.69371   0.69654   0.75818
 Alpha virt. eigenvalues --    1.08318   1.11066   1.11867   1.12120   1.12422

 Mulliken charges:
               1
     1  H    0.001325
     2  H   -0.001189
     3  H    0.000680
     4  H   -0.000815
 Sum of Mulliken charges =  -0.00000

 Dipole moment (field-independent basis, Debye):
    X=             -0.0016    Y=             -0.0082    Z=              0.0000  Tot=              0.0084
 Quadrupole moment (field-independent basis, Debye-Ang):
   XX=             -3.5575   YY=             -3.5683   ZZ=             -4.1804
   XY=              0.0026   XZ=              0.0000   YZ=              0.0000

 5426\CCSD=-2.3447425\CCSD(T)=-2.3447506\RMSD=2.370e-09\PG=CS [SG(H4)]\
 Normal termination of Gaussian 16 at Fri Feb  9 17:42:38 2024.
