 Gaussian 16, Revision A.03,
 Gaussian 16:  ES64L-G16RevA.03 25-Dec-2016

 ------------------
 #p CCSD(T)/cc-pVTZ
 ------------------

 ---------
 H2_H2_243
 ---------
 Symbolic Z-matrix:
 Charge =  0 Multiplicity = 1

                         Standard orientation:
 ---------------------------------------------------------------------
 Center     Atomic      Atomic             Coordinates (Angstroms)
 Number     Number       Type             X           Y           Z
 ---------------------------------------------------------------------
      1          1           0        0.000000    0.000000    2.860000
      2          1           0        0.000000    0.000000    2.120000
      3          1           0        0.000000    0.000000   -2.120000
      4          1           0        0.000000    0.000000   -2.860000
 ---------------------------------------------------------------------

 SCF Done:  E(RHF) =  -2.26591794366     A.U. after    6 cycles
 E2 =    -0.6337333718D-01 EUMP2 =    -0.23292912808396D+01
 CCSD(T)
 CCSD(T)= -0.23446711366D+01

 The electronic state is 1-SGG.
 Alpha  occ. eigenvalues --   -0.59556  -0.59493
 Alpha virt. eigenvalues --    0.14156   0.19161   0.29225   0.32495   0.62001
 Alpha virt. eigenvalues --    0.68850   0.69218   0.69218   0.69219   0.69219
 Alpha virt. eigenvalues --    1.09212   1.09992   1.11952   1.11952   1.11960

 Mulliken charges:
               1
     1  H    0.000668
     2  H   -0.000668
     3  H   -0.000668
     4  H    0.000668
 Sum of Mulliken charges =  -0.00000

 Dipole moment (field-independent basis, Debye):
    X=              0.0000    Y=             -0.0000    Z=             -0.0000  Tot=              0.0000
 Quadrupole moment (field-independent basis, Debye-Ang):
   XX=             -4.1797   YY=             -4.1797   ZZ=             -2.9055
   XY=             -0.0000   XZ=             -0.0000   YZ=              0.0000

 434644\CCSD=-2.3446689\CCSD(T)=-2.3446711\RMSD=3.295e-09\PG=D*H [C*(H1
 Normal termination of Gaussian 16 at Fri Feb  9 17:44:09 2024.
