 Gaussian 16, Revision A.03,
 Gaussian 16:  ES64L-G16RevA.03 25-Dec-2016

 ------------------
 #p CCSD(T)/cc-pVTZ
 ------------------

 ---------
 H2_H2_227
 ---------
 Symbolic Z-matrix:
 Charge =  0 Multiplicity = 1

                         Standard orientation:
 ---------------------------------------------------------------------
 Center     Atomic      Atomic             Coordinates (Angstroms)
 Number     Number       Type             X           Y           Z
 ---------------------------------------------------------------------
      1          1           0       -0.330574   -2.230016    0.000000
      2          1           0        0.405612   -2.154978    0.000000
      3          1           0       -0.000000    1.824404    0.000000
      4          1           0       -0.075038    2.560590    0.000000
 ---------------------------------------------------------------------

 SCF Done:  E(RHF) =  -2.26594803039     A.U. after    6 cycles
 E2 =    -0.6337876284D-01 EUMP2 =    -0.23293267932216D+01
 CCSD(T)
 CCSD(T)= -0.23447059335D+01

 The electronic state is 1-A'.
 Alpha  occ. eigenvalues --   -0.59591  -0.59386
 Alpha virt. eigenvalues --    0.16167   0.16909   0.28526   0.33728   0.63754
 Alpha virt. eigenvalues --    0.64413   0.69195   0.69312   0.69342   0.70941
 Alpha virt. eigenvalues --    1.09595   1.10178   1.11940   1.11941   1.12057

 Mulliken charges:
               1
     1  H    0.000454
     2  H   -0.000455
     3  H    0.000464
     4  H   -0.000463
 Sum of Mulliken charges =   0.00000

 Dipole moment (field-independent basis, Debye):
    X=             -0.0007    Y=             -0.0042    Z=              0.0000  Tot=              0.0042
 Quadrupole moment (field-independent basis, Debye-Ang):
   XX=             -3.5576   YY=             -3.5613   ZZ=             -4.1800
   XY=              0.0014   XZ=              0.0000   YZ=              0.0000

 95\CCSD=-2.3447034\CCSD(T)=-2.3447059\RMSD=7.980e-09\PG=CS [SG(H4)]\\@
 Normal termination of Gaussian 16 at Fri Feb  9 17:43:47 2024.
