 Gaussian 16, Revision A.03,
 Gaussian 16:  ES64L-G16RevA.03 25-Dec-2016

 ------------------
 #p CCSD(T)/cc-pVTZ
 ------------------

 ---------
 H2_H2_290
 ---------
 Symbolic Z-matrix:
 Charge =  0 Multiplicity = 1

                         Standard orientation:
 ---------------------------------------------------------------------
 Center     Atomic      Atomic             Coordinates (Angstroms)
 Number     Number       Type             X           Y           Z
 ---------------------------------------------------------------------
      1          1           0       -0.338217   -2.641904    0.000000
      2          1           0        0.399261   -2.580860    0.000000
      3          1           0       -0.000000    2.242644    0.000000
      4          1           0       -0.061044    2.980121    0.000000
 ---------------------------------------------------------------------

 SCF Done:  E(RHF) =  -2.26594199238     A.U. after    6 cycles
 E2 =    -0.6335980994D-01 EUMP2 =    -0.23293018023145D+01
 CCSD(T)
 CCSD(T)= -0.23446792102D+01

 The electronic state is 1-A'.
 Alpha  occ. eigenvalues --   -0.59521  -0.59441
 Alpha virt. eigenvalues --    0.16484   0.16827   0.29470   0.31726   0.64180
 Alpha virt. eigenvalues --    0.64685   0.69225   0.69295   0.69295   0.69302
 Alpha virt. eigenvalues --    1.09526   1.09873   1.11963   1.11968   1.12038

 Mulliken charges:
               1
     1  H    0.000164
     2  H   -0.000159
     3  H    0.000280
     4  H   -0.000285
 Sum of Mulliken charges =  -0.00000

 Dipole moment (field-independent basis, Debye):
    X=             -0.0003    Y=             -0.0023    Z=              0.0000  Tot=              0.0023
 Quadrupole moment (field-independent basis, Debye-Ang):
   XX=             -3.5576   YY=             -3.5585   ZZ=             -4.1799
   XY=              0.0007   XZ=              0.0000   YZ=              0.0000

 732\CCSD=-2.3446784\CCSD(T)=-2.3446792\RMSD=3.024e-09\PG=CS [SG(H4)]\\
 Normal termination of Gaussian 16 at Fri Feb  9 17:45:14 2024.
