 Gaussian 16, Revision A.03,
 Gaussian 16:  ES64L-G16RevA.03 25-Dec-2016

 ------------------
 #p CCSD(T)/cc-pVTZ
 ------------------

 ---------
 H2_H2_221
 ---------
 Symbolic Z-matrix:
 Charge =  0 Multiplicity = 1

                         Standard orientation:
 ---------------------------------------------------------------------
 Center     Atomic      Atomic             Coordinates (Angstroms)
 Number     Number       Type             X           Y           Z
 ---------------------------------------------------------------------
      1          1           0       -0.329651   -2.190977    0.000000
      2          1           0        0.406362   -2.114266    0.000000
      3          1           0       -0.000000    1.784615    0.000000
      4          1           0       -0.076711    2.520628    0.000000
 ---------------------------------------------------------------------

 SCF Done:  E(RHF) =  -2.26594838965     A.U. after    6 cycles
 E2 =    -0.6338249007D-01 EUMP2 =    -0.23293308797178D+01
 CCSD(T)
 CCSD(T)= -0.23447103929D+01

 The electronic state is 1-A'.
 Alpha  occ. eigenvalues --   -0.59605  -0.59375
 Alpha virt. eigenvalues --    0.16149   0.16923   0.28463   0.33958   0.63595
 Alpha virt. eigenvalues --    0.64355   0.69190   0.69315   0.69356   0.71340
 Alpha virt. eigenvalues --    1.09512   1.10315   1.11935   1.11936   1.12060

 Mulliken charges:
               1
     1  H    0.000510
     2  H   -0.000511
     3  H    0.000489
     4  H   -0.000488
 Sum of Mulliken charges =  -0.00000

 Dipole moment (field-independent basis, Debye):
    X=             -0.0007    Y=             -0.0044    Z=              0.0000  Tot=              0.0045
 Quadrupole moment (field-independent basis, Debye-Ang):
   XX=             -3.5576   YY=             -3.5619   ZZ=             -4.1801
   XY=              0.0015   XZ=              0.0000   YZ=              0.0000

 5039\CCSD=-2.3447075\CCSD(T)=-2.3447104\RMSD=8.832e-09\PG=CS [SG(H4)]\
 Normal termination of Gaussian 16 at Fri Feb  9 17:43:39 2024.
