 Gaussian 16, Revision A.03,
 Gaussian 16:  ES64L-G16RevA.03 25-Dec-2016

 ------------------
 #p CCSD(T)/cc-pVTZ
 ------------------

 ---------
 H2_H2_253
 ---------
 Symbolic Z-matrix:
 Charge =  0 Multiplicity = 1

                         Standard orientation:
 ---------------------------------------------------------------------
 Center     Atomic      Atomic             Coordinates (Angstroms)
 Number     Number       Type             X           Y           Z
 ---------------------------------------------------------------------
      1          1           0       -0.222341   -2.776342    0.000000
      2          1           0        0.267792   -2.221933    0.000000
      3          1           0        0.000000    2.129836   -0.000000
      4          1           0       -0.045451    2.868439   -0.000000
 ---------------------------------------------------------------------

 SCF Done:  E(RHF) =  -2.26592891868     A.U. after    6 cycles
 E2 =    -0.6336837227D-01 EUMP2 =    -0.23292972909556D+01
 CCSD(T)
 CCSD(T)= -0.23446761297D+01

 The electronic state is 1-A'.
 Alpha  occ. eigenvalues --   -0.59539  -0.59471
 Alpha virt. eigenvalues --    0.14799   0.18479   0.29222   0.32308   0.62471
 Alpha virt. eigenvalues --    0.67282   0.69219   0.69255   0.69255   0.69459
 Alpha virt. eigenvalues --    1.09499   1.09758   1.11959   1.11995   1.11995

 Mulliken charges:
               1
     1  H    0.000810
     2  H   -0.000807
     3  H   -0.000216
     4  H    0.000213
 Sum of Mulliken charges =  -0.00000

 Dipole moment (field-independent basis, Debye):
    X=             -0.0016    Y=             -0.0012    Z=              0.0000  Tot=              0.0020
 Quadrupole moment (field-independent basis, Debye-Ang):
   XX=             -3.9044   YY=             -3.1952   ZZ=             -4.1798
   XY=              0.2715   XZ=             -0.0000   YZ=             -0.0000

 33216\MP4SDQ=-2.3434697\CCSD=-2.3446745\CCSD(T)=-2.3446761\RMSD=2.533e
 Normal termination of Gaussian 16 at Fri Feb  9 17:44:23 2024.
