 Gaussian 16, Revision A.03,
 Gaussian 16:  ES64L-G16RevA.03 25-Dec-2016

 ------------------
 #p CCSD(T)/cc-pVTZ
 ------------------

 --------
 H2_H2_33
 --------
 Symbolic Z-matrix:
 Charge =  0 Multiplicity = 1

                         Standard orientation:
 ---------------------------------------------------------------------
 Center     Atomic      Atomic             Coordinates (Angstroms)
 Number     Number       Type             X           Y           Z
 ---------------------------------------------------------------------
      1          1           0        0.000000    0.000000    1.460000
      2          1           0        0.000000    0.000000    0.720000
      3          1           0        0.000000    0.000000   -0.720000
      4          1           0        0.000000    0.000000   -1.460000
 ---------------------------------------------------------------------

 SCF Done:  E(RHF) =  -2.25382238618     A.U. after    7 cycles
 E2 =    -0.6624391768D-01 EUMP2 =    -0.23200663038624D+01
 CCSD(T)
 CCSD(T)= -0.23355510394D+01

 The electronic state is 1-SGG.
 Alpha  occ. eigenvalues --   -0.65508  -0.54779
 Alpha virt. eigenvalues --    0.16651   0.22596   0.31612   0.51544   0.55410
 Alpha virt. eigenvalues --    0.62034   0.62034   0.73302   0.74163   0.74163
 Alpha virt. eigenvalues --    1.02494   1.02494   1.13552   1.39423   1.39423

 Mulliken charges:
               1
     1  H    0.030653
     2  H   -0.030653
     3  H   -0.030653
     4  H    0.030653
 Sum of Mulliken charges =  -0.00000

 Dipole moment (field-independent basis, Debye):
    X=              0.0000    Y=              0.0000    Z=             -0.0000  Tot=              0.0000
 Quadrupole moment (field-independent basis, Debye-Ang):
   XX=             -4.0917   YY=             -4.0917   ZZ=             -3.1047
   XY=             -0.0000   XZ=             -0.0000   YZ=              0.0000

 42392\CCSD=-2.3352531\CCSD(T)=-2.335551\RMSD=3.431e-09\PG=D*H [C*(H1H1
 Normal termination of Gaussian 16 at Fri Feb  9 17:39:25 2024.
