 Gaussian 16, Revision A.03,
 Gaussian 16:  ES64L-G16RevA.03 25-Dec-2016

 ------------------
 #p CCSD(T)/cc-pVTZ
 ------------------

 -------
 H2_H2_1
 -------
 Symbolic Z-matrix:
 Charge =  0 Multiplicity = 1

                         Standard orientation:
 ---------------------------------------------------------------------
 Center     Atomic      Atomic             Coordinates (Angstroms)
 Number     Number       Type             X           Y           Z
 ---------------------------------------------------------------------
      1          1           0       -0.073205   -1.144351    0.000000
      2          1           0        0.281558   -0.494934    0.000000
      3          1           0        0.000000    0.464611   -0.000000
      4          1           0       -0.208353    1.174674   -0.000000
 ---------------------------------------------------------------------

 SCF Done:  E(RHF) =  -2.21226794059     A.U. after    8 cycles
 E2 =    -0.7045430348D-01 EUMP2 =    -0.22827222440691D+01
 CCSD(T)
 CCSD(T)= -0.22983937195D+01

 The electronic state is 1-A'.
 Alpha  occ. eigenvalues --   -0.73512  -0.48742
 Alpha virt. eigenvalues --    0.15530   0.22120   0.31487   0.37786   0.54008
 Alpha virt. eigenvalues --    0.58832   0.69160   0.78762   0.78997   0.90733
 Alpha virt. eigenvalues --    1.07920   1.10229   1.31603   1.42333   1.45379

 Mulliken charges:
               1
     1  H   -0.013458
     2  H    0.029982
     3  H    0.032988
     4  H   -0.049512
 Sum of Mulliken charges =   0.00000

 Dipole moment (field-independent basis, Debye):
    X=             -0.0015    Y=             -0.1572    Z=              0.0000  Tot=              0.1572
 Quadrupole moment (field-independent basis, Debye-Ang):
   XX=             -3.7664   YY=             -4.1066   ZZ=             -3.9418
   XY=              0.2274   XZ=             -0.0000   YZ=              0.0000

 67343\MP4SDQ=-2.296896\CCSD=-2.2977498\CCSD(T)=-2.2983937\RMSD=2.248e-
 Normal termination of Gaussian 16 at Fri Feb  9 17:38:42 2024.
