 Gaussian 16, Revision A.03,
 Gaussian 16:  ES64L-G16RevA.03 25-Dec-2016

 ------------------
 #p CCSD(T)/cc-pVTZ
 ------------------

 ---------
 H2_H2_151
 ---------
 Symbolic Z-matrix:
 Charge =  0 Multiplicity = 1

                         Standard orientation:
 ---------------------------------------------------------------------
 Center     Atomic      Atomic             Coordinates (Angstroms)
 Number     Number       Type             X           Y           Z
 ---------------------------------------------------------------------
      1          1           0       -0.203649   -2.104356   -0.000000
      2          1           0        0.270330   -1.536075   -0.000000
      3          1           0       -0.000000    1.451720    0.000000
      4          1           0       -0.066682    2.188710    0.000000
 ---------------------------------------------------------------------

 SCF Done:  E(RHF) =  -2.26584337942     A.U. after    7 cycles
 E2 =    -0.6348424166D-01 EUMP2 =    -0.23293276210863D+01
 CCSD(T)
 CCSD(T)= -0.23447188712D+01

 The electronic state is 1-A'.
 Alpha  occ. eigenvalues --   -0.59923  -0.59203
 Alpha virt. eigenvalues --    0.14686   0.19821   0.28560   0.37101   0.62791
 Alpha virt. eigenvalues --    0.66439   0.69006   0.69364   0.69395   0.73873
 Alpha virt. eigenvalues --    1.08000   1.09339   1.11082   1.12248   1.12769

 Mulliken charges:
               1
     1  H    0.004487
     2  H   -0.004399
     3  H    0.000183
     4  H   -0.000271
 Sum of Mulliken charges =  -0.00000

 Dipole moment (field-independent basis, Debye):
    X=             -0.0080    Y=             -0.0025    Z=             -0.0000  Tot=              0.0083
 Quadrupole moment (field-independent basis, Debye-Ang):
   XX=             -3.9201   YY=             -3.1599   ZZ=             -4.1810
   XY=              0.2569   XZ=             -0.0000   YZ=              0.0000

 33613\MP4SDQ=-2.3435081\CCSD=-2.3447053\CCSD(T)=-2.3447189\RMSD=1.793e
 Normal termination of Gaussian 16 at Fri Feb  9 17:42:04 2024.
