 Gaussian 16, Revision A.03,
 Gaussian 16:  ES64L-G16RevA.03 25-Dec-2016

 ------------------
 #p CCSD(T)/cc-pVTZ
 ------------------

 ---------
 H2_H2_182
 ---------
 Symbolic Z-matrix:
 Charge =  0 Multiplicity = 1

                         Standard orientation:
 ---------------------------------------------------------------------
 Center     Atomic      Atomic             Coordinates (Angstroms)
 Number     Number       Type             X           Y           Z
 ---------------------------------------------------------------------
      1          1           0       -0.322423   -1.938374    0.000000
      2          1           0        0.412120   -1.848677    0.000000
      3          1           0        0.000000    1.526254    0.000000
      4          1           0       -0.089697    2.260797    0.000000
 ---------------------------------------------------------------------

 SCF Done:  E(RHF) =  -2.26593539644     A.U. after    7 cycles
 E2 =    -0.6342665774D-01 EUMP2 =    -0.23293620541841D+01
 CCSD(T)
 CCSD(T)= -0.23447458404D+01

 The electronic state is 1-A'.
 Alpha  occ. eigenvalues --   -0.59763  -0.59235
 Alpha virt. eigenvalues --    0.16173   0.17113   0.28322   0.35237   0.62091
 Alpha virt. eigenvalues --    0.64072   0.69137   0.69354   0.69586   0.75122
 Alpha virt. eigenvalues --    1.08534   1.11183   1.11886   1.12102   1.12161

 Mulliken charges:
               1
     1  H    0.001155
     2  H   -0.001065
     3  H    0.000664
     4  H   -0.000754
 Sum of Mulliken charges =  -0.00000

 Dipole moment (field-independent basis, Debye):
    X=             -0.0015    Y=             -0.0074    Z=              0.0000  Tot=              0.0075
 Quadrupole moment (field-independent basis, Debye-Ang):
   XX=             -3.5576   YY=             -3.5671   ZZ=             -4.1804
   XY=              0.0024   XZ=              0.0000   YZ=              0.0000

 5382\CCSD=-2.3447389\CCSD(T)=-2.3447458\RMSD=2.332e-09\PG=CS [SG(H4)]\
 Normal termination of Gaussian 16 at Fri Feb  9 17:42:46 2024.
