 Gaussian 16, Revision A.03,
 Gaussian 16:  ES64L-G16RevA.03 25-Dec-2016

 ------------------
 #p CCSD(T)/cc-pVTZ
 ------------------

 ---------
 H2_H2_169
 ---------
 Symbolic Z-matrix:
 Charge =  0 Multiplicity = 1

                         Standard orientation:
 ---------------------------------------------------------------------
 Center     Atomic      Atomic             Coordinates (Angstroms)
 Number     Number       Type             X           Y           Z
 ---------------------------------------------------------------------
      1          1           0       -0.208135   -2.222488    0.000000
      2          1           0        0.269744   -1.657482    0.000000
      3          1           0        0.000000    1.571270   -0.000000
      4          1           0       -0.061608    2.308701   -0.000000
 ---------------------------------------------------------------------

 SCF Done:  E(RHF) =  -2.26589135386     A.U. after    6 cycles
 E2 =    -0.6343892517D-01 EUMP2 =    -0.23293302790251D+01
 CCSD(T)
 CCSD(T)= -0.23447170305D+01

 The electronic state is 1-A'.
 Alpha  occ. eigenvalues --   -0.59780  -0.59313
 Alpha virt. eigenvalues --    0.14431   0.19653   0.28499   0.36160   0.63877
 Alpha virt. eigenvalues --    0.65580   0.69121   0.69281   0.69301   0.72843
 Alpha virt. eigenvalues --    1.08973   1.10274   1.11574   1.12039   1.12301

 Mulliken charges:
               1
     1  H    0.003254
     2  H   -0.003230
     3  H   -0.000112
     4  H    0.000088
 Sum of Mulliken charges =  -0.00000

 Dipole moment (field-independent basis, Debye):
    X=             -0.0060    Y=             -0.0020    Z=             -0.0000  Tot=              0.0064
 Quadrupole moment (field-independent basis, Debye-Ang):
   XX=             -3.9166   YY=             -3.1673   ZZ=             -4.1808
   XY=              0.2604   XZ=              0.0000   YZ=              0.0000

 433607\MP4SDQ=-2.343508\CCSD=-2.3447082\CCSD(T)=-2.344717\RMSD=8.518e-
 Normal termination of Gaussian 16 at Fri Feb  9 17:42:28 2024.
