 Gaussian 16, Revision A.03,
 Gaussian 16:  ES64L-G16RevA.03 25-Dec-2016

 ------------------
 #p CCSD(T)/cc-pVTZ
 ------------------

 --------
 H2_H2_18
 --------
 Symbolic Z-matrix:
 Charge =  0 Multiplicity = 1

                         Standard orientation:
 ---------------------------------------------------------------------
 Center     Atomic      Atomic             Coordinates (Angstroms)
 Number     Number       Type             X           Y           Z
 ---------------------------------------------------------------------
      1          1           0        0.000000    0.000000    1.360000
      2          1           0        0.000000    0.000000    0.620000
      3          1           0        0.000000    0.000000   -0.620000
      4          1           0        0.000000    0.000000   -1.360000
 ---------------------------------------------------------------------

 SCF Done:  E(RHF) =  -2.24352446605     A.U. after    8 cycles
 E2 =    -0.6764461623D-01 EUMP2 =    -0.23111690822765D+01
 CCSD(T)
 CCSD(T)= -0.23266900540D+01

 The electronic state is 1-SGG.
 Alpha  occ. eigenvalues --   -0.68088  -0.52851
 Alpha virt. eigenvalues --    0.16620   0.23051   0.32582   0.52648   0.53880
 Alpha virt. eigenvalues --    0.60737   0.60737   0.75562   0.75562   0.77656
 Alpha virt. eigenvalues --    1.04746   1.04746   1.19305   1.46848   1.46848

 Mulliken charges:
               1
     1  H    0.036546
     2  H   -0.036546
     3  H   -0.036546
     4  H    0.036546
 Sum of Mulliken charges =   0.00000

 Dipole moment (field-independent basis, Debye):
    X=              0.0000    Y=             -0.0000    Z=             -0.0000  Tot=              0.0000
 Quadrupole moment (field-independent basis, Debye-Ang):
   XX=             -4.0414   YY=             -4.0414   ZZ=             -3.3041
   XY=             -0.0000   XZ=             -0.0000   YZ=              0.0000

 5321\CCSD=-2.3262625\CCSD(T)=-2.3266901\RMSD=8.831e-10\PG=D*H [C*(H1H1
 Normal termination of Gaussian 16 at Fri Feb  9 17:39:05 2024.
