 Gaussian 16, Revision A.03,
 Gaussian 16:  ES64L-G16RevA.03 25-Dec-2016

 ------------------
 #p CCSD(T)/cc-pVTZ
 ------------------

 ---------
 H2_H2_136
 ---------
 Symbolic Z-matrix:
 Charge =  0 Multiplicity = 1

                         Standard orientation:
 ---------------------------------------------------------------------
 Center     Atomic      Atomic             Coordinates (Angstroms)
 Number     Number       Type             X           Y           Z
 ---------------------------------------------------------------------
      1          1           0       -0.199295   -2.006136   -0.000000
      2          1           0        0.270887   -1.434708   -0.000000
      3          1           0        0.000000    1.352157    0.000000
      4          1           0       -0.071591    2.088686    0.000000
 ---------------------------------------------------------------------

 SCF Done:  E(RHF) =  -2.26575928725     A.U. after    7 cycles
 E2 =    -0.6354362663D-01 EUMP2 =    -0.23293029138767D+01
 CCSD(T)
 CCSD(T)= -0.23446995022D+01

 The electronic state is 1-A'.
 Alpha  occ. eigenvalues --   -0.60097  -0.59063
 Alpha virt. eigenvalues --    0.14958   0.19954   0.28684   0.37796   0.62065
 Alpha virt. eigenvalues --    0.67123   0.68818   0.69510   0.69558   0.74574
 Alpha virt. eigenvalues --    1.04718   1.09142   1.10348   1.12762   1.13501

 Mulliken charges:
               1
     1  H    0.005740
     2  H   -0.005542
     3  H    0.000714
     4  H   -0.000913
 Sum of Mulliken charges =  -0.00000

 Dipole moment (field-independent basis, Debye):
    X=             -0.0099    Y=             -0.0033    Z=             -0.0000  Tot=              0.0104
 Quadrupole moment (field-independent basis, Debye-Ang):
   XX=             -3.9228   YY=             -3.1554   ZZ=             -4.1806
   XY=              0.2532   XZ=             -0.0000   YZ=              0.0000

 34334\MP4SDQ=-2.3434863\CCSD=-2.3446798\CCSD(T)=-2.3446995\RMSD=1.853e
 Normal termination of Gaussian 16 at Fri Feb  9 17:41:44 2024.
