 Gaussian 16, Revision A.03,
 Gaussian 16:  ES64L-G16RevA.03 25-Dec-2016

 ------------------
 #p CCSD(T)/cc-pVTZ
 ------------------

 ---------
 H2_H2_206
 ---------
 Symbolic Z-matrix:
 Charge =  0 Multiplicity = 1

                         Standard orientation:
 ---------------------------------------------------------------------
 Center     Atomic      Atomic             Coordinates (Angstroms)
 Number     Number       Type             X           Y           Z
 ---------------------------------------------------------------------
      1          1           0       -0.327145   -2.093568    0.000000
      2          1           0        0.408382   -2.012330    0.000000
      3          1           0        0.000000    1.685185    0.000000
      4          1           0       -0.081237    2.420713    0.000000
 ---------------------------------------------------------------------

 SCF Done:  E(RHF) =  -2.26594787198     A.U. after    7 cycles
 E2 =    -0.6339460720D-01 EUMP2 =    -0.23293424791768D+01
 CCSD(T)
 CCSD(T)= -0.23447232036D+01

 The electronic state is 1-A'.
 Alpha  occ. eigenvalues --   -0.59649  -0.59337
 Alpha virt. eigenvalues --    0.16128   0.16970   0.28350   0.34516   0.63050
 Alpha virt. eigenvalues --    0.64243   0.69177   0.69323   0.69409   0.72573
 Alpha virt. eigenvalues --    1.09226   1.10737   1.11907   1.11924   1.12069

 Mulliken charges:
               1
     1  H    0.000690
     2  H   -0.000682
     3  H    0.000559
     4  H   -0.000567
 Sum of Mulliken charges =   0.00000

 Dipole moment (field-independent basis, Debye):
    X=             -0.0010    Y=             -0.0052    Z=              0.0000  Tot=              0.0053
 Quadrupole moment (field-independent basis, Debye-Ang):
   XX=             -3.5576   YY=             -3.5635   ZZ=             -4.1802
   XY=              0.0018   XZ=              0.0000   YZ=              0.0000

 35164\CCSD=-2.3447192\CCSD(T)=-2.3447232\RMSD=1.990e-09\PG=CS [SG(H4)]
 Normal termination of Gaussian 16 at Fri Feb  9 17:43:19 2024.
