 Gaussian 16, Revision A.03,
 Gaussian 16:  ES64L-G16RevA.03 25-Dec-2016

 ------------------
 #p CCSD(T)/cc-pVTZ
 ------------------

 ---------
 H2_H2_180
 ---------
 Symbolic Z-matrix:
 Charge =  0 Multiplicity = 1

                         Standard orientation:
 ---------------------------------------------------------------------
 Center     Atomic      Atomic             Coordinates (Angstroms)
 Number     Number       Type             X           Y           Z
 ---------------------------------------------------------------------
      1          1           0        0.000000    0.000000    2.440000
      2          1           0        0.000000    0.000000    1.700000
      3          1           0        0.000000    0.000000   -1.700000
      4          1           0        0.000000    0.000000   -2.440000
 ---------------------------------------------------------------------

 SCF Done:  E(RHF) =  -2.26588976761     A.U. after    6 cycles
 E2 =    -0.6342129046D-01 EUMP2 =    -0.23293110580666D+01
 CCSD(T)
 CCSD(T)= -0.23446970630D+01

 The electronic state is 1-SGG.
 Alpha  occ. eigenvalues --   -0.59719  -0.59412
 Alpha virt. eigenvalues --    0.13687   0.20493   0.28686   0.35802   0.64657
 Alpha virt. eigenvalues --    0.69147   0.69147   0.69218   0.69218   0.69331
 Alpha virt. eigenvalues --    1.09157   1.10769   1.11710   1.11710   1.12119

 Mulliken charges:
               1
     1  H    0.000930
     2  H   -0.000930
     3  H   -0.000930
     4  H    0.000930
 Sum of Mulliken charges =   0.00000

 Dipole moment (field-independent basis, Debye):
    X=             -0.0000    Y=              0.0000    Z=              0.0000  Tot=              0.0000
 Quadrupole moment (field-independent basis, Debye-Ang):
   XX=             -4.1807   YY=             -4.1807   ZZ=             -2.8776
   XY=             -0.0000   XZ=             -0.0000   YZ=              0.0000

 34883\CCSD=-2.3446897\CCSD(T)=-2.3446971\RMSD=3.387e-09\PG=D*H [C*(H1H
 Normal termination of Gaussian 16 at Fri Feb  9 17:42:43 2024.
