 Gaussian 16, Revision A.03,
 Gaussian 16:  ES64L-G16RevA.03 25-Dec-2016

 ------------------
 #p CCSD(T)/cc-pVTZ
 ------------------

 --------
 H2_H2_47
 --------
 Symbolic Z-matrix:
 Charge =  0 Multiplicity = 1

                         Standard orientation:
 ---------------------------------------------------------------------
 Center     Atomic      Atomic             Coordinates (Angstroms)
 Number     Number       Type             X           Y           Z
 ---------------------------------------------------------------------
      1          1           0       -0.247733   -1.103122    0.000000
      2          1           0        0.460899   -0.889956    0.000000
      3          1           0        0.000000    0.642223    0.000000
      4          1           0       -0.213166    1.350855    0.000000
 ---------------------------------------------------------------------

 SCF Done:  E(RHF) =  -2.25167832775     A.U. after    7 cycles
 E2 =    -0.6625348824D-01 EUMP2 =    -0.23179318159912D+01
 CCSD(T)
 CCSD(T)= -0.23334544914D+01

 The electronic state is 1-A'.
 Alpha  occ. eigenvalues --   -0.65611  -0.53811
 Alpha virt. eigenvalues --    0.15615   0.20547   0.30476   0.35831   0.59683
 Alpha virt. eigenvalues --    0.61437   0.65371   0.70640   0.75916   0.89026
 Alpha virt. eigenvalues --    1.03275   1.09433   1.12253   1.20654   1.36723

 Mulliken charges:
               1
     1  H    0.009078
     2  H    0.006672
     3  H    0.015086
     4  H   -0.030835
 Sum of Mulliken charges =   0.00000

 Dipole moment (field-independent basis, Debye):
    X=              0.0066    Y=             -0.2055    Z=              0.0000  Tot=              0.2056
 Quadrupole moment (field-independent basis, Debye-Ang):
   XX=             -3.4604   YY=             -4.0594   ZZ=             -4.0797
   XY=              0.0801   XZ=              0.0000   YZ=              0.0000

 616\CCSD=-2.3331942\CCSD(T)=-2.3334545\RMSD=5.110e-09\PG=CS [SG(H4)]\\
 Normal termination of Gaussian 16 at Fri Feb  9 17:39:43 2024.
