 Gaussian 16, Revision A.03,
 Gaussian 16:  ES64L-G16RevA.03 25-Dec-2016

 ------------------
 #p CCSD(T)/cc-pVTZ
 ------------------

 ---------
 H2_H2_246
 ---------
 Symbolic Z-matrix:
 Charge =  0 Multiplicity = 1

                         Standard orientation:
 ---------------------------------------------------------------------
 Center     Atomic      Atomic             Coordinates (Angstroms)
 Number     Number       Type             X           Y           Z
 ---------------------------------------------------------------------
      1          1           0        0.000000    0.000000    2.880000
      2          1           0        0.000000    0.000000    2.140000
      3          1           0        0.000000    0.000000   -2.140000
      4          1           0        0.000000    0.000000   -2.880000
 ---------------------------------------------------------------------

 SCF Done:  E(RHF) =  -2.26591856336     A.U. after    6 cycles
 E2 =    -0.6337227501D-01 EUMP2 =    -0.23292908383701D+01
 CCSD(T)
 CCSD(T)= -0.23446705567D+01

 The electronic state is 1-SGG.
 Alpha  occ. eigenvalues --   -0.59553  -0.59494
 Alpha virt. eigenvalues --    0.14215   0.19090   0.29261   0.32391   0.61985
 Alpha virt. eigenvalues --    0.68723   0.69219   0.69219   0.69220   0.69220
 Alpha virt. eigenvalues --    1.09257   1.09951   1.11954   1.11954   1.11960

 Mulliken charges:
               1
     1  H    0.000651
     2  H   -0.000651
     3  H   -0.000651
     4  H    0.000651
 Sum of Mulliken charges =  -0.00000

 Dipole moment (field-independent basis, Debye):
    X=              0.0000    Y=              0.0000    Z=              0.0000  Tot=              0.0000
 Quadrupole moment (field-independent basis, Debye-Ang):
   XX=             -4.1797   YY=             -4.1797   ZZ=             -2.9062
   XY=             -0.0000   XZ=             -0.0000   YZ=              0.0000

 434639\CCSD=-2.3446684\CCSD(T)=-2.3446706\RMSD=3.286e-09\PG=D*H [C*(H1
 Normal termination of Gaussian 16 at Fri Feb  9 17:44:13 2024.
