 Gaussian 16, Revision A.03,
 Gaussian 16:  ES64L-G16RevA.03 25-Dec-2016

 ------------------
 #p CCSD(T)/cc-pVTZ
 ------------------

 --------
 H2_H2_80
 --------
 Symbolic Z-matrix:
 Charge =  0 Multiplicity = 1

                         Standard orientation:
 ---------------------------------------------------------------------
 Center     Atomic      Atomic             Coordinates (Angstroms)
 Number     Number       Type             X           Y           Z
 ---------------------------------------------------------------------
      1          1           0       -0.281205   -1.296524    0.000000
      2          1           0        0.441275   -1.136453    0.000000
      3          1           0       -0.000000    0.855249    0.000000
      4          1           0       -0.160070    1.577729    0.000000
 ---------------------------------------------------------------------

 SCF Done:  E(RHF) =  -2.26245065500     A.U. after    7 cycles
 E2 =    -0.6454349638D-01 EUMP2 =    -0.23269941513787D+01
 CCSD(T)
 CCSD(T)= -0.23424485925D+01

 The electronic state is 1-A'.
 Alpha  occ. eigenvalues --   -0.62346  -0.56776
 Alpha virt. eigenvalues --    0.16068   0.19618   0.30360   0.34593   0.62144
 Alpha virt. eigenvalues --    0.65190   0.65659   0.70390   0.72518   0.77984
 Alpha virt. eigenvalues --    1.01160   1.09922   1.10800   1.15620   1.24954

 Mulliken charges:
               1
     1  H    0.002548
     2  H    0.002665
     3  H    0.010097
     4  H   -0.015310
 Sum of Mulliken charges =  -0.00000

 Dipole moment (field-independent basis, Debye):
    X=             -0.0043    Y=             -0.0835    Z=              0.0000  Tot=              0.0836
 Quadrupole moment (field-independent basis, Debye-Ang):
   XX=             -3.5220   YY=             -3.7447   ZZ=             -4.1458
   XY=              0.0211   XZ=              0.0000   YZ=              0.0000

 2064\CCSD=-2.3423369\CCSD(T)=-2.3424486\RMSD=1.665e-09\PG=CS [SG(H4)]\
 Normal termination of Gaussian 16 at Fri Feb  9 17:40:28 2024.
