 Gaussian 16, Revision A.03,
 Gaussian 16:  ES64L-G16RevA.03 25-Dec-2016

 ------------------
 #p CCSD(T)/cc-pVTZ
 ------------------

 ---------
 H2_H2_123
 ---------
 Symbolic Z-matrix:
 Charge =  0 Multiplicity = 1

                         Standard orientation:
 ---------------------------------------------------------------------
 Center     Atomic      Atomic             Coordinates (Angstroms)
 Number     Number       Type             X           Y           Z
 ---------------------------------------------------------------------
      1          1           0        0.000000    0.000000    2.060000
      2          1           0        0.000000    0.000000    1.320000
      3          1           0        0.000000    0.000000   -1.320000
      4          1           0        0.000000    0.000000   -2.060000
 ---------------------------------------------------------------------

 SCF Done:  E(RHF) =  -2.26564081585     A.U. after    7 cycles
 E2 =    -0.6360953211D-01 EUMP2 =    -0.23292503479551D+01
 CCSD(T)
 CCSD(T)= -0.23446554770D+01

 The electronic state is 1-SGG.
 Alpha  occ. eigenvalues --   -0.60266  -0.59020
 Alpha virt. eigenvalues --    0.14688   0.21220   0.28824   0.40962   0.65734
 Alpha virt. eigenvalues --    0.68563   0.68563   0.69254   0.69621   0.69621
 Alpha virt. eigenvalues --    1.00827   1.09225   1.09225   1.14565   1.14565

 Mulliken charges:
               1
     1  H   -0.000899
     2  H    0.000899
     3  H    0.000899
     4  H   -0.000899
 Sum of Mulliken charges =  -0.00000

 Dipole moment (field-independent basis, Debye):
    X=             -0.0000    Y=              0.0000    Z=             -0.0000  Tot=              0.0000
 Quadrupole moment (field-independent basis, Debye-Ang):
   XX=             -4.1807   YY=             -4.1807   ZZ=             -2.8397
   XY=             -0.0000   XZ=             -0.0000   YZ=              0.0000

 43438\CCSD=-2.3446277\CCSD(T)=-2.3446555\RMSD=1.493e-09\PG=D*H [C*(H1H
 Normal termination of Gaussian 16 at Fri Feb  9 17:41:26 2024.
