 Gaussian 16, Revision A.03,
 Gaussian 16:  ES64L-G16RevA.03 25-Dec-2016

 ------------------
 #p CCSD(T)/cc-pVTZ
 ------------------

 ---------
 H2_H2_120
 ---------
 Symbolic Z-matrix:
 Charge =  0 Multiplicity = 1

                         Standard orientation:
 ---------------------------------------------------------------------
 Center     Atomic      Atomic             Coordinates (Angstroms)
 Number     Number       Type             X           Y           Z
 ---------------------------------------------------------------------
      1          1           0        0.000000    0.000000    2.040000
      2          1           0        0.000000    0.000000    1.300000
      3          1           0        0.000000    0.000000   -1.300000
      4          1           0        0.000000    0.000000   -2.040000
 ---------------------------------------------------------------------

 SCF Done:  E(RHF) =  -2.26560361197     A.U. after    7 cycles
 E2 =    -0.6363017262D-01 EUMP2 =    -0.23292337845910D+01
 CCSD(T)
 CCSD(T)= -0.23446406168D+01

 The electronic state is 1-SGG.
 Alpha  occ. eigenvalues --   -0.60319  -0.58979
 Alpha virt. eigenvalues --    0.14764   0.21249   0.28850   0.41291   0.65610
 Alpha virt. eigenvalues --    0.68486   0.68486   0.69260   0.69676   0.69676
 Alpha virt. eigenvalues --    0.99958   1.08937   1.08937   1.14876   1.14876

 Mulliken charges:
               1
     1  H   -0.001087
     2  H    0.001087
     3  H    0.001087
     4  H   -0.001087
 Sum of Mulliken charges =   0.00000

 Dipole moment (field-independent basis, Debye):
    X=             -0.0000    Y=             -0.0000    Z=             -0.0000  Tot=              0.0000
 Quadrupole moment (field-independent basis, Debye-Ang):
   XX=             -4.1804   YY=             -4.1804   ZZ=             -2.8384
   XY=             -0.0000   XZ=             -0.0000   YZ=              0.0000

 34223\CCSD=-2.3446106\CCSD(T)=-2.3446406\RMSD=1.496e-09\PG=D*H [C*(H1H
 Normal termination of Gaussian 16 at Fri Feb  9 17:41:22 2024.
