 Gaussian 16, Revision A.03,
 Gaussian 16:  ES64L-G16RevA.03 25-Dec-2016

 ------------------
 #p CCSD(T)/cc-pVTZ
 ------------------

 ---------
 H2_H2_281
 ---------
 Symbolic Z-matrix:
 Charge =  0 Multiplicity = 1

                         Standard orientation:
 ---------------------------------------------------------------------
 Center     Atomic      Atomic             Coordinates (Angstroms)
 Number     Number       Type             X           Y           Z
 ---------------------------------------------------------------------
      1          1           0       -0.337311   -2.582880    0.000000
      2          1           0        0.400027   -2.520164    0.000000
      3          1           0       -0.000000    2.182854    0.000000
      4          1           0       -0.062716    2.920191    0.000000
 ---------------------------------------------------------------------

 SCF Done:  E(RHF) =  -2.26594269797     A.U. after    6 cycles
 E2 =    -0.6336116234D-01 EUMP2 =    -0.23293038603066D+01
 CCSD(T)
 CCSD(T)= -0.23446813685D+01

 The electronic state is 1-A'.
 Alpha  occ. eigenvalues --   -0.59526  -0.59437
 Alpha virt. eigenvalues --    0.16442   0.16836   0.29329   0.31943   0.64160
 Alpha virt. eigenvalues --    0.64714   0.69222   0.69297   0.69297   0.69355
 Alpha virt. eigenvalues --    1.09542   1.09886   1.11960   1.11965   1.12040

 Mulliken charges:
               1
     1  H    0.000186
     2  H   -0.000181
     3  H    0.000300
     4  H   -0.000306
 Sum of Mulliken charges =   0.00000

 Dipole moment (field-independent basis, Debye):
    X=             -0.0003    Y=             -0.0025    Z=              0.0000  Tot=              0.0025
 Quadrupole moment (field-independent basis, Debye-Ang):
   XX=             -3.5575   YY=             -3.5587   ZZ=             -4.1799
   XY=              0.0007   XZ=              0.0000   YZ=              0.0000

 4753\CCSD=-2.3446805\CCSD(T)=-2.3446814\RMSD=3.395e-09\PG=CS [SG(H4)]\
 Normal termination of Gaussian 16 at Fri Feb  9 17:45:01 2024.
