 Gaussian 16, Revision A.03,
 Gaussian 16:  ES64L-G16RevA.03 25-Dec-2016

 ------------------
 #p CCSD(T)/cc-pVTZ
 ------------------

 --------
 H2_H2_30
 --------
 Symbolic Z-matrix:
 Charge =  0 Multiplicity = 1

                         Standard orientation:
 ---------------------------------------------------------------------
 Center     Atomic      Atomic             Coordinates (Angstroms)
 Number     Number       Type             X           Y           Z
 ---------------------------------------------------------------------
      1          1           0        0.000000    0.000000    1.440000
      2          1           0        0.000000    0.000000    0.700000
      3          1           0        0.000000    0.000000   -0.700000
      4          1           0        0.000000    0.000000   -1.440000
 ---------------------------------------------------------------------

 SCF Done:  E(RHF) =  -2.25223378807     A.U. after    7 cycles
 E2 =    -0.6648337108D-01 EUMP2 =    -0.23187171591433D+01
 CCSD(T)
 CCSD(T)= -0.23342065151D+01

 The electronic state is 1-SGG.
 Alpha  occ. eigenvalues --   -0.65950  -0.54438
 Alpha virt. eigenvalues --    0.16662   0.22679   0.31798   0.51826   0.55063
 Alpha virt. eigenvalues --    0.61765   0.61765   0.74081   0.74429   0.74429
 Alpha virt. eigenvalues --    1.02830   1.02830   1.14669   1.40848   1.40848

 Mulliken charges:
               1
     1  H    0.032843
     2  H   -0.032843
     3  H   -0.032843
     4  H    0.032843
 Sum of Mulliken charges =  -0.00000

 Dipole moment (field-independent basis, Debye):
    X=              0.0000    Y=              0.0000    Z=              0.0000  Tot=              0.0000
 Quadrupole moment (field-independent basis, Debye-Ang):
   XX=             -4.0829   YY=             -4.0829   ZZ=             -3.1380
   XY=             -0.0000   XZ=             -0.0000   YZ=              0.0000

 8856\CCSD=-2.3338858\CCSD(T)=-2.3342065\RMSD=4.378e-09\PG=D*H [C*(H1H1
 Normal termination of Gaussian 16 at Fri Feb  9 17:39:21 2024.
