 Gaussian 16, Revision A.03,
 Gaussian 16:  ES64L-G16RevA.03 25-Dec-2016

 ------------------
 #p CCSD(T)/cc-pVTZ
 ------------------

 --------
 H2_H2_39
 --------
 Symbolic Z-matrix:
 Charge =  0 Multiplicity = 1

                         Standard orientation:
 ---------------------------------------------------------------------
 Center     Atomic      Atomic             Coordinates (Angstroms)
 Number     Number       Type             X           Y           Z
 ---------------------------------------------------------------------
      1          1           0        0.000000    0.000000    1.500000
      2          1           0        0.000000    0.000000    0.760000
      3          1           0        0.000000    0.000000   -0.760000
      4          1           0        0.000000    0.000000   -1.500000
 ---------------------------------------------------------------------

 SCF Done:  E(RHF) =  -2.25647323174     A.U. after    7 cycles
 E2 =    -0.6581702190D-01 EUMP2 =    -0.23222902536431D+01
 CCSD(T)
 CCSD(T)= -0.23377677408D+01

 The electronic state is 1-SGG.
 Alpha  occ. eigenvalues --   -0.64717  -0.55398
 Alpha virt. eigenvalues --    0.16609   0.22439   0.31257   0.50933   0.56164
 Alpha virt. eigenvalues --    0.62590   0.62590   0.71870   0.73654   0.73654
 Alpha virt. eigenvalues --    1.01991   1.01991   1.11364   1.36676   1.36676

 Mulliken charges:
               1
     1  H    0.025679
     2  H   -0.025679
     3  H   -0.025679
     4  H    0.025679
 Sum of Mulliken charges =  -0.00000

 Dipole moment (field-independent basis, Debye):
    X=              0.0000    Y=             -0.0000    Z=              0.0000  Tot=              0.0000
 Quadrupole moment (field-independent basis, Debye-Ang):
   XX=             -4.1074   YY=             -4.1074   ZZ=             -3.0464
   XY=             -0.0000   XZ=             -0.0000   YZ=              0.0000

 64713\CCSD=-2.3375113\CCSD(T)=-2.3377677\RMSD=2.078e-09\PG=D*H [C*(H1H
 Normal termination of Gaussian 16 at Fri Feb  9 17:39:33 2024.
