 Gaussian 16, Revision A.03,
 Gaussian 16:  ES64L-G16RevA.03 25-Dec-2016

 ------------------
 #p CCSD(T)/cc-pVTZ
 ------------------

 --------
 H2_H2_75
 --------
 Symbolic Z-matrix:
 Charge =  0 Multiplicity = 1

                         Standard orientation:
 ---------------------------------------------------------------------
 Center     Atomic      Atomic             Coordinates (Angstroms)
 Number     Number       Type             X           Y           Z
 ---------------------------------------------------------------------
      1          1           0        0.000000    0.000000    1.740000
      2          1           0        0.000000    0.000000    1.000000
      3          1           0        0.000000    0.000000   -1.000000
      4          1           0        0.000000    0.000000   -1.740000
 ---------------------------------------------------------------------

 SCF Done:  E(RHF) =  -2.26381689590     A.U. after    7 cycles
 E2 =    -0.6428440892D-01 EUMP2 =    -0.23281013048189D+01
 CCSD(T)
 CCSD(T)= -0.23435444958D+01

 The electronic state is 1-SGG.
 Alpha  occ. eigenvalues --   -0.61768  -0.57798
 Alpha virt. eigenvalues --    0.15953   0.21741   0.29665   0.46674   0.62342
 Alpha virt. eigenvalues --    0.66032   0.66032   0.66385   0.71243   0.71243
 Alpha virt. eigenvalues --    1.00022   1.03248   1.03248   1.23498   1.23498

 Mulliken charges:
               1
     1  H    0.002965
     2  H   -0.002965
     3  H   -0.002965
     4  H    0.002965
 Sum of Mulliken charges =  -0.00000

 Dipole moment (field-independent basis, Debye):
    X=             -0.0000    Y=             -0.0000    Z=              0.0000  Tot=              0.0000
 Quadrupole moment (field-independent basis, Debye-Ang):
   XX=             -4.1625   YY=             -4.1625   ZZ=             -2.8652
   XY=             -0.0000   XZ=             -0.0000   YZ=              0.0000

 002\CCSD=-2.3434444\CCSD(T)=-2.3435445\RMSD=1.294e-09\PG=D*H [C*(H1H1.
 Normal termination of Gaussian 16 at Fri Feb  9 17:40:22 2024.
