 Gaussian 16, Revision A.03,
 Gaussian 16:  ES64L-G16RevA.03 25-Dec-2016

 ------------------
 #p CCSD(T)/cc-pVTZ
 ------------------

 ---------
 H2_H2_245
 ---------
 Symbolic Z-matrix:
 Charge =  0 Multiplicity = 1

                         Standard orientation:
 ---------------------------------------------------------------------
 Center     Atomic      Atomic             Coordinates (Angstroms)
 Number     Number       Type             X           Y           Z
 ---------------------------------------------------------------------
      1          1           0       -0.333106   -2.347358    0.000000
      2          1           0        0.403535   -2.276930    0.000000
      3          1           0       -0.000000    1.943824    0.000000
      4          1           0       -0.070428    2.680464    0.000000
 ---------------------------------------------------------------------

 SCF Done:  E(RHF) =  -2.26594626193     A.U. after    6 cycles
 E2 =    -0.6337033052D-01 EUMP2 =    -0.23293165924502D+01
 CCSD(T)
 CCSD(T)= -0.23446949063D+01

 The electronic state is 1-A'.
 Alpha  occ. eigenvalues --   -0.59560  -0.59412
 Alpha virt. eigenvalues --    0.16248   0.16878   0.28760   0.33057   0.64017
 Alpha virt. eigenvalues --    0.64613   0.69206   0.69306   0.69316   0.70057
 Alpha virt. eigenvalues --    1.09712   1.09914   1.11949   1.11950   1.12050

 Mulliken charges:
               1
     1  H    0.000327
     2  H   -0.000324
     3  H    0.000399
     4  H   -0.000401
 Sum of Mulliken charges =   0.00000

 Dipole moment (field-independent basis, Debye):
    X=             -0.0005    Y=             -0.0035    Z=              0.0000  Tot=              0.0036
 Quadrupole moment (field-independent basis, Debye-Ang):
   XX=             -3.5575   YY=             -3.5600   ZZ=             -4.1799
   XY=              0.0011   XZ=              0.0000   YZ=              0.0000

 34887\CCSD=-2.3446932\CCSD(T)=-2.3446949\RMSD=5.883e-09\PG=CS [SG(H4)]
 Normal termination of Gaussian 16 at Fri Feb  9 17:44:12 2024.
