 Gaussian 16, Revision A.03,
 Gaussian 16:  ES64L-G16RevA.03 25-Dec-2016

 ------------------
 #p CCSD(T)/cc-pVTZ
 ------------------

 ---------
 H2_H2_214
 ---------
 Symbolic Z-matrix:
 Charge =  0 Multiplicity = 1

                         Standard orientation:
 ---------------------------------------------------------------------
 Center     Atomic      Atomic             Coordinates (Angstroms)
 Number     Number       Type             X           Y           Z
 ---------------------------------------------------------------------
      1          1           0       -0.216813   -2.518776    0.000000
      2          1           0        0.268568   -1.960202    0.000000
      3          1           0       -0.000000    1.870395   -0.000000
      4          1           0       -0.051755    2.608583   -0.000000
 ---------------------------------------------------------------------

 SCF Done:  E(RHF) =  -2.26592358785     A.U. after    6 cycles
 E2 =    -0.6338575798D-01 EUMP2 =    -0.23293093458258D+01
 CCSD(T)
 CCSD(T)= -0.23446902068D+01

 The electronic state is 1-A'.
 Alpha  occ. eigenvalues --   -0.59599  -0.59439
 Alpha virt. eigenvalues --    0.14316   0.19106   0.28729   0.33831   0.63031
 Alpha virt. eigenvalues --    0.66982   0.69199   0.69250   0.69253   0.70591
 Alpha virt. eigenvalues --    1.08935   1.10290   1.11926   1.11992   1.12001

 Mulliken charges:
               1
     1  H    0.001435
     2  H   -0.001436
     3  H   -0.000287
     4  H    0.000287
 Sum of Mulliken charges =   0.00000

 Dipole moment (field-independent basis, Debye):
    X=             -0.0029    Y=             -0.0015    Z=             -0.0000  Tot=              0.0033
 Quadrupole moment (field-independent basis, Debye-Ang):
   XX=             -3.9091   YY=             -3.1846   ZZ=             -4.1800
   XY=              0.2668   XZ=              0.0000   YZ=             -0.0000

 33353\MP4SDQ=-2.3434832\CCSD=-2.3446868\CCSD(T)=-2.3446902\RMSD=3.494e
 Normal termination of Gaussian 16 at Fri Feb  9 17:43:29 2024.
