 Gaussian 16, Revision A.03,
 Gaussian 16:  ES64L-G16RevA.03 25-Dec-2016

 ------------------
 #p CCSD(T)/cc-pVTZ
 ------------------

 ---------
 H2_H2_160
 ---------
 Symbolic Z-matrix:
 Charge =  0 Multiplicity = 1

                         Standard orientation:
 ---------------------------------------------------------------------
 Center     Atomic      Atomic             Coordinates (Angstroms)
 Number     Number       Type             X           Y           Z
 ---------------------------------------------------------------------
      1          1           0       -0.205982   -2.163389    0.000000
      2          1           0        0.270027   -1.596807    0.000000
      3          1           0        0.000000    1.511486   -0.000000
      4          1           0       -0.064045    2.248709   -0.000000
 ---------------------------------------------------------------------

 SCF Done:  E(RHF) =  -2.26587228302     A.U. after    7 cycles
 E2 =    -0.6345885801D-01 EUMP2 =    -0.23293311410285D+01
 CCSD(T)
 CCSD(T)= -0.23447199226D+01

 The electronic state is 1-A'.
 Alpha  occ. eigenvalues --   -0.59844  -0.59265
 Alpha virt. eigenvalues --    0.14547   0.19739   0.28518   0.36640   0.63345
 Alpha virt. eigenvalues --    0.65978   0.69074   0.69313   0.69338   0.73363
 Alpha virt. eigenvalues --    1.09022   1.09558   1.11371   1.12106   1.12492

 Mulliken charges:
               1
     1  H    0.003831
     2  H   -0.003782
     3  H    0.000005
     4  H   -0.000053
 Sum of Mulliken charges =   0.00000

 Dipole moment (field-independent basis, Debye):
    X=             -0.0069    Y=             -0.0022    Z=              0.0000  Tot=              0.0073
 Quadrupole moment (field-independent basis, Debye-Ang):
   XX=             -3.9183   YY=             -3.1635   ZZ=             -4.1810
   XY=              0.2588   XZ=             -0.0000   YZ=             -0.0000

 3433631\MP4SDQ=-2.3435101\CCSD=-2.344709\CCSD(T)=-2.3447199\RMSD=1.677
 Normal termination of Gaussian 16 at Fri Feb  9 17:42:16 2024.
