 Gaussian 16, Revision A.03,
 Gaussian 16:  ES64L-G16RevA.03 25-Dec-2016

 ------------------
 #p CCSD(T)/cc-pVTZ
 ------------------

 ---------
 H2_H2_131
 ---------
 Symbolic Z-matrix:
 Charge =  0 Multiplicity = 1

                         Standard orientation:
 ---------------------------------------------------------------------
 Center     Atomic      Atomic             Coordinates (Angstroms)
 Number     Number       Type             X           Y           Z
 ---------------------------------------------------------------------
      1          1           0       -0.307951   -1.612519    0.000000
      2          1           0        0.423044   -1.497426    0.000000
      3          1           0       -0.000000    1.189475    0.000000
      4          1           0       -0.115093    1.920470    0.000000
 ---------------------------------------------------------------------

 SCF Done:  E(RHF) =  -2.26563365571     A.U. after    7 cycles
 E2 =    -0.6363016042D-01 EUMP2 =    -0.23292638161360D+01
 CCSD(T)
 CCSD(T)= -0.23446637133D+01

 The electronic state is 1-A'.
 Alpha  occ. eigenvalues --   -0.60373  -0.58664
 Alpha virt. eigenvalues --    0.16293   0.18046   0.29026   0.35275   0.62838
 Alpha virt. eigenvalues --    0.63975   0.68515   0.69904   0.70445   0.78417
 Alpha virt. eigenvalues --    1.06392   1.08191   1.11372   1.12657   1.15191

 Mulliken charges:
               1
     1  H    0.003295
     2  H   -0.002229
     3  H    0.001181
     4  H   -0.002247
 Sum of Mulliken charges =  -0.00000

 Dipole moment (field-independent basis, Debye):
    X=             -0.0032    Y=             -0.0219    Z=              0.0000  Tot=              0.0221
 Quadrupole moment (field-independent basis, Debye-Ang):
   XX=             -3.5538   YY=             -3.5919   ZZ=             -4.1774
   XY=              0.0043   XZ=              0.0000   YZ=              0.0000

 345\CCSD=-2.3446372\CCSD(T)=-2.3446637\RMSD=1.765e-09\PG=CS [SG(H4)]\\
 Normal termination of Gaussian 16 at Fri Feb  9 17:41:37 2024.
