 Gaussian 16, Revision A.03,
 Gaussian 16:  ES64L-G16RevA.03 25-Dec-2016

 ------------------
 #p CCSD(T)/cc-pVTZ
 ------------------

 --------
 H2_H2_36
 --------
 Symbolic Z-matrix:
 Charge =  0 Multiplicity = 1

                         Standard orientation:
 ---------------------------------------------------------------------
 Center     Atomic      Atomic             Coordinates (Angstroms)
 Number     Number       Type             X           Y           Z
 ---------------------------------------------------------------------
      1          1           0        0.000000    0.000000    1.480000
      2          1           0        0.000000    0.000000    0.740000
      3          1           0        0.000000    0.000000   -0.740000
      4          1           0        0.000000    0.000000   -1.480000
 ---------------------------------------------------------------------

 SCF Done:  E(RHF) =  -2.25522854561     A.U. after    7 cycles
 E2 =    -0.6602220158D-01 EUMP2 =    -0.23212507471865D+01
 CCSD(T)
 CCSD(T)= -0.23367315978D+01

 The electronic state is 1-SGG.
 Alpha  occ. eigenvalues --   -0.65098  -0.55098
 Alpha virt. eigenvalues --    0.16634   0.22516   0.31432   0.51245   0.55776
 Alpha virt. eigenvalues --    0.62309   0.62309   0.72566   0.73905   0.73905
 Alpha virt. eigenvalues --    1.02215   1.02215   1.12450   1.38032   1.38032

 Mulliken charges:
               1
     1  H    0.028230
     2  H   -0.028230
     3  H   -0.028230
     4  H    0.028230
 Sum of Mulliken charges =   0.00000

 Dipole moment (field-independent basis, Debye):
    X=              0.0000    Y=             -0.0000    Z=              0.0000  Tot=              0.0000
 Quadrupole moment (field-independent basis, Debye-Ang):
   XX=             -4.0998   YY=             -4.0998   ZZ=             -3.0742
   XY=             -0.0000   XZ=             -0.0000   YZ=              0.0000

 54278\CCSD=-2.3364551\CCSD(T)=-2.3367316\RMSD=2.677e-09\PG=D*H [C*(H1H
 Normal termination of Gaussian 16 at Fri Feb  9 17:39:29 2024.
