 Gaussian 16, Revision A.03,
 Gaussian 16:  ES64L-G16RevA.03 25-Dec-2016

 ------------------
 #p CCSD(T)/cc-pVTZ
 ------------------

 ---------
 H2_H2_204
 ---------
 Symbolic Z-matrix:
 Charge =  0 Multiplicity = 1

                         Standard orientation:
 ---------------------------------------------------------------------
 Center     Atomic      Atomic             Coordinates (Angstroms)
 Number     Number       Type             X           Y           Z
 ---------------------------------------------------------------------
      1          1           0        0.000000    0.000000    2.600000
      2          1           0        0.000000    0.000000    1.860000
      3          1           0        0.000000    0.000000   -1.860000
      4          1           0        0.000000    0.000000   -2.600000
 ---------------------------------------------------------------------

 SCF Done:  E(RHF) =  -2.26590639792     A.U. after    6 cycles
 E2 =    -0.6339507902D-01 EUMP2 =    -0.23293014769435D+01
 CCSD(T)
 CCSD(T)= -0.23446841641D+01

 The electronic state is 1-SGG.
 Alpha  occ. eigenvalues --   -0.59630  -0.59462
 Alpha virt. eigenvalues --    0.13658   0.20039   0.28819   0.34267   0.63074
 Alpha virt. eigenvalues --    0.69190   0.69190   0.69208   0.69208   0.69858
 Alpha virt. eigenvalues --    1.08664   1.10695   1.11882   1.11882   1.11986

 Mulliken charges:
               1
     1  H    0.000894
     2  H   -0.000894
     3  H   -0.000894
     4  H    0.000894
 Sum of Mulliken charges =   0.00000

 Dipole moment (field-independent basis, Debye):
    X=             -0.0000    Y=             -0.0000    Z=              0.0000  Tot=              0.0000
 Quadrupole moment (field-independent basis, Debye-Ang):
   XX=             -4.1801   YY=             -4.1801   ZZ=             -2.8911
   XY=             -0.0000   XZ=             -0.0000   YZ=              0.0000

 434765\CCSD=-2.3446796\CCSD(T)=-2.3446842\RMSD=3.018e-09\PG=D*H [C*(H1
 Normal termination of Gaussian 16 at Fri Feb  9 17:43:16 2024.
