 Gaussian 16, Revision A.03,
 Gaussian 16:  ES64L-G16RevA.03 25-Dec-2016

 ------------------
 #p CCSD(T)/cc-pVTZ
 ------------------

 --------
 H2_H2_81
 --------
 Symbolic Z-matrix:
 Charge =  0 Multiplicity = 1

                         Standard orientation:
 ---------------------------------------------------------------------
 Center     Atomic      Atomic             Coordinates (Angstroms)
 Number     Number       Type             X           Y           Z
 ---------------------------------------------------------------------
      1          1           0        0.000000    0.000000    1.780000
      2          1           0        0.000000    0.000000    1.040000
      3          1           0        0.000000    0.000000   -1.040000
      4          1           0        0.000000    0.000000   -1.780000
 ---------------------------------------------------------------------

 SCF Done:  E(RHF) =  -2.26428642159     A.U. after    7 cycles
 E2 =    -0.6414359419D-01 EUMP2 =    -0.23284300157796D+01
 CCSD(T)
 CCSD(T)= -0.23438673962D+01

 The electronic state is 1-SGG.
 Alpha  occ. eigenvalues --   -0.61478  -0.58039
 Alpha virt. eigenvalues --    0.15802   0.21659   0.29492   0.45929   0.63594
 Alpha virt. eigenvalues --    0.65936   0.66521   0.66521   0.70945   0.70945
 Alpha virt. eigenvalues --    0.98666   1.03982   1.03982   1.21867   1.21867

 Mulliken charges:
               1
     1  H    0.001144
     2  H   -0.001144
     3  H   -0.001144
     4  H    0.001144
 Sum of Mulliken charges =   0.00000

 Dipole moment (field-independent basis, Debye):
    X=             -0.0000    Y=             -0.0000    Z=              0.0000  Tot=              0.0000
 Quadrupole moment (field-independent basis, Debye-Ang):
   XX=             -4.1670   YY=             -4.1670   ZZ=             -2.8537
   XY=             -0.0000   XZ=             -0.0000   YZ=              0.0000

 283\CCSD=-2.3437822\CCSD(T)=-2.3438674\RMSD=1.260e-09\PG=D*H [C*(H1H1.
 Normal termination of Gaussian 16 at Fri Feb  9 17:40:30 2024.
