 Gaussian 16, Revision A.03,
 Gaussian 16:  ES64L-G16RevA.03 25-Dec-2016

 ------------------
 #p CCSD(T)/cc-pVTZ
 ------------------

 --------
 H2_H2_34
 --------
 Symbolic Z-matrix:
 Charge =  0 Multiplicity = 1

                         Standard orientation:
 ---------------------------------------------------------------------
 Center     Atomic      Atomic             Coordinates (Angstroms)
 Number     Number       Type             X           Y           Z
 ---------------------------------------------------------------------
      1          1           0       -0.134951   -1.348763   -0.000000
      2          1           0        0.277614   -0.734443   -0.000000
      3          1           0       -0.000000    0.678544    0.000000
      4          1           0       -0.142663    1.404662    0.000000
 ---------------------------------------------------------------------

 SCF Done:  E(RHF) =  -2.25191579148     A.U. after    7 cycles
 E2 =    -0.6641063678D-01 EUMP2 =    -0.23183264282584D+01
 CCSD(T)
 CCSD(T)= -0.23338285657D+01

 The electronic state is 1-A'.
 Alpha  occ. eigenvalues --   -0.65824  -0.54217
 Alpha virt. eigenvalues --    0.16302   0.21479   0.31663   0.37819   0.56256
 Alpha virt. eigenvalues --    0.61716   0.68360   0.72416   0.74894   0.81938
 Alpha virt. eigenvalues --    1.03086   1.04432   1.19630   1.29955   1.34497

 Mulliken charges:
               1
     1  H    0.006712
     2  H   -0.001456
     3  H   -0.003610
     4  H   -0.001646
 Sum of Mulliken charges =   0.00000

 Dipole moment (field-independent basis, Debye):
    X=             -0.0243    Y=             -0.0666    Z=             -0.0000  Tot=              0.0709
 Quadrupole moment (field-independent basis, Debye-Ang):
   XX=             -3.8649   YY=             -3.4942   ZZ=             -4.0790
   XY=              0.2042   XZ=              0.0000   YZ=              0.0000

 23746\MP4SDQ=-2.3325169\CCSD=-2.3335275\CCSD(T)=-2.3338286\RMSD=7.198e
 Normal termination of Gaussian 16 at Fri Feb  9 17:39:26 2024.
