 Gaussian 16, Revision A.03,
 Gaussian 16:  ES64L-G16RevA.03 25-Dec-2016

 ------------------
 #p CCSD(T)/cc-pVTZ
 ------------------

 --------
 H2_H2_91
 --------
 Symbolic Z-matrix:
 Charge =  0 Multiplicity = 1

                         Standard orientation:
 ---------------------------------------------------------------------
 Center     Atomic      Atomic             Coordinates (Angstroms)
 Number     Number       Type             X           Y           Z
 ---------------------------------------------------------------------
      1          1           0       -0.181211   -1.713183    0.000000
      2          1           0        0.273057   -1.129024    0.000000
      3          1           0       -0.000000    1.053964    0.000000
      4          1           0       -0.091846    1.788242    0.000000
 ---------------------------------------------------------------------

 SCF Done:  E(RHF) =  -2.26467420900     A.U. after    7 cycles
 E2 =    -0.6399788244D-01 EUMP2 =    -0.23286720914377D+01
 CCSD(T)
 CCSD(T)= -0.23440988443D+01

 The electronic state is 1-A'.
 Alpha  occ. eigenvalues --   -0.61179  -0.58137
 Alpha virt. eigenvalues --    0.15844   0.20435   0.29508   0.38845   0.62224
 Alpha virt. eigenvalues --    0.65161   0.67089   0.69805   0.70746   0.74980
 Alpha virt. eigenvalues --    0.99086   1.05958   1.06105   1.17045   1.18963

 Mulliken charges:
               1
     1  H    0.010274
     2  H   -0.009174
     3  H    0.004146
     4  H   -0.005245
 Sum of Mulliken charges =  -0.00000

 Dipole moment (field-independent basis, Debye):
    X=             -0.0172    Y=             -0.0119    Z=             -0.0000  Tot=              0.0210
 Quadrupole moment (field-independent basis, Debye-Ang):
   XX=             -3.9236   YY=             -3.1766   ZZ=             -4.1692
   XY=              0.2355   XZ=             -0.0000   YZ=              0.0000

 427244\MP4SDQ=-2.3428682\CCSD=-2.344032\CCSD(T)=-2.3440988\RMSD=1.505e
 Normal termination of Gaussian 16 at Fri Feb  9 17:40:43 2024.
