 Gaussian 16, Revision A.03,
 Gaussian 16:  ES64L-G16RevA.03 25-Dec-2016

 ------------------
 #p CCSD(T)/cc-pVTZ
 ------------------

 --------
 H2_H2_62
 --------
 Symbolic Z-matrix:
 Charge =  0 Multiplicity = 1

                         Standard orientation:
 ---------------------------------------------------------------------
 Center     Atomic      Atomic             Coordinates (Angstroms)
 Number     Number       Type             X           Y           Z
 ---------------------------------------------------------------------
      1          1           0       -0.265522   -1.189432    0.000000
      2          1           0        0.450886   -1.004068    0.000000
      3          1           0        0.000000    0.738546    0.000000
      4          1           0       -0.185364    1.454954    0.000000
 ---------------------------------------------------------------------

 SCF Done:  E(RHF) =  -2.25832201442     A.U. after    7 cycles
 E2 =    -0.6530916185D-01 EUMP2 =    -0.23236311762753D+01
 CCSD(T)
 CCSD(T)= -0.23391207938D+01

 The electronic state is 1-A'.
 Alpha  occ. eigenvalues --   -0.63815  -0.55412
 Alpha virt. eigenvalues --    0.15865   0.20151   0.30528   0.35053   0.60699
 Alpha virt. eigenvalues --    0.63160   0.65166   0.70315   0.74185   0.83537
 Alpha virt. eigenvalues --    1.01619   1.09579   1.11657   1.17921   1.31078

 Mulliken charges:
               1
     1  H    0.004938
     2  H    0.004582
     3  H    0.013383
     4  H   -0.022903
 Sum of Mulliken charges =   0.00000

 Dipole moment (field-independent basis, Debye):
    X=             -0.0013    Y=             -0.1361    Z=              0.0000  Tot=              0.1361
 Quadrupole moment (field-independent basis, Debye-Ang):
   XX=             -3.4936   YY=             -3.8840   ZZ=             -4.1163
   XY=              0.0434   XZ=              0.0000   YZ=              0.0000

 CCSD=-2.3389413\CCSD(T)=-2.3391208\RMSD=2.786e-09\PG=CS [SG(H4)]\\@
 Normal termination of Gaussian 16 at Fri Feb  9 17:40:04 2024.
