 Gaussian 16, Revision A.03,
 Gaussian 16:  ES64L-G16RevA.03 25-Dec-2016

 ------------------
 #p CCSD(T)/cc-pVTZ
 ------------------

 ---------
 H2_H2_242
 ---------
 Symbolic Z-matrix:
 Charge =  0 Multiplicity = 1

                         Standard orientation:
 ---------------------------------------------------------------------
 Center     Atomic      Atomic             Coordinates (Angstroms)
 Number     Number       Type             X           Y           Z
 ---------------------------------------------------------------------
      1          1           0       -0.332707   -2.327779    0.000000
      2          1           0        0.403864   -2.256622    0.000000
      3          1           0        0.000000    1.923915    0.000000
      4          1           0       -0.071157    2.660486    0.000000
 ---------------------------------------------------------------------

 SCF Done:  E(RHF) =  -2.26594658804     A.U. after    6 cycles
 E2 =    -0.6337149694D-01 EUMP2 =    -0.23293180849855D+01
 CCSD(T)
 CCSD(T)= -0.23446965105D+01

 The electronic state is 1-A'.
 Alpha  occ. eigenvalues --   -0.59564  -0.59408
 Alpha virt. eigenvalues --    0.16233   0.16883   0.28717   0.33166   0.63990
 Alpha virt. eigenvalues --    0.64583   0.69204   0.69307   0.69319   0.70173
 Alpha virt. eigenvalues --    1.09710   1.09938   1.11948   1.11949   1.12051

 Mulliken charges:
               1
     1  H    0.000344
     2  H   -0.000343
     3  H    0.000409
     4  H   -0.000411
 Sum of Mulliken charges =  -0.00000

 Dipole moment (field-independent basis, Debye):
    X=             -0.0005    Y=             -0.0036    Z=              0.0000  Tot=              0.0037
 Quadrupole moment (field-independent basis, Debye-Ang):
   XX=             -3.5575   YY=             -3.5602   ZZ=             -4.1800
   XY=              0.0012   XZ=              0.0000   YZ=              0.0000

 4903\CCSD=-2.3446947\CCSD(T)=-2.3446965\RMSD=6.186e-09\PG=CS [SG(H4)]\
 Normal termination of Gaussian 16 at Fri Feb  9 17:44:07 2024.
