 Gaussian 16, Revision A.03,
 Gaussian 16:  ES64L-G16RevA.03 25-Dec-2016

 ------------------
 #p CCSD(T)/cc-pVTZ
 ------------------

 ---------
 H2_H2_265
 ---------
 Symbolic Z-matrix:
 Charge =  0 Multiplicity = 1

                         Standard orientation:
 ---------------------------------------------------------------------
 Center     Atomic      Atomic             Coordinates (Angstroms)
 Number     Number       Type             X           Y           Z
 ---------------------------------------------------------------------
      1          1           0       -0.223778   -2.855701   -0.000000
      2          1           0        0.267586   -2.302382    0.000000
      3          1           0       -0.000000    2.209691    0.000000
      4          1           0       -0.043808    2.948393   -0.000000
 ---------------------------------------------------------------------

 SCF Done:  E(RHF) =  -2.26592989841     A.U. after    6 cycles
 E2 =    -0.6336531153D-01 EUMP2 =    -0.23292952099363D+01
 CCSD(T)
 CCSD(T)= -0.23446737031D+01

 The electronic state is 1-A'.
 Alpha  occ. eigenvalues --   -0.59529  -0.59475
 Alpha virt. eigenvalues --    0.15007   0.18275   0.29391   0.31960   0.62510
 Alpha virt. eigenvalues --    0.67039   0.69223   0.69256   0.69257   0.69335
 Alpha virt. eigenvalues --    1.09601   1.09674   1.11963   1.11996   1.11997

 Mulliken charges:
               1
     1  H    0.000704
     2  H   -0.000701
     3  H   -0.000192
     4  H    0.000190
 Sum of Mulliken charges =   0.00000

 Dipole moment (field-independent basis, Debye):
    X=             -0.0014    Y=             -0.0011    Z=             -0.0000  Tot=              0.0018
 Quadrupole moment (field-independent basis, Debye-Ang):
   XX=             -3.9032   YY=             -3.1978   ZZ=             -4.1798
   XY=              0.2729   XZ=              0.0000   YZ=              0.0000

 3433192\MP4SDQ=-2.3434674\CCSD=-2.3446723\CCSD(T)=-2.3446737\RMSD=2.39
 Normal termination of Gaussian 16 at Fri Feb  9 17:44:39 2024.
