 Gaussian 16, Revision A.03,
 Gaussian 16:  ES64L-G16RevA.03 25-Dec-2016

 ------------------
 #p CCSD(T)/cc-pVTZ
 ------------------

 --------
 H2_H2_78
 --------
 Symbolic Z-matrix:
 Charge =  0 Multiplicity = 1

                         Standard orientation:
 ---------------------------------------------------------------------
 Center     Atomic      Atomic             Coordinates (Angstroms)
 Number     Number       Type             X           Y           Z
 ---------------------------------------------------------------------
      1          1           0        0.000000    0.000000    1.760000
      2          1           0        0.000000    0.000000    1.020000
      3          1           0        0.000000    0.000000   -1.020000
      4          1           0        0.000000    0.000000   -1.760000
 ---------------------------------------------------------------------

 SCF Done:  E(RHF) =  -2.26406637409     A.U. after    7 cycles
 E2 =    -0.6421112965D-01 EUMP2 =    -0.23282775037395D+01
 CCSD(T)
 CCSD(T)= -0.23437177694D+01

 The electronic state is 1-SGG.
 Alpha  occ. eigenvalues --   -0.61618  -0.57923
 Alpha virt. eigenvalues --    0.15878   0.21699   0.29575   0.46302   0.62963
 Alpha virt. eigenvalues --    0.66145   0.66282   0.66282   0.71090   0.71090
 Alpha virt. eigenvalues --    0.99313   1.03604   1.03604   1.22663   1.22663

 Mulliken charges:
               1
     1  H    0.001993
     2  H   -0.001993
     3  H   -0.001993
     4  H    0.001993
 Sum of Mulliken charges =  -0.00000

 Dipole moment (field-independent basis, Debye):
    X=             -0.0000    Y=             -0.0000    Z=              0.0000  Tot=              0.0000
 Quadrupole moment (field-independent basis, Debye-Ang):
   XX=             -4.1649   YY=             -4.1649   ZZ=             -2.8590
   XY=             -0.0000   XZ=             -0.0000   YZ=              0.0000

 4762\CCSD=-2.3436254\CCSD(T)=-2.3437178\RMSD=1.275e-09\PG=D*H [C*(H1H1
 Normal termination of Gaussian 16 at Fri Feb  9 17:40:26 2024.
