 Gaussian 16, Revision A.03,
 Gaussian 16:  ES64L-G16RevA.03 25-Dec-2016

 ------------------
 #p CCSD(T)/cc-pVTZ
 ------------------

 --------
 H2_H2_58
 --------
 Symbolic Z-matrix:
 Charge =  0 Multiplicity = 1

                         Standard orientation:
 ---------------------------------------------------------------------
 Center     Atomic      Atomic             Coordinates (Angstroms)
 Number     Number       Type             X           Y           Z
 ---------------------------------------------------------------------
      1          1           0       -0.159585   -1.500896    0.000000
      2          1           0        0.275363   -0.902214    0.000000
      3          1           0        0.000000    0.836112    0.000000
      4          1           0       -0.115778    1.566998    0.000000
 ---------------------------------------------------------------------

 SCF Done:  E(RHF) =  -2.26076558981     A.U. after    7 cycles
 E2 =    -0.6496195022D-01 EUMP2 =    -0.23257275400310D+01
 CCSD(T)
 CCSD(T)= -0.23411936148D+01

 The electronic state is 1-A'.
 Alpha  occ. eigenvalues --   -0.63102  -0.56469
 Alpha virt. eigenvalues --    0.16291   0.20973   0.30706   0.38405   0.58758
 Alpha virt. eigenvalues --    0.64139   0.66373   0.70400   0.72754   0.78095
 Alpha virt. eigenvalues --    1.01537   1.03362   1.10661   1.23265   1.26907

 Mulliken charges:
               1
     1  H    0.011225
     2  H   -0.008316
     3  H    0.001940
     4  H   -0.004848
 Sum of Mulliken charges =  -0.00000

 Dipole moment (field-independent basis, Debye):
    X=             -0.0233    Y=             -0.0328    Z=              0.0000  Tot=              0.0402
 Quadrupole moment (field-independent basis, Debye-Ang):
   XX=             -3.9037   YY=             -3.2892   ZZ=             -4.1345
   XY=              0.2168   XZ=              0.0000   YZ=              0.0000

 39789\MP4SDQ=-2.3399307\CCSD=-2.3410303\CCSD(T)=-2.3411936\RMSD=1.751e
 Normal termination of Gaussian 16 at Fri Feb  9 17:39:59 2024.
