 Gaussian 16, Revision A.03,
 Gaussian 16:  ES64L-G16RevA.03 25-Dec-2016

 ------------------
 #p CCSD(T)/cc-pVTZ
 ------------------

 ---------
 H2_H2_289
 ---------
 Symbolic Z-matrix:
 Charge =  0 Multiplicity = 1

                         Standard orientation:
 ---------------------------------------------------------------------
 Center     Atomic      Atomic             Coordinates (Angstroms)
 Number     Number       Type             X           Y           Z
 ---------------------------------------------------------------------
      1          1           0       -0.226359   -3.014539    0.000000
      2          1           0        0.267214   -2.463190    0.000000
      3          1           0        0.000000    2.369429    0.000000
      4          1           0       -0.040855    3.108300    0.000000
 ---------------------------------------------------------------------

 SCF Done:  E(RHF) =  -2.26593144998     A.U. after    6 cycles
 E2 =    -0.6336098435D-01 EUMP2 =    -0.23292924343313D+01
 CCSD(T)
 CCSD(T)= -0.23446704495D+01

 The electronic state is 1-A'.
 Alpha  occ. eigenvalues --   -0.59515  -0.59478
 Alpha virt. eigenvalues --    0.15435   0.17882   0.29711   0.31418   0.62777
 Alpha virt. eigenvalues --    0.66390   0.69231   0.69252   0.69259   0.69259
 Alpha virt. eigenvalues --    1.09589   1.09700   1.11971   1.11983   1.11999

 Mulliken charges:
               1
     1  H    0.000548
     2  H   -0.000546
     3  H   -0.000155
     4  H    0.000153
 Sum of Mulliken charges =   0.00000

 Dipole moment (field-independent basis, Debye):
    X=             -0.0011    Y=             -0.0009    Z=              0.0000  Tot=              0.0014
 Quadrupole moment (field-independent basis, Debye-Ang):
   XX=             -3.9010   YY=             -3.2023   ZZ=             -4.1798
   XY=              0.2755   XZ=             -0.0000   YZ=              0.0000

 3433161\MP4SDQ=-2.3434643\CCSD=-2.3446695\CCSD(T)=-2.3446704\RMSD=2.17
 Normal termination of Gaussian 16 at Fri Feb  9 17:45:12 2024.
