 Gaussian 16, Revision A.03,
 Gaussian 16:  ES64L-G16RevA.03 25-Dec-2016

 ------------------
 #p CCSD(T)/cc-pVTZ
 ------------------

 ---------
 H2_H2_299
 ---------
 Symbolic Z-matrix:
 Charge =  0 Multiplicity = 1

                         Standard orientation:
 ---------------------------------------------------------------------
 Center     Atomic      Atomic             Coordinates (Angstroms)
 Number     Number       Type             X           Y           Z
 ---------------------------------------------------------------------
      1          1           0       -0.339074   -2.700977    0.000000
      2          1           0        0.398533   -2.641519    0.000000
      3          1           0       -0.000000    2.302444    0.000000
      4          1           0       -0.059459    3.040052    0.000000
 ---------------------------------------------------------------------

 SCF Done:  E(RHF) =  -2.26594135738     A.U. after    6 cycles
 E2 =    -0.6335869153D-01 EUMP2 =    -0.23293000489117D+01
 CCSD(T)
 CCSD(T)= -0.23446773795D+01

 The electronic state is 1-A'.
 Alpha  occ. eigenvalues --   -0.59517  -0.59443
 Alpha virt. eigenvalues --    0.16522   0.16818   0.29603   0.31534   0.64199
 Alpha virt. eigenvalues --    0.64651   0.69228   0.69271   0.69293   0.69294
 Alpha virt. eigenvalues --    1.09520   1.09855   1.11966   1.11971   1.12036

 Mulliken charges:
               1
     1  H    0.000145
     2  H   -0.000141
     3  H    0.000261
     4  H   -0.000265
 Sum of Mulliken charges =  -0.00000

 Dipole moment (field-independent basis, Debye):
    X=             -0.0002    Y=             -0.0021    Z=              0.0000  Tot=              0.0021
 Quadrupole moment (field-independent basis, Debye-Ang):
   XX=             -3.5576   YY=             -3.5584   ZZ=             -4.1799
   XY=              0.0006   XZ=              0.0000   YZ=              0.0000

 4\CCSD=-2.3446767\CCSD(T)=-2.3446774\RMSD=2.722e-09\PG=CS [SG(H4)]\\@
 Normal termination of Gaussian 16 at Fri Feb  9 17:45:26 2024.
