 Gaussian 16, Revision A.03,
 Gaussian 16:  ES64L-G16RevA.03 25-Dec-2016

 ------------------
 #p CCSD(T)/cc-pVTZ
 ------------------

 ---------
 H2_H2_100
 ---------
 Symbolic Z-matrix:
 Charge =  0 Multiplicity = 1

                         Standard orientation:
 ---------------------------------------------------------------------
 Center     Atomic      Atomic             Coordinates (Angstroms)
 Number     Number       Type             X           Y           Z
 ---------------------------------------------------------------------
      1          1           0       -0.185615   -1.771517   -0.000000
      2          1           0        0.272549   -1.190410   -0.000000
      3          1           0       -0.000000    1.113526    0.000000
      4          1           0       -0.086934    1.848401    0.000000
 ---------------------------------------------------------------------

 SCF Done:  E(RHF) =  -2.26508240529     A.U. after    7 cycles
 E2 =    -0.6385456024D-01 EUMP2 =    -0.23289369655268D+01
 CCSD(T)
 CCSD(T)= -0.23443555106D+01

 The electronic state is 1-A'.
 Alpha  occ. eigenvalues --   -0.60865  -0.58410
 Alpha virt. eigenvalues --    0.15676   0.20321   0.29279   0.38790   0.62045
 Alpha virt. eigenvalues --    0.66268   0.67637   0.69796   0.70374   0.74664
 Alpha virt. eigenvalues --    0.98566   1.06745   1.07015   1.15838   1.17387

 Mulliken charges:
               1
     1  H    0.009338
     2  H   -0.008516
     3  H    0.003556
     4  H   -0.004378
 Sum of Mulliken charges =  -0.00000

 Dipole moment (field-independent basis, Debye):
    X=             -0.0156    Y=             -0.0090    Z=             -0.0000  Tot=              0.0180
 Quadrupole moment (field-independent basis, Debye-Ang):
   XX=             -3.9251   YY=             -3.1649   ZZ=             -4.1736
   XY=              0.2399   XZ=             -0.0000   YZ=             -0.0000

 429857\MP4SDQ=-2.3431302\CCSD=-2.3443034\CCSD(T)=-2.3443555\RMSD=1.522
 Normal termination of Gaussian 16 at Fri Feb  9 17:40:55 2024.
