 Gaussian 16, Revision A.03,
 Gaussian 16:  ES64L-G16RevA.03 25-Dec-2016

 ------------------
 #p CCSD(T)/cc-pVTZ
 ------------------

 ---------
 H2_H2_268
 ---------
 Symbolic Z-matrix:
 Charge =  0 Multiplicity = 1

                         Standard orientation:
 ---------------------------------------------------------------------
 Center     Atomic      Atomic             Coordinates (Angstroms)
 Number     Number       Type             X           Y           Z
 ---------------------------------------------------------------------
      1          1           0       -0.224121   -2.875547    0.000000
      2          1           0        0.267537   -2.322489   -0.000000
      3          1           0       -0.000000    2.229656    0.000000
      4          1           0       -0.043416    2.968381    0.000000
 ---------------------------------------------------------------------

 SCF Done:  E(RHF) =  -2.26593012039     A.U. after    6 cycles
 E2 =    -0.6336465426D-01 EUMP2 =    -0.23292947746478D+01
 CCSD(T)
 CCSD(T)= -0.23446731944D+01

 The electronic state is 1-A'.
 Alpha  occ. eigenvalues --   -0.59527  -0.59475
 Alpha virt. eigenvalues --    0.15061   0.18224   0.29433   0.31881   0.62532
 Alpha virt. eigenvalues --    0.66965   0.69224   0.69257   0.69257   0.69316
 Alpha virt. eigenvalues --    1.09620   1.09658   1.11964   1.11997   1.11997

 Mulliken charges:
               1
     1  H    0.000681
     2  H   -0.000678
     3  H   -0.000187
     4  H    0.000184
 Sum of Mulliken charges =  -0.00000

 Dipole moment (field-independent basis, Debye):
    X=             -0.0013    Y=             -0.0011    Z=              0.0000  Tot=              0.0017
 Quadrupole moment (field-independent basis, Debye-Ang):
   XX=             -3.9029   YY=             -3.1984   ZZ=             -4.1798
   XY=              0.2732   XZ=             -0.0000   YZ=             -0.0000

 433187\MP4SDQ=-2.3434669\CCSD=-2.3446719\CCSD(T)=-2.3446732\RMSD=2.364
 Normal termination of Gaussian 16 at Fri Feb  9 17:44:43 2024.
