 Gaussian 16, Revision A.03,
 Gaussian 16:  ES64L-G16RevA.03 25-Dec-2016

 ------------------
 #p CCSD(T)/cc-pVTZ
 ------------------

 ---------
 H2_H2_156
 ---------
 Symbolic Z-matrix:
 Charge =  0 Multiplicity = 1

                         Standard orientation:
 ---------------------------------------------------------------------
 Center     Atomic      Atomic             Coordinates (Angstroms)
 Number     Number       Type             X           Y           Z
 ---------------------------------------------------------------------
      1          1           0        0.000000    0.000000    2.280000
      2          1           0        0.000000    0.000000    1.540000
      3          1           0        0.000000    0.000000   -1.540000
      4          1           0        0.000000    0.000000   -2.280000
 ---------------------------------------------------------------------

 SCF Done:  E(RHF) =  -2.26584672420     A.U. after    6 cycles
 E2 =    -0.6346829354D-01 EUMP2 =    -0.23293150177464D+01
 CCSD(T)
 CCSD(T)= -0.23447065294D+01

 The electronic state is 1-SGG.
 Alpha  occ. eigenvalues --   -0.59869  -0.59314
 Alpha virt. eigenvalues --    0.13977   0.20853   0.28666   0.37711   0.66832
 Alpha virt. eigenvalues --    0.67849   0.69036   0.69036   0.69282   0.69282
 Alpha virt. eigenvalues --    1.09061   1.11207   1.11207   1.11425   1.12573

 Mulliken charges:
               1
     1  H    0.000666
     2  H   -0.000666
     3  H   -0.000666
     4  H    0.000666
 Sum of Mulliken charges =  -0.00000

 Dipole moment (field-independent basis, Debye):
    X=             -0.0000    Y=             -0.0000    Z=             -0.0000  Tot=              0.0000
 Quadrupole moment (field-independent basis, Debye-Ang):
   XX=             -4.1814   YY=             -4.1814   ZZ=             -2.8611
   XY=             -0.0000   XZ=             -0.0000   YZ=              0.0000

 4956\CCSD=-2.3446941\CCSD(T)=-2.3447065\RMSD=6.428e-09\PG=D*H [C*(H1H1
 Normal termination of Gaussian 16 at Fri Feb  9 17:42:10 2024.
