 Gaussian 16, Revision A.03,
 Gaussian 16:  ES64L-G16RevA.03 25-Dec-2016

 ------------------
 #p CCSD(T)/cc-pVTZ
 ------------------

 --------
 H2_H2_84
 --------
 Symbolic Z-matrix:
 Charge =  0 Multiplicity = 1

                         Standard orientation:
 ---------------------------------------------------------------------
 Center     Atomic      Atomic             Coordinates (Angstroms)
 Number     Number       Type             X           Y           Z
 ---------------------------------------------------------------------
      1          1           0        0.000000    0.000000    1.800000
      2          1           0        0.000000    0.000000    1.060000
      3          1           0        0.000000    0.000000   -1.060000
      4          1           0        0.000000    0.000000   -1.800000
 ---------------------------------------------------------------------

 SCF Done:  E(RHF) =  -2.26448046729     A.U. after    7 cycles
 E2 =    -0.6408137931D-01 EUMP2 =    -0.23285618465970D+01
 CCSD(T)
 CCSD(T)= -0.23439963925D+01

 The electronic state is 1-SGG.
 Alpha  occ. eigenvalues --   -0.61347  -0.58147
 Alpha virt. eigenvalues --    0.15723   0.21620   0.29415   0.45557   0.64230
 Alpha virt. eigenvalues --    0.65757   0.66747   0.66747   0.70807   0.70807
 Alpha virt. eigenvalues --    0.98091   1.04376   1.04376   1.21111   1.21111

 Mulliken charges:
               1
     1  H    0.000416
     2  H   -0.000416
     3  H   -0.000416
     4  H    0.000416
 Sum of Mulliken charges =  -0.00000

 Dipole moment (field-independent basis, Debye):
    X=             -0.0000    Y=              0.0000    Z=              0.0000  Tot=              0.0000
 Quadrupole moment (field-independent basis, Debye-Ang):
   XX=             -4.1689   YY=             -4.1689   ZZ=             -2.8492
   XY=             -0.0000   XZ=             -0.0000   YZ=              0.0000

 27596\CCSD=-2.3439178\CCSD(T)=-2.3439964\RMSD=1.252e-09\PG=D*H [C*(H1H
 Normal termination of Gaussian 16 at Fri Feb  9 17:40:34 2024.
