 Gaussian 16, Revision A.03,
 Gaussian 16:  ES64L-G16RevA.03 25-Dec-2016

 ------------------
 #p CCSD(T)/cc-pVTZ
 ------------------

 ---------
 H2_H2_127
 ---------
 Symbolic Z-matrix:
 Charge =  0 Multiplicity = 1

                         Standard orientation:
 ---------------------------------------------------------------------
 Center     Atomic      Atomic             Coordinates (Angstroms)
 Number     Number       Type             X           Y           Z
 ---------------------------------------------------------------------
      1          1           0       -0.196356   -1.947318   -0.000000
      2          1           0        0.271255   -1.373785   -0.000000
      3          1           0       -0.000000    1.292452    0.000000
      4          1           0       -0.074899    2.028652    0.000000
 ---------------------------------------------------------------------

 SCF Done:  E(RHF) =  -2.26567407255     A.U. after    7 cycles
 E2 =    -0.6359369203D-01 EUMP2 =    -0.23292677645801D+01
 CCSD(T)
 CCSD(T)= -0.23446684585D+01

 The electronic state is 1-A'.
 Alpha  occ. eigenvalues --   -0.60234  -0.58949
 Alpha virt. eigenvalues --    0.15136   0.20036   0.28793   0.38149   0.61820
 Alpha virt. eigenvalues --    0.67376   0.68640   0.69646   0.69688   0.74784
 Alpha virt. eigenvalues --    1.02398   1.08775   1.09723   1.13278   1.14151

 Mulliken charges:
               1
     1  H    0.006573
     2  H   -0.006273
     3  H    0.001239
     4  H   -0.001539
 Sum of Mulliken charges =  -0.00000

 Dipole moment (field-independent basis, Debye):
    X=             -0.0112    Y=             -0.0041    Z=             -0.0000  Tot=              0.0119
 Quadrupole moment (field-independent basis, Debye-Ang):
   XX=             -3.9241   YY=             -3.1541   ZZ=             -4.1799
   XY=              0.2504   XZ=             -0.0000   YZ=              0.0000

 33074\MP4SDQ=-2.3434533\CCSD=-2.3446435\CCSD(T)=-2.3446685\RMSD=1.808e
 Normal termination of Gaussian 16 at Fri Feb  9 17:41:32 2024.
