 Gaussian 16, Revision A.03,
 Gaussian 16:  ES64L-G16RevA.03 25-Dec-2016

 ------------------
 #p CCSD(T)/cc-pVTZ
 ------------------

 ---------
 H2_H2_211
 ---------
 Symbolic Z-matrix:
 Charge =  0 Multiplicity = 1

                         Standard orientation:
 ---------------------------------------------------------------------
 Center     Atomic      Atomic             Coordinates (Angstroms)
 Number     Number       Type             X           Y           Z
 ---------------------------------------------------------------------
      1          1           0       -0.216323   -2.498989   -0.000000
      2          1           0        0.268636   -1.940048   -0.000000
      3          1           0        0.000000    1.850445    0.000000
      4          1           0       -0.052313    2.588593    0.000000
 ---------------------------------------------------------------------

 SCF Done:  E(RHF) =  -2.26592285894     A.U. after    6 cycles
 E2 =    -0.6338781274D-01 EUMP2 =    -0.23293106716739D+01
 CCSD(T)
 CCSD(T)= -0.23446917727D+01

 The electronic state is 1-A'.
 Alpha  occ. eigenvalues --   -0.59606  -0.59435
 Alpha virt. eigenvalues --    0.14299   0.19149   0.28699   0.33972   0.63122
 Alpha virt. eigenvalues --    0.66880   0.69197   0.69250   0.69254   0.70717
 Alpha virt. eigenvalues --    1.08891   1.10345   1.11919   1.11992   1.12005

 Mulliken charges:
               1
     1  H    0.001511
     2  H   -0.001512
     3  H   -0.000289
     4  H    0.000289
 Sum of Mulliken charges =  -0.00000

 Dipole moment (field-independent basis, Debye):
    X=             -0.0030    Y=             -0.0016    Z=             -0.0000  Tot=              0.0034
 Quadrupole moment (field-independent basis, Debye-Ang):
   XX=             -3.9095   YY=             -3.1836   ZZ=             -4.1801
   XY=              0.2665   XZ=             -0.0000   YZ=              0.0000

 3433368\MP4SDQ=-2.3434847\CCSD=-2.3446881\CCSD(T)=-2.3446918\RMSD=3.64
 Normal termination of Gaussian 16 at Fri Feb  9 17:43:25 2024.
