 Gaussian 16, Revision A.03,
 Gaussian 16:  ES64L-G16RevA.03 25-Dec-2016

 ------------------
 #p CCSD(T)/cc-pVTZ
 ------------------

 ---------
 H2_H2_145
 ---------
 Symbolic Z-matrix:
 Charge =  0 Multiplicity = 1

                         Standard orientation:
 ---------------------------------------------------------------------
 Center     Atomic      Atomic             Coordinates (Angstroms)
 Number     Number       Type             X           Y           Z
 ---------------------------------------------------------------------
      1          1           0       -0.201982   -2.065041   -0.000000
      2          1           0        0.270545   -1.495552   -0.000000
      3          1           0        0.000000    1.411888    0.000000
      4          1           0       -0.068563    2.148705    0.000000
 ---------------------------------------------------------------------

 SCF Done:  E(RHF) =  -2.26581635131     A.U. after    7 cycles
 E2 =    -0.6350502486D-01 EUMP2 =    -0.23293213761636D+01
 CCSD(T)
 CCSD(T)= -0.23447145598D+01

 The electronic state is 1-A'.
 Alpha  occ. eigenvalues --   -0.59986  -0.59153
 Alpha virt. eigenvalues --    0.14790   0.19874   0.28601   0.37392   0.62461
 Alpha virt. eigenvalues --    0.66737   0.68944   0.69412   0.69450   0.74188
 Alpha virt. eigenvalues --    1.06839   1.09313   1.10831   1.12406   1.13016

 Mulliken charges:
               1
     1  H    0.004966
     2  H   -0.004841
     3  H    0.000352
     4  H   -0.000477
 Sum of Mulliken charges =  -0.00000

 Dipole moment (field-independent basis, Debye):
    X=             -0.0087    Y=             -0.0027    Z=             -0.0000  Tot=              0.0091
 Quadrupole moment (field-independent basis, Debye-Ang):
   XX=             -3.9212   YY=             -3.1578   ZZ=             -4.1809
   XY=              0.2555   XZ=             -0.0000   YZ=              0.0000

 3433563\MP4SDQ=-2.3435029\CCSD=-2.3446988\CCSD(T)=-2.3447146\RMSD=1.83
 Normal termination of Gaussian 16 at Fri Feb  9 17:41:56 2024.
