 Gaussian 16, Revision A.03,
 Gaussian 16:  ES64L-G16RevA.03 25-Dec-2016

 ------------------
 #p CCSD(T)/cc-pVTZ
 ------------------

 ---------
 H2_H2_170
 ---------
 Symbolic Z-matrix:
 Charge =  0 Multiplicity = 1

                         Standard orientation:
 ---------------------------------------------------------------------
 Center     Atomic      Atomic             Coordinates (Angstroms)
 Number     Number       Type             X           Y           Z
 ---------------------------------------------------------------------
      1          1           0       -0.319654   -1.861148    0.000000
      2          1           0        0.414272   -1.766530    0.000000
      3          1           0       -0.000000    1.446876    0.000000
      4          1           0       -0.094618    2.180802    0.000000
 ---------------------------------------------------------------------

 SCF Done:  E(RHF) =  -2.26591588961     A.U. after    7 cycles
 E2 =    -0.6345209359D-01 EUMP2 =    -0.23293679832017D+01
 CCSD(T)
 CCSD(T)= -0.23447540429D+01

 The electronic state is 1-A'.
 Alpha  occ. eigenvalues --   -0.59850  -0.59156
 Alpha virt. eigenvalues --    0.16216   0.17241   0.28390   0.35448   0.61805
 Alpha virt. eigenvalues --    0.63966   0.69089   0.69395   0.69733   0.76505
 Alpha virt. eigenvalues --    1.08089   1.10864   1.11841   1.12144   1.12723

 Mulliken charges:
               1
     1  H    0.001524
     2  H   -0.001330
     3  H    0.000690
     4  H   -0.000884
 Sum of Mulliken charges =   0.00000

 Dipole moment (field-independent basis, Debye):
    X=             -0.0018    Y=             -0.0092    Z=              0.0000  Tot=              0.0093
 Quadrupole moment (field-independent basis, Debye-Ang):
   XX=             -3.5574   YY=             -3.5697   ZZ=             -4.1803
   XY=              0.0028   XZ=              0.0000   YZ=              0.0000

 5457\CCSD=-2.3447447\CCSD(T)=-2.344754\RMSD=2.383e-09\PG=CS [SG(H4)]\\
 Normal termination of Gaussian 16 at Fri Feb  9 17:42:29 2024.
