 Gaussian 16, Revision A.03,
 Gaussian 16:  ES64L-G16RevA.03 25-Dec-2016

 ------------------
 #p CCSD(T)/cc-pVTZ
 ------------------

 ---------
 H2_H2_279
 ---------
 Symbolic Z-matrix:
 Charge =  0 Multiplicity = 1

                         Standard orientation:
 ---------------------------------------------------------------------
 Center     Atomic      Atomic             Coordinates (Angstroms)
 Number     Number       Type             X           Y           Z
 ---------------------------------------------------------------------
      1          1           0        0.000000    0.000000    3.100000
      2          1           0        0.000000    0.000000    2.360000
      3          1           0        0.000000    0.000000   -2.360000
      4          1           0        0.000000    0.000000   -3.100000
 ---------------------------------------------------------------------

 SCF Done:  E(RHF) =  -2.26592415232     A.U. after    6 cycles
 E2 =    -0.6336385689D-01 EUMP2 =    -0.23292880092139D+01
 CCSD(T)
 CCSD(T)= -0.23446666456D+01

 The electronic state is 1-SGG.
 Alpha  occ. eigenvalues --   -0.59524  -0.59498
 Alpha virt. eigenvalues --    0.14940   0.18339   0.29671   0.31509   0.62244
 Alpha virt. eigenvalues --    0.67280   0.69230   0.69230   0.69231   0.69231
 Alpha virt. eigenvalues --    1.09579   1.09667   1.11969   1.11969   1.11969

 Mulliken charges:
               1
     1  H    0.000491
     2  H   -0.000491
     3  H   -0.000491
     4  H    0.000491
 Sum of Mulliken charges =  -0.00000

 Dipole moment (field-independent basis, Debye):
    X=              0.0000    Y=             -0.0000    Z=              0.0000  Tot=              0.0000
 Quadrupole moment (field-independent basis, Debye-Ang):
   XX=             -4.1797   YY=             -4.1797   ZZ=             -2.9130
   XY=             -0.0000   XZ=             -0.0000   YZ=              0.0000

 34603\CCSD=-2.3446654\CCSD(T)=-2.3446666\RMSD=3.005e-09\PG=D*H [C*(H1H
 Normal termination of Gaussian 16 at Fri Feb  9 17:44:59 2024.
