 Gaussian 16, Revision A.03,
 Gaussian 16:  ES64L-G16RevA.03 25-Dec-2016

 ------------------
 #p CCSD(T)/cc-pVTZ
 ------------------

 ---------
 H2_H2_105
 ---------
 Symbolic Z-matrix:
 Charge =  0 Multiplicity = 1

                         Standard orientation:
 ---------------------------------------------------------------------
 Center     Atomic      Atomic             Coordinates (Angstroms)
 Number     Number       Type             X           Y           Z
 ---------------------------------------------------------------------
      1          1           0        0.000000    0.000000    1.940000
      2          1           0        0.000000    0.000000    1.200000
      3          1           0        0.000000    0.000000   -1.200000
      4          1           0        0.000000    0.000000   -1.940000
 ---------------------------------------------------------------------

 SCF Done:  E(RHF) =  -2.26532629572     A.U. after    7 cycles
 E2 =    -0.6376491059D-01 EUMP2 =    -0.23290912063121D+01
 CCSD(T)
 CCSD(T)= -0.23445079571D+01

 The electronic state is 1-SGG.
 Alpha  occ. eigenvalues --   -0.60648  -0.58718
 Alpha virt. eigenvalues --    0.15159   0.21392   0.29018   0.43008   0.65268
 Alpha virt. eigenvalues --    0.67964   0.67964   0.68185   0.70035   0.70035
 Alpha virt. eigenvalues --    0.96970   1.07221   1.07221   1.16874   1.16874

 Mulliken charges:
               1
     1  H   -0.001665
     2  H    0.001665
     3  H    0.001665
     4  H   -0.001665
 Sum of Mulliken charges =   0.00000

 Dipole moment (field-independent basis, Debye):
    X=             -0.0000    Y=              0.0000    Z=              0.0000  Tot=              0.0000
 Quadrupole moment (field-independent basis, Debye-Ang):
   XX=             -4.1777   YY=             -4.1777   ZZ=             -2.8356
   XY=             -0.0000   XZ=             -0.0000   YZ=              0.0000

 32838\CCSD=-2.3444633\CCSD(T)=-2.344508\RMSD=1.392e-09\PG=D*H [C*(H1H1
 Normal termination of Gaussian 16 at Fri Feb  9 17:41:02 2024.
