 Gaussian 16, Revision A.03,
 Gaussian 16:  ES64L-G16RevA.03 25-Dec-2016

 ------------------
 #p CCSD(T)/cc-pVTZ
 ------------------

 ---------
 H2_H2_236
 ---------
 Symbolic Z-matrix:
 Charge =  0 Multiplicity = 1

                         Standard orientation:
 ---------------------------------------------------------------------
 Center     Atomic      Atomic             Coordinates (Angstroms)
 Number     Number       Type             X           Y           Z
 ---------------------------------------------------------------------
      1          1           0       -0.331882   -2.288647    0.000000
      2          1           0        0.404542   -2.215986    0.000000
      3          1           0        0.000000    1.884105    0.000000
      4          1           0       -0.072661    2.620529    0.000000
 ---------------------------------------------------------------------

 SCF Done:  E(RHF) =  -2.26594721891     A.U. after    6 cycles
 E2 =    -0.6337409455D-01 EUMP2 =    -0.23293213134584D+01
 CCSD(T)
 CCSD(T)= -0.23446999914D+01

 The electronic state is 1-A'.
 Alpha  occ. eigenvalues --   -0.59574  -0.59401
 Alpha virt. eigenvalues --    0.16204   0.16892   0.28636   0.33387   0.63920
 Alpha virt. eigenvalues --    0.64515   0.69201   0.69309   0.69327   0.70442
 Alpha virt. eigenvalues --    1.09682   1.10013   1.11945   1.11946   1.12053

 Mulliken charges:
               1
     1  H    0.000383
     2  H   -0.000383
     3  H    0.000430
     4  H   -0.000430
 Sum of Mulliken charges =  -0.00000

 Dipole moment (field-independent basis, Debye):
    X=             -0.0006    Y=             -0.0038    Z=              0.0000  Tot=              0.0039
 Quadrupole moment (field-independent basis, Debye-Ang):
   XX=             -3.5575   YY=             -3.5606   ZZ=             -4.1800
   XY=              0.0012   XZ=              0.0000   YZ=              0.0000

 34937\CCSD=-2.3446979\CCSD(T)=-2.3447\RMSD=6.847e-09\PG=CS [SG(H4)]\\@
 Normal termination of Gaussian 16 at Fri Feb  9 17:43:59 2024.
