 Gaussian 16, Revision A.03,
 Gaussian 16:  ES64L-G16RevA.03 25-Dec-2016

 ------------------
 #p CCSD(T)/cc-pVTZ
 ------------------

 ---------
 H2_H2_166
 ---------
 Symbolic Z-matrix:
 Charge =  0 Multiplicity = 1

                         Standard orientation:
 ---------------------------------------------------------------------
 Center     Atomic      Atomic             Coordinates (Angstroms)
 Number     Number       Type             X           Y           Z
 ---------------------------------------------------------------------
      1          1           0       -0.207436   -2.202782   -0.000000
      2          1           0        0.269836   -1.637263   -0.000000
      3          1           0       -0.000000    1.551340    0.000000
      4          1           0       -0.062400    2.288705    0.000000
 ---------------------------------------------------------------------

 SCF Done:  E(RHF) =  -2.26588586113     A.U. after    6 cycles
 E2 =    -0.6344505076D-01 EUMP2 =    -0.23293309118946D+01
 CCSD(T)
 CCSD(T)= -0.23447182964D+01

 The electronic state is 1-A'.
 Alpha  occ. eigenvalues --   -0.59800  -0.59298
 Alpha virt. eigenvalues --    0.14467   0.19682   0.28503   0.36321   0.63713
 Alpha virt. eigenvalues --    0.65697   0.69107   0.69290   0.69311   0.73015
 Alpha virt. eigenvalues --    1.09017   1.10063   1.11515   1.12055   1.12357

 Mulliken charges:
               1
     1  H    0.003437
     2  H   -0.003407
     3  H   -0.000078
     4  H    0.000048
 Sum of Mulliken charges =  -0.00000

 Dipole moment (field-independent basis, Debye):
    X=             -0.0063    Y=             -0.0020    Z=             -0.0000  Tot=              0.0066
 Quadrupole moment (field-independent basis, Debye-Ang):
   XX=             -3.9172   YY=             -3.1660   ZZ=             -4.1809
   XY=              0.2599   XZ=             -0.0000   YZ=              0.0000

 3433618\MP4SDQ=-2.3435091\CCSD=-2.3447088\CCSD(T)=-2.3447183\RMSD=9.09
 Normal termination of Gaussian 16 at Fri Feb  9 17:42:24 2024.
