 Gaussian 16, Revision A.03,
 Gaussian 16:  ES64L-G16RevA.03 25-Dec-2016

 ------------------
 #p CCSD(T)/cc-pVTZ
 ------------------

 ---------
 H2_H2_301
 ---------
 Symbolic Z-matrix:
 Charge =  0 Multiplicity = 1

                         Standard orientation:
 ---------------------------------------------------------------------
 Center     Atomic      Atomic             Coordinates (Angstroms)
 Number     Number       Type             X           Y           Z
 ---------------------------------------------------------------------
      1          1           0       -0.227522   -3.094012   -0.000000
      2          1           0        0.267044   -2.543553   -0.000000
      3          1           0        0.000000    2.449311    0.000000
      4          1           0       -0.039523    3.188254    0.000000
 ---------------------------------------------------------------------

 SCF Done:  E(RHF) =  -2.26593204590     A.U. after    6 cycles
 E2 =    -0.6335945400D-01 EUMP2 =    -0.23292914998911D+01
 CCSD(T)
 CCSD(T)= -0.23446693488D+01

 The electronic state is 1-A'.
 Alpha  occ. eigenvalues --   -0.59510  -0.59478
 Alpha virt. eigenvalues --    0.15636   0.17702   0.29852   0.31215   0.62964
 Alpha virt. eigenvalues --    0.66065   0.69234   0.69242   0.69260   0.69260
 Alpha virt. eigenvalues --    1.09575   1.09715   1.11975   1.11979   1.12000

 Mulliken charges:
               1
     1  H    0.000488
     2  H   -0.000487
     3  H   -0.000140
     4  H    0.000139
 Sum of Mulliken charges =  -0.00000

 Dipole moment (field-independent basis, Debye):
    X=             -0.0010    Y=             -0.0008    Z=             -0.0000  Tot=              0.0012
 Quadrupole moment (field-independent basis, Debye-Ang):
   XX=             -3.9000   YY=             -3.2042   ZZ=             -4.1798
   XY=              0.2767   XZ=              0.0000   YZ=              0.0000

 3315\MP4SDQ=-2.3434633\CCSD=-2.3446686\CCSD(T)=-2.3446693\RMSD=2.082e-
 Normal termination of Gaussian 16 at Fri Feb  9 17:45:29 2024.
