 Gaussian 16, Revision A.03,
 Gaussian 16:  ES64L-G16RevA.03 25-Dec-2016

 ------------------
 #p CCSD(T)/cc-pVTZ
 ------------------

 ---------
 H2_H2_226
 ---------
 Symbolic Z-matrix:
 Charge =  0 Multiplicity = 1

                         Standard orientation:
 ---------------------------------------------------------------------
 Center     Atomic      Atomic             Coordinates (Angstroms)
 Number     Number       Type             X           Y           Z
 ---------------------------------------------------------------------
      1          1           0       -0.218672   -2.597963   -0.000000
      2          1           0        0.268309   -2.040784   -0.000000
      3          1           0       -0.000000    1.950207    0.000000
      4          1           0       -0.049637    2.688540    0.000000
 ---------------------------------------------------------------------

 SCF Done:  E(RHF) =  -2.26592583750     A.U. after    6 cycles
 E2 =    -0.6337878735D-01 EUMP2 =    -0.23293046248542D+01
 CCSD(T)
 CCSD(T)= -0.23446846695D+01

 The electronic state is 1-A'.
 Alpha  occ. eigenvalues --   -0.59575  -0.59453
 Alpha virt. eigenvalues --    0.14419   0.18924   0.28862   0.33299   0.62734
 Alpha virt. eigenvalues --    0.67280   0.69206   0.69252   0.69253   0.70130
 Alpha virt. eigenvalues --    1.09126   1.10085   1.11942   1.11992   1.11994

 Mulliken charges:
               1
     1  H    0.001180
     2  H   -0.001179
     3  H   -0.000272
     4  H    0.000271
 Sum of Mulliken charges =  -0.00000

 Dipole moment (field-independent basis, Debye):
    X=             -0.0024    Y=             -0.0014    Z=             -0.0000  Tot=              0.0028
 Quadrupole moment (field-independent basis, Debye-Ang):
   XX=             -3.9075   YY=             -3.1883   ZZ=             -4.1799
   XY=              0.2683   XZ=             -0.0000   YZ=              0.0000

 3433299\MP4SDQ=-2.3434779\CCSD=-2.344682\CCSD(T)=-2.3446847\RMSD=3.042
 Normal termination of Gaussian 16 at Fri Feb  9 17:43:45 2024.
