 Gaussian 16, Revision A.03,
 Gaussian 16:  ES64L-G16RevA.03 25-Dec-2016

 ------------------
 #p CCSD(T)/cc-pVTZ
 ------------------

 --------
 H2_H2_23
 --------
 Symbolic Z-matrix:
 Charge =  0 Multiplicity = 1

                         Standard orientation:
 ---------------------------------------------------------------------
 Center     Atomic      Atomic             Coordinates (Angstroms)
 Number     Number       Type             X           Y           Z
 ---------------------------------------------------------------------
      1          1           0       -0.203391   -0.973284    0.000000
      2          1           0        0.482112   -0.694563    0.000000
      3          1           0       -0.000000    0.491172    0.000000
      4          1           0       -0.278721    1.176675    0.000000
 ---------------------------------------------------------------------

 SCF Done:  E(RHF) =  -2.22867256069     A.U. after    8 cycles
 E2 =    -0.6857404492D-01 EUMP2 =    -0.22972466056044D+01
 CCSD(T)
 CCSD(T)= -0.23128195986D+01

 The electronic state is 1-A'.
 Alpha  occ. eigenvalues --   -0.70231  -0.50049
 Alpha virt. eigenvalues --    0.14982   0.20930   0.30367   0.37370   0.58454
 Alpha virt. eigenvalues --    0.58974   0.66614   0.72343   0.79423   0.98326
 Alpha virt. eigenvalues --    1.06861   1.09104   1.13859   1.26836   1.46022

 Mulliken charges:
               1
     1  H    0.022740
     2  H    0.015350
     3  H    0.022662
     4  H   -0.060752
 Sum of Mulliken charges =  -0.00000

 Dipole moment (field-independent basis, Debye):
    X=              0.0493    Y=             -0.3942    Z=              0.0000  Tot=              0.3973
 Quadrupole moment (field-independent basis, Debye-Ang):
   XX=             -3.4016   YY=             -4.4903   ZZ=             -3.9967
   XY=              0.2164   XZ=              0.0000   YZ=              0.0000

 4505\CCSD=-2.3123684\CCSD(T)=-2.3128196\RMSD=1.633e-09\PG=CS [SG(H4)]\
 Normal termination of Gaussian 16 at Fri Feb  9 17:39:11 2024.
