 Gaussian 16, Revision A.03,
 Gaussian 16:  ES64L-G16RevA.03 25-Dec-2016

 ------------------
 #p CCSD(T)/cc-pVTZ
 ------------------

 --------
 H2_H2_54
 --------
 Symbolic Z-matrix:
 Charge =  0 Multiplicity = 1

                         Standard orientation:
 ---------------------------------------------------------------------
 Center     Atomic      Atomic             Coordinates (Angstroms)
 Number     Number       Type             X           Y           Z
 ---------------------------------------------------------------------
      1          1           0        0.000000    0.000000    1.600000
      2          1           0        0.000000    0.000000    0.860000
      3          1           0        0.000000    0.000000   -0.860000
      4          1           0        0.000000    0.000000   -1.600000
 ---------------------------------------------------------------------

 SCF Done:  E(RHF) =  -2.26085022588     A.U. after    7 cycles
 E2 =    -0.6500068169D-01 EUMP2 =    -0.23258509075637D+01
 CCSD(T)
 CCSD(T)= -0.23413144064D+01

 The electronic state is 1-SGG.
 Alpha  occ. eigenvalues --   -0.63177  -0.56636
 Alpha virt. eigenvalues --    0.16405   0.22102   0.30477   0.49238   0.58416
 Alpha virt. eigenvalues --    0.64050   0.64050   0.68972   0.72517   0.72517
 Alpha virt. eigenvalues --    1.01691   1.01691   1.06188   1.30477   1.30477

 Mulliken charges:
               1
     1  H    0.013608
     2  H   -0.013608
     3  H   -0.013608
     4  H    0.013608
 Sum of Mulliken charges =  -0.00000

 Dipole moment (field-independent basis, Debye):
    X=             -0.0000    Y=             -0.0000    Z=             -0.0000  Tot=              0.0000
 Quadrupole moment (field-independent basis, Debye-Ang):
   XX=             -4.1374   YY=             -4.1374   ZZ=             -2.9417
   XY=             -0.0000   XZ=             -0.0000   YZ=              0.0000

 00457\CCSD=-2.3411399\CCSD(T)=-2.3413144\RMSD=1.145e-09\PG=D*H [C*(H1H
 Normal termination of Gaussian 16 at Fri Feb  9 17:39:53 2024.
