 Gaussian 16, Revision A.03,
 Gaussian 16:  ES64L-G16RevA.03 25-Dec-2016

 ------------------
 #p CCSD(T)/cc-pVTZ
 ------------------

 ---------
 H2_H2_190
 ---------
 Symbolic Z-matrix:
 Charge =  0 Multiplicity = 1

                         Standard orientation:
 ---------------------------------------------------------------------
 Center     Atomic      Atomic             Coordinates (Angstroms)
 Number     Number       Type             X           Y           Z
 ---------------------------------------------------------------------
      1          1           0       -0.212567   -2.360609    0.000000
      2          1           0        0.269150   -1.798872    0.000000
      3          1           0        0.000000    1.710823   -0.000000
      4          1           0       -0.056583    2.448657   -0.000000
 ---------------------------------------------------------------------

 SCF Done:  E(RHF) =  -2.26591414931     A.U. after    6 cycles
 E2 =    -0.6340698364D-01 EUMP2 =    -0.23293211329530D+01
 CCSD(T)
 CCSD(T)= -0.23447044335D+01

 The electronic state is 1-A'.
 Alpha  occ. eigenvalues --   -0.59673  -0.59391
 Alpha virt. eigenvalues --    0.14276   0.19425   0.28545   0.35030   0.63885
 Alpha virt. eigenvalues --    0.65917   0.69176   0.69252   0.69263   0.71703
 Alpha virt. eigenvalues --    1.08744   1.10693   1.11828   1.11998   1.12074

 Mulliken charges:
               1
     1  H    0.002205
     2  H   -0.002204
     3  H   -0.000255
     4  H    0.000254
 Sum of Mulliken charges =   0.00000

 Dipole moment (field-independent basis, Debye):
    X=             -0.0043    Y=             -0.0017    Z=              0.0000  Tot=              0.0046
 Quadrupole moment (field-independent basis, Debye-Ang):
   XX=             -3.9128   YY=             -3.1760   ZZ=             -4.1804
   XY=              0.2637   XZ=             -0.0000   YZ=             -0.0000

 43349\MP4SDQ=-2.3434966\CCSD=-2.3446988\CCSD(T)=-2.3447044\RMSD=5.362e
 Normal termination of Gaussian 16 at Fri Feb  9 17:42:57 2024.
