 Gaussian 16, Revision A.03,
 Gaussian 16:  ES64L-G16RevA.03 25-Dec-2016

 ------------------
 #p CCSD(T)/cc-pVTZ
 ------------------

 ---------
 H2_H2_175
 ---------
 Symbolic Z-matrix:
 Charge =  0 Multiplicity = 1

                         Standard orientation:
 ---------------------------------------------------------------------
 Center     Atomic      Atomic             Coordinates (Angstroms)
 Number     Number       Type             X           Y           Z
 ---------------------------------------------------------------------
      1          1           0       -0.209481   -2.261921    0.000000
      2          1           0        0.269565   -1.697904    0.000000
      3          1           0        0.000000    1.611135   -0.000000
      4          1           0       -0.060084    2.348691   -0.000000
 ---------------------------------------------------------------------

 SCF Done:  E(RHF) =  -2.26590027582     A.U. after    6 cycles
 E2 =    -0.6342801473D-01 EUMP2 =    -0.23293282905558D+01
 CCSD(T)
 CCSD(T)= -0.23447138927D+01

 The electronic state is 1-A'.
 Alpha  occ. eigenvalues --   -0.59744  -0.59340
 Alpha virt. eigenvalues --    0.14370   0.19592   0.28500   0.35836   0.64111
 Alpha virt. eigenvalues --    0.65448   0.69142   0.69268   0.69285   0.72503
 Alpha virt. eigenvalues --    1.08879   1.10564   1.11673   1.12017   1.12211

 Mulliken charges:
               1
     1  H    0.002913
     2  H   -0.002900
     3  H   -0.000168
     4  H    0.000155
 Sum of Mulliken charges =   0.00000

 Dipole moment (field-independent basis, Debye):
    X=             -0.0055    Y=             -0.0019    Z=              0.0000  Tot=              0.0058
 Quadrupole moment (field-independent basis, Debye-Ang):
   XX=             -3.9155   YY=             -3.1698   ZZ=             -4.1807
   XY=              0.2614   XZ=              0.0000   YZ=             -0.0000

 3433579\MP4SDQ=-2.3435053\CCSD=-2.3447061\CCSD(T)=-2.3447139\RMSD=7.45
 Normal termination of Gaussian 16 at Fri Feb  9 17:42:36 2024.
