 Gaussian 16, Revision A.03,
 Gaussian 16:  ES64L-G16RevA.03 25-Dec-2016

 ------------------
 #p CCSD(T)/cc-pVTZ
 ------------------

 ---------
 H2_H2_251
 ---------
 Symbolic Z-matrix:
 Charge =  0 Multiplicity = 1

                         Standard orientation:
 ---------------------------------------------------------------------
 Center     Atomic      Atomic             Coordinates (Angstroms)
 Number     Number       Type             X           Y           Z
 ---------------------------------------------------------------------
      1          1           0       -0.333880   -2.386540    0.000000
      2          1           0        0.402895   -2.317526    0.000000
      3          1           0       -0.000000    1.983646    0.000000
      4          1           0       -0.069014    2.720420    0.000000
 ---------------------------------------------------------------------

 SCF Done:  E(RHF) =  -2.26594560654     A.U. after    6 cycles
 E2 =    -0.6336823108D-01 EUMP2 =    -0.23293138376272D+01
 CCSD(T)
 CCSD(T)= -0.23446919540D+01

 The electronic state is 1-A'.
 Alpha  occ. eigenvalues --   -0.59552  -0.59418
 Alpha virt. eigenvalues --    0.16280   0.16870   0.28850   0.32846   0.64057
 Alpha virt. eigenvalues --    0.64665   0.69209   0.69304   0.69311   0.69857
 Alpha virt. eigenvalues --    1.09691   1.09892   1.11951   1.11953   1.12048

 Mulliken charges:
               1
     1  H    0.000295
     2  H   -0.000292
     3  H    0.000380
     4  H   -0.000384
 Sum of Mulliken charges =   0.00000

 Dipole moment (field-independent basis, Debye):
    X=             -0.0004    Y=             -0.0034    Z=              0.0000  Tot=              0.0034
 Quadrupole moment (field-independent basis, Debye-Ang):
   XX=             -3.5575   YY=             -3.5597   ZZ=             -4.1799
   XY=              0.0010   XZ=              0.0000   YZ=              0.0000

 34858\CCSD=-2.3446904\CCSD(T)=-2.344692\RMSD=5.327e-09\PG=CS [SG(H4)]\
 Normal termination of Gaussian 16 at Fri Feb  9 17:44:20 2024.
