 Gaussian 16, Revision A.03,
 Gaussian 16:  ES64L-G16RevA.03 25-Dec-2016

 ------------------
 #p CCSD(T)/cc-pVTZ
 ------------------

 --------
 H2_H2_87
 --------
 Symbolic Z-matrix:
 Charge =  0 Multiplicity = 1

                         Standard orientation:
 ---------------------------------------------------------------------
 Center     Atomic      Atomic             Coordinates (Angstroms)
 Number     Number       Type             X           Y           Z
 ---------------------------------------------------------------------
      1          1           0        0.000000    0.000000    1.820000
      2          1           0        0.000000    0.000000    1.080000
      3          1           0        0.000000    0.000000   -1.080000
      4          1           0        0.000000    0.000000   -1.820000
 ---------------------------------------------------------------------

 SCF Done:  E(RHF) =  -2.26465154607     A.U. after    7 cycles
 E2 =    -0.6402409003D-01 EUMP2 =    -0.23286756360990D+01
 CCSD(T)
 CCSD(T)= -0.23441074075D+01

 The electronic state is 1-SGG.
 Alpha  occ. eigenvalues --   -0.61225  -0.58247
 Alpha virt. eigenvalues --    0.15644   0.21584   0.29343   0.45187   0.64866
 Alpha virt. eigenvalues --    0.65607   0.66960   0.66960   0.70676   0.70676
 Alpha virt. eigenvalues --    0.97598   1.04781   1.04781   1.20393   1.20393

 Mulliken charges:
               1
     1  H   -0.000193
     2  H    0.000193
     3  H    0.000193
     4  H   -0.000193
 Sum of Mulliken charges =  -0.00000

 Dipole moment (field-independent basis, Debye):
    X=             -0.0000    Y=              0.0000    Z=              0.0000  Tot=              0.0000
 Quadrupole moment (field-independent basis, Debye-Ang):
   XX=             -4.1707   YY=             -4.1707   ZZ=             -2.8455
   XY=             -0.0000   XZ=             -0.0000   YZ=              0.0000

 728\CCSD=-2.3440349\CCSD(T)=-2.3441074\RMSD=1.253e-09\PG=D*H [C*(H1H1.
 Normal termination of Gaussian 16 at Fri Feb  9 17:40:38 2024.
