 Gaussian 16, Revision A.03,
 Gaussian 16:  ES64L-G16RevA.03 25-Dec-2016

 ------------------
 #p CCSD(T)/cc-pVTZ
 ------------------

 ---------
 H2_H2_163
 ---------
 Symbolic Z-matrix:
 Charge =  0 Multiplicity = 1

                         Standard orientation:
 ---------------------------------------------------------------------
 Center     Atomic      Atomic             Coordinates (Angstroms)
 Number     Number       Type             X           Y           Z
 ---------------------------------------------------------------------
      1          1           0       -0.206719   -2.183081    0.000000
      2          1           0        0.269930   -1.617038    0.000000
      3          1           0        0.000000    1.531412   -0.000000
      4          1           0       -0.063212    2.268707   -0.000000
 ---------------------------------------------------------------------

 SCF Done:  E(RHF) =  -2.26587954398     A.U. after    6 cycles
 E2 =    -0.6345167931D-01 EUMP2 =    -0.23293312232901D+01
 CCSD(T)
 CCSD(T)= -0.23447192834D+01

 The electronic state is 1-A'.
 Alpha  occ. eigenvalues --   -0.59821  -0.59282
 Alpha virt. eigenvalues --    0.14505   0.19711   0.28509   0.36481   0.63533
 Alpha virt. eigenvalues --    0.65832   0.69092   0.69301   0.69323   0.73189
 Alpha virt. eigenvalues --    1.09045   1.09815   1.11447   1.12077   1.12420

 Mulliken charges:
               1
     1  H    0.003630
     2  H   -0.003591
     3  H   -0.000040
     4  H    0.000001
 Sum of Mulliken charges =  -0.00000

 Dipole moment (field-independent basis, Debye):
    X=             -0.0066    Y=             -0.0021    Z=              0.0000  Tot=              0.0070
 Quadrupole moment (field-independent basis, Debye-Ang):
   XX=             -3.9178   YY=             -3.1647   ZZ=             -4.1809
   XY=              0.2594   XZ=              0.0000   YZ=             -0.0000

 3433626\MP4SDQ=-2.3435098\CCSD=-2.3447091\CCSD(T)=-2.3447193\RMSD=9.70
 Normal termination of Gaussian 16 at Fri Feb  9 17:42:20 2024.
