 Gaussian 16, Revision A.03,
 Gaussian 16:  ES64L-G16RevA.03 25-Dec-2016

 ------------------
 #p CCSD(T)/cc-pVTZ
 ------------------

 --------
 H2_H2_15
 --------
 Symbolic Z-matrix:
 Charge =  0 Multiplicity = 1

                         Standard orientation:
 ---------------------------------------------------------------------
 Center     Atomic      Atomic             Coordinates (Angstroms)
 Number     Number       Type             X           Y           Z
 ---------------------------------------------------------------------
      1          1           0        0.000000    0.000000    1.340000
      2          1           0        0.000000    0.000000    0.600000
      3          1           0        0.000000    0.000000   -0.600000
      4          1           0        0.000000    0.000000   -1.340000
 ---------------------------------------------------------------------

 SCF Done:  E(RHF) =  -2.24059016943     A.U. after    8 cycles
 E2 =    -0.6799315913D-01 EUMP2 =    -0.23085833285591D+01
 CCSD(T)
 CCSD(T)= -0.23241173836D+01

 The electronic state is 1-SGG.
 Alpha  occ. eigenvalues --   -0.68731  -0.52392
 Alpha virt. eigenvalues --    0.16586   0.23154   0.32786   0.52715   0.53633
 Alpha virt. eigenvalues --    0.60493   0.60493   0.75861   0.75861   0.78674
 Alpha virt. eigenvalues --    1.05367   1.05367   1.20512   1.48411   1.48411

 Mulliken charges:
               1
     1  H    0.035281
     2  H   -0.035281
     3  H   -0.035281
     4  H    0.035281
 Sum of Mulliken charges =  -0.00000

 Dipole moment (field-independent basis, Debye):
    X=              0.0000    Y=              0.0000    Z=             -0.0000  Tot=              0.0000
 Quadrupole moment (field-independent basis, Debye-Ang):
   XX=             -4.0293   YY=             -4.0293   ZZ=             -3.3551
   XY=             -0.0000   XZ=             -0.0000   YZ=              0.0000

 7324\CCSD=-2.323659\CCSD(T)=-2.3241174\RMSD=9.025e-10\PG=D*H [C*(H1H1.
 Normal termination of Gaussian 16 at Fri Feb  9 17:39:01 2024.
