 Gaussian 16, Revision A.03,
 Gaussian 16:  ES64L-G16RevA.03 25-Dec-2016

 ------------------
 #p CCSD(T)/cc-pVTZ
 ------------------

 ---------
 H2_H2_257
 ---------
 Symbolic Z-matrix:
 Charge =  0 Multiplicity = 1

                         Standard orientation:
 ---------------------------------------------------------------------
 Center     Atomic      Atomic             Coordinates (Angstroms)
 Number     Number       Type             X           Y           Z
 ---------------------------------------------------------------------
      1          1           0       -0.334622   -2.425753    0.000000
      2          1           0        0.402278   -2.358097    0.000000
      3          1           0        0.000000    2.023475    0.000000
      4          1           0       -0.067656    2.760375    0.000000
 ---------------------------------------------------------------------

 SCF Done:  E(RHF) =  -2.26594496353     A.U. after    6 cycles
 E2 =    -0.6336640632D-01 EUMP2 =    -0.23293113698507D+01
 CCSD(T)
 CCSD(T)= -0.23446893194D+01

 The electronic state is 1-A'.
 Alpha  occ. eigenvalues --   -0.59545  -0.59423
 Alpha virt. eigenvalues --    0.16313   0.16863   0.28943   0.32645   0.64087
 Alpha virt. eigenvalues --    0.64702   0.69212   0.69303   0.69307   0.69698
 Alpha virt. eigenvalues --    1.09654   1.09890   1.11952   1.11956   1.12046

 Mulliken charges:
               1
     1  H    0.000267
     2  H   -0.000263
     3  H    0.000363
     4  H   -0.000367
 Sum of Mulliken charges =  -0.00000

 Dipole moment (field-independent basis, Debye):
    X=             -0.0004    Y=             -0.0032    Z=              0.0000  Tot=              0.0032
 Quadrupole moment (field-independent basis, Debye-Ang):
   XX=             -3.5575   YY=             -3.5594   ZZ=             -4.1799
   XY=              0.0010   XZ=              0.0000   YZ=              0.0000

 832\CCSD=-2.3446879\CCSD(T)=-2.3446893\RMSD=4.835e-09\PG=CS [SG(H4)]\\
 Normal termination of Gaussian 16 at Fri Feb  9 17:44:28 2024.
