 Gaussian 16, Revision A.03,
 Gaussian 16:  ES64L-G16RevA.03 25-Dec-2016

 ------------------
 #p CCSD(T)/cc-pVTZ
 ------------------

 ---------
 H2_H2_115
 ---------
 Symbolic Z-matrix:
 Charge =  0 Multiplicity = 1

                         Standard orientation:
 ---------------------------------------------------------------------
 Center     Atomic      Atomic             Coordinates (Angstroms)
 Number     Number       Type             X           Y           Z
 ---------------------------------------------------------------------
      1          1           0       -0.191980   -1.869053   -0.000000
      2          1           0        0.271792   -1.292410   -0.000000
      3          1           0        0.000000    1.212890    0.000000
      4          1           0       -0.079812    1.948573    0.000000
 ---------------------------------------------------------------------

 SCF Done:  E(RHF) =  -2.26549276688     A.U. after    7 cycles
 E2 =    -0.6368477216D-01 EUMP2 =    -0.23291775390383D+01
 CCSD(T)
 CCSD(T)= -0.23445850129D+01

 The electronic state is 1-A'.
 Alpha  occ. eigenvalues --   -0.60467  -0.58752
 Alpha virt. eigenvalues --    0.15379   0.20153   0.28977   0.38519   0.61755
 Alpha virt. eigenvalues --    0.67352   0.68298   0.69815   0.69904   0.74734
 Alpha virt. eigenvalues --    0.99760   1.07993   1.08658   1.14226   1.15329

 Mulliken charges:
               1
     1  H    0.007761
     2  H   -0.007275
     3  H    0.002201
     4  H   -0.002686
 Sum of Mulliken charges =   0.00000

 Dipole moment (field-independent basis, Debye):
    X=             -0.0130    Y=             -0.0057    Z=             -0.0000  Tot=              0.0142
 Quadrupole moment (field-independent basis, Debye-Ang):
   XX=             -3.9253   YY=             -3.1555   ZZ=             -4.1781
   XY=              0.2462   XZ=             -0.0000   YZ=              0.0000

 3432209\MP4SDQ=-2.3433662\CCSD=-2.3445506\CCSD(T)=-2.344585\RMSD=1.683
 Normal termination of Gaussian 16 at Fri Feb  9 17:41:15 2024.
