 Gaussian 16, Revision A.03,
 Gaussian 16:  ES64L-G16RevA.03 25-Dec-2016

 ------------------
 #p CCSD(T)/cc-pVTZ
 ------------------

 --------
 H2_H2_46
 --------
 Symbolic Z-matrix:
 Charge =  0 Multiplicity = 1

                         Standard orientation:
 ---------------------------------------------------------------------
 Center     Atomic      Atomic             Coordinates (Angstroms)
 Number     Number       Type             X           Y           Z
 ---------------------------------------------------------------------
      1          1           0       -0.148575   -1.424532   -0.000000
      2          1           0        0.276418   -0.818742   -0.000000
      3          1           0       -0.000000    0.757200    0.000000
      4          1           0       -0.127843    1.486073    0.000000
 ---------------------------------------------------------------------

 SCF Done:  E(RHF) =  -2.25739419237     A.U. after    7 cycles
 E2 =    -0.6557674956D-01 EUMP2 =    -0.23229709419266D+01
 CCSD(T)
 CCSD(T)= -0.23384534463D+01

 The electronic state is 1-A'.
 Alpha  occ. eigenvalues --   -0.64267  -0.55486
 Alpha virt. eigenvalues --    0.16341   0.21216   0.31223   0.38091   0.57408
 Alpha virt. eigenvalues --    0.62902   0.67553   0.71077   0.73750   0.79821
 Alpha virt. eigenvalues --    1.02093   1.03529   1.14938   1.26353   1.30552

 Mulliken charges:
               1
     1  H    0.009651
     2  H   -0.005705
     3  H   -0.001074
     4  H   -0.002873
 Sum of Mulliken charges =  -0.00000

 Dipole moment (field-independent basis, Debye):
    X=             -0.0246    Y=             -0.0470    Z=             -0.0000  Tot=              0.0530
 Quadrupole moment (field-independent basis, Debye-Ang):
   XX=             -3.8876   YY=             -3.3737   ZZ=             -4.1109
   XY=              0.2098   XZ=              0.0000   YZ=              0.0000

 0291\MP4SDQ=-2.3371705\CCSD=-2.3382307\CCSD(T)=-2.3384534\RMSD=3.041e-
 Normal termination of Gaussian 16 at Fri Feb  9 17:39:42 2024.
