 Gaussian 16, Revision A.03,
 Gaussian 16:  ES64L-G16RevA.03 25-Dec-2016

 ------------------
 #p CCSD(T)/cc-pVTZ
 ------------------

 --------
 H2_H2_50
 --------
 Symbolic Z-matrix:
 Charge =  0 Multiplicity = 1

                         Standard orientation:
 ---------------------------------------------------------------------
 Center     Atomic      Atomic             Coordinates (Angstroms)
 Number     Number       Type             X           Y           Z
 ---------------------------------------------------------------------
      1          1           0       -0.251739   -1.120124    0.000000
      2          1           0        0.458724   -0.913139    0.000000
      3          1           0        0.000000    0.661400    0.000000
      4          1           0       -0.206985    1.371863    0.000000
 ---------------------------------------------------------------------

 SCF Done:  E(RHF) =  -2.25333817547     A.U. after    7 cycles
 E2 =    -0.6603789293D-01 EUMP2 =    -0.23193760683942D+01
 CCSD(T)
 CCSD(T)= -0.23348920563D+01

 The electronic state is 1-A'.
 Alpha  occ. eigenvalues --   -0.65199  -0.54171
 Alpha virt. eigenvalues --    0.15672   0.20473   0.30496   0.35653   0.59859
 Alpha virt. eigenvalues --    0.61773   0.65299   0.70535   0.75543   0.87891
 Alpha virt. eigenvalues --    1.02873   1.09457   1.12131   1.20039   1.35570

 Mulliken charges:
               1
     1  H    0.008104
     2  H    0.006124
     3  H    0.014759
     4  H   -0.028986
 Sum of Mulliken charges =  -0.00000

 Dipole moment (field-independent basis, Debye):
    X=              0.0044    Y=             -0.1892    Z=              0.0000  Tot=              0.1893
 Quadrupole moment (field-independent basis, Debye-Ang):
   XX=             -3.4676   YY=             -4.0192   ZZ=             -4.0880
   XY=              0.0708   XZ=              0.0000   YZ=              0.0000

 6057\CCSD=-2.33465\CCSD(T)=-2.3348921\RMSD=4.498e-09\PG=CS [SG(H4)]\\@
 Normal termination of Gaussian 16 at Fri Feb  9 17:39:47 2024.
