 Gaussian 16, Revision A.03,
 Gaussian 16:  ES64L-G16RevA.03 25-Dec-2016

 ------------------
 #p CCSD(T)/cc-pVTZ
 ------------------

 ---------
 H2_H2_102
 ---------
 Symbolic Z-matrix:
 Charge =  0 Multiplicity = 1

                         Standard orientation:
 ---------------------------------------------------------------------
 Center     Atomic      Atomic             Coordinates (Angstroms)
 Number     Number       Type             X           Y           Z
 ---------------------------------------------------------------------
      1          1           0        0.000000    0.000000    1.920000
      2          1           0        0.000000    0.000000    1.180000
      3          1           0        0.000000    0.000000   -1.180000
      4          1           0        0.000000    0.000000   -1.920000
 ---------------------------------------------------------------------

 SCF Done:  E(RHF) =  -2.26524630348     A.U. after    7 cycles
 E2 =    -0.6379952319D-01 EUMP2 =    -0.23290458266681D+01
 CCSD(T)
 CCSD(T)= -0.23444648505D+01

 The electronic state is 1-SGG.
 Alpha  occ. eigenvalues --   -0.60728  -0.58654
 Alpha virt. eigenvalues --    0.15240   0.21422   0.29061   0.43364   0.65263
 Alpha virt. eigenvalues --    0.67746   0.67828   0.67828   0.70125   0.70125
 Alpha virt. eigenvalues --    0.96751   1.06831   1.06831   1.17370   1.17370

 Mulliken charges:
               1
     1  H   -0.001638
     2  H    0.001638
     3  H    0.001638
     4  H   -0.001638
 Sum of Mulliken charges =  -0.00000

 Dipole moment (field-independent basis, Debye):
    X=             -0.0000    Y=             -0.0000    Z=             -0.0000  Tot=              0.0000
 Quadrupole moment (field-independent basis, Debye-Ang):
   XX=             -4.1769   YY=             -4.1769   ZZ=             -2.8360
   XY=             -0.0000   XZ=             -0.0000   YZ=              0.0000

 32392\CCSD=-2.3444165\CCSD(T)=-2.3444649\RMSD=1.361e-09\PG=D*H [C*(H1H
 Normal termination of Gaussian 16 at Fri Feb  9 17:40:58 2024.
