 Gaussian 16, Revision A.03,
 Gaussian 16:  ES64L-G16RevA.03 25-Dec-2016

 ------------------
 #p CCSD(T)/cc-pVTZ
 ------------------

 ---------
 H2_H2_212
 ---------
 Symbolic Z-matrix:
 Charge =  0 Multiplicity = 1

                         Standard orientation:
 ---------------------------------------------------------------------
 Center     Atomic      Atomic             Coordinates (Angstroms)
 Number     Number       Type             X           Y           Z
 ---------------------------------------------------------------------
      1          1           0       -0.328184   -2.132497    0.000000
      2          1           0        0.407548   -2.053133    0.000000
      3          1           0       -0.000000    1.724949    0.000000
      4          1           0       -0.079365    2.460681    0.000000
 ---------------------------------------------------------------------

 SCF Done:  E(RHF) =  -2.26594841301     A.U. after    7 cycles
 E2 =    -0.6338921535D-01 EUMP2 =    -0.23293376283622D+01
 CCSD(T)
 CCSD(T)= -0.23447178158D+01

 The electronic state is 1-A'.
 Alpha  occ. eigenvalues --   -0.59630  -0.59354
 Alpha virt. eigenvalues --    0.16132   0.16948   0.28387   0.34298   0.63288
 Alpha virt. eigenvalues --    0.64284   0.69183   0.69319   0.69384   0.72041
 Alpha virt. eigenvalues --    1.09354   1.10557   1.11920   1.11929   1.12065

 Mulliken charges:
               1
     1  H    0.000610
     2  H   -0.000608
     3  H    0.000530
     4  H   -0.000532
 Sum of Mulliken charges =   0.00000

 Dipole moment (field-independent basis, Debye):
    X=             -0.0009    Y=             -0.0049    Z=              0.0000  Tot=              0.0050
 Quadrupole moment (field-independent basis, Debye-Ang):
   XX=             -3.5576   YY=             -3.5628   ZZ=             -4.1802
   XY=              0.0017   XZ=              0.0000   YZ=              0.0000

 5112\CCSD=-2.3447143\CCSD(T)=-2.3447178\RMSD=1.872e-09\PG=CS [SG(H4)]\
 Normal termination of Gaussian 16 at Fri Feb  9 17:43:26 2024.
