 Gaussian 16, Revision A.03,
 Gaussian 16:  ES64L-G16RevA.03 25-Dec-2016

 ------------------
 #p CCSD(T)/cc-pVTZ
 ------------------

 ---------
 H2_H2_233
 ---------
 Symbolic Z-matrix:
 Charge =  0 Multiplicity = 1

                         Standard orientation:
 ---------------------------------------------------------------------
 Center     Atomic      Atomic             Coordinates (Angstroms)
 Number     Number       Type             X           Y           Z
 ---------------------------------------------------------------------
      1          1           0       -0.331455   -2.269094    0.000000
      2          1           0        0.404892   -2.195658    0.000000
      3          1           0       -0.000000    1.864202    0.000000
      4          1           0       -0.073436    2.600549    0.000000
 ---------------------------------------------------------------------

 SCF Done:  E(RHF) =  -2.26594751388     A.U. after    6 cycles
 E2 =    -0.6337553980D-01 EUMP2 =    -0.23293230536826D+01
 CCSD(T)
 CCSD(T)= -0.23447018738D+01

 The electronic state is 1-A'.
 Alpha  occ. eigenvalues --   -0.59579  -0.59396
 Alpha virt. eigenvalues --    0.16191   0.16898   0.28597   0.33500   0.63874
 Alpha virt. eigenvalues --    0.64480   0.69199   0.69310   0.69331   0.70595
 Alpha virt. eigenvalues --    1.09658   1.10062   1.11944   1.11944   1.12055

 Mulliken charges:
               1
     1  H    0.000405
     2  H   -0.000405
     3  H    0.000441
     4  H   -0.000441
 Sum of Mulliken charges =   0.00000

 Dipole moment (field-independent basis, Debye):
    X=             -0.0006    Y=             -0.0040    Z=              0.0000  Tot=              0.0040
 Quadrupole moment (field-independent basis, Debye-Ang):
   XX=             -3.5575   YY=             -3.5608   ZZ=             -4.1800
   XY=              0.0013   XZ=              0.0000   YZ=              0.0000

 34955\CCSD=-2.3446997\CCSD(T)=-2.3447019\RMSD=7.206e-09\PG=CS [SG(H4)]
 Normal termination of Gaussian 16 at Fri Feb  9 17:43:55 2024.
