 Gaussian 16, Revision A.03,
 Gaussian 16:  ES64L-G16RevA.03 25-Dec-2016

 ------------------
 #p CCSD(T)/cc-pVTZ
 ------------------

 ---------
 H2_H2_129
 ---------
 Symbolic Z-matrix:
 Charge =  0 Multiplicity = 1

                         Standard orientation:
 ---------------------------------------------------------------------
 Center     Atomic      Atomic             Coordinates (Angstroms)
 Number     Number       Type             X           Y           Z
 ---------------------------------------------------------------------
      1          1           0        0.000000    0.000000    2.100000
      2          1           0        0.000000    0.000000    1.360000
      3          1           0        0.000000    0.000000   -1.360000
      4          1           0        0.000000    0.000000   -2.100000
 ---------------------------------------------------------------------

 SCF Done:  E(RHF) =  -2.26570236470     A.U. after    7 cycles
 E2 =    -0.6357323202D-01 EUMP2 =    -0.23292755967270D+01
 CCSD(T)
 CCSD(T)= -0.23446775792D+01

 The electronic state is 1-SGG.
 Alpha  occ. eigenvalues --   -0.60170  -0.59094
 Alpha virt. eigenvalues --    0.14541   0.21161   0.28779   0.40319   0.66030
 Alpha virt. eigenvalues --    0.68696   0.68696   0.69071   0.69525   0.69525
 Alpha virt. eigenvalues --    1.02658   1.09742   1.09742   1.14021   1.14021

 Mulliken charges:
               1
     1  H   -0.000517
     2  H    0.000517
     3  H    0.000517
     4  H   -0.000517
 Sum of Mulliken charges =   0.00000

 Dipole moment (field-independent basis, Debye):
    X=             -0.0000    Y=              0.0000    Z=              0.0000  Tot=              0.0000
 Quadrupole moment (field-independent basis, Debye-Ang):
   XX=             -4.1812   YY=             -4.1812   ZZ=             -2.8428
   XY=             -0.0000   XZ=             -0.0000   YZ=              0.0000

 434618\CCSD=-2.3446537\CCSD(T)=-2.3446776\RMSD=1.456e-09\PG=D*H [C*(H1
 Normal termination of Gaussian 16 at Fri Feb  9 17:41:34 2024.
