 Gaussian 16, Revision A.03,
 Gaussian 16:  ES64L-G16RevA.03 25-Dec-2016

 ------------------
 #p CCSD(T)/cc-pVTZ
 ------------------

 --------
 H2_H2_60
 --------
 Symbolic Z-matrix:
 Charge =  0 Multiplicity = 1

                         Standard orientation:
 ---------------------------------------------------------------------
 Center     Atomic      Atomic             Coordinates (Angstroms)
 Number     Number       Type             X           Y           Z
 ---------------------------------------------------------------------
      1          1           0        0.000000    0.000000    1.640000
      2          1           0        0.000000    0.000000    0.900000
      3          1           0        0.000000    0.000000   -0.900000
      4          1           0        0.000000    0.000000   -1.640000
 ---------------------------------------------------------------------

 SCF Done:  E(RHF) =  -2.26197375562     A.U. after    7 cycles
 E2 =    -0.6475398990D-01 EUMP2 =    -0.23267277455145D+01
 CCSD(T)
 CCSD(T)= -0.23421856589D+01

 The electronic state is 1-SGG.
 Alpha  occ. eigenvalues --   -0.62701  -0.57027
 Alpha virt. eigenvalues --    0.16292   0.21987   0.30212   0.48519   0.59454
 Alpha virt. eigenvalues --    0.64642   0.64642   0.68065   0.72115   0.72115
 Alpha virt. eigenvalues --    1.01930   1.01930   1.04263   1.28279   1.28279

 Mulliken charges:
               1
     1  H    0.009804
     2  H   -0.009804
     3  H   -0.009804
     4  H    0.009804
 Sum of Mulliken charges =  -0.00000

 Dipole moment (field-independent basis, Debye):
    X=             -0.0000    Y=             -0.0000    Z=              0.0000  Tot=              0.0000
 Quadrupole moment (field-independent basis, Debye-Ang):
   XX=             -4.1463   YY=             -4.1463   ZZ=             -2.9129
   XY=             -0.0000   XZ=             -0.0000   YZ=              0.0000

 252\CCSD=-2.3420365\CCSD(T)=-2.3421857\RMSD=1.279e-09\PG=D*H [C*(H1H1.
 Normal termination of Gaussian 16 at Fri Feb  9 17:40:02 2024.
