 Gaussian 16, Revision A.03,
 Gaussian 16:  ES64L-G16RevA.03 25-Dec-2016

 ------------------
 #p CCSD(T)/cc-pVTZ
 ------------------

 --------
 H2_H2_10
 --------
 Symbolic Z-matrix:
 Charge =  0 Multiplicity = 1

                         Standard orientation:
 ---------------------------------------------------------------------
 Center     Atomic      Atomic             Coordinates (Angstroms)
 Number     Number       Type             X           Y           Z
 ---------------------------------------------------------------------
      1          1           0       -0.095146   -1.199475    0.000000
      2          1           0        0.280430   -0.561868    0.000000
      3          1           0        0.000000    0.522457   -0.000000
      4          1           0       -0.185284    1.238886   -0.000000
 ---------------------------------------------------------------------

 SCF Done:  E(RHF) =  -2.22871187492     A.U. after    8 cycles
 E2 =    -0.6902845265D-01 EUMP2 =    -0.22977403275761D+01
 CCSD(T)
 CCSD(T)= -0.23133318434D+01

 The electronic state is 1-A'.
 Alpha  occ. eigenvalues --   -0.70745  -0.50566
 Alpha virt. eigenvalues --    0.15860   0.21985   0.31789   0.37761   0.54483
 Alpha virt. eigenvalues --    0.59567   0.69017   0.76889   0.77618   0.87816
 Alpha virt. eigenvalues --    1.06349   1.08242   1.28867   1.38766   1.42606

 Mulliken charges:
               1
     1  H   -0.005898
     2  H    0.016564
     3  H    0.014080
     4  H   -0.024745
 Sum of Mulliken charges =   0.00000

 Dipole moment (field-independent basis, Debye):
    X=             -0.0131    Y=             -0.1270    Z=              0.0000  Tot=              0.1276
 Quadrupole moment (field-independent basis, Debye-Ang):
   XX=             -3.7972   YY=             -3.8890   ZZ=             -3.9863
   XY=              0.2101   XZ=             -0.0000   YZ=              0.0000

 7564\MP4SDQ=-2.3119086\CCSD=-2.3128021\CCSD(T)=-2.3133318\RMSD=1.237e-
 Normal termination of Gaussian 16 at Fri Feb  9 17:38:54 2024.
