 Gaussian 16, Revision A.03,
 Gaussian 16:  ES64L-G16RevA.03 25-Dec-2016

 ------------------
 #p CCSD(T)/cc-pVTZ
 ------------------

 -------
 H2_H2_7
 -------
 Symbolic Z-matrix:
 Charge =  0 Multiplicity = 1

                         Standard orientation:
 ---------------------------------------------------------------------
 Center     Atomic      Atomic             Coordinates (Angstroms)
 Number     Number       Type             X           Y           Z
 ---------------------------------------------------------------------
      1          1           0       -0.088403   -1.181050    0.000000
      2          1           0        0.280808   -0.539736    0.000000
      3          1           0       -0.000000    0.503119    0.000000
      4          1           0       -0.192406    1.217667    0.000000
 ---------------------------------------------------------------------

 SCF Done:  E(RHF) =  -2.22389561302     A.U. after    8 cycles
 E2 =    -0.6947175230D-01 EUMP2 =    -0.22933673653238D+01
 CCSD(T)
 CCSD(T)= -0.23089810402D+01

 The electronic state is 1-A'.
 Alpha  occ. eigenvalues --   -0.71598  -0.49988
 Alpha virt. eigenvalues --    0.15761   0.22036   0.31709   0.37779   0.54313
 Alpha virt. eigenvalues --    0.59318   0.69066   0.77569   0.77994   0.88740
 Alpha virt. eigenvalues --    1.06857   1.08878   1.29858   1.39975   1.43563

 Mulliken charges:
               1
     1  H   -0.008245
     2  H    0.020443
     3  H    0.019853
     4  H   -0.032052
 Sum of Mulliken charges =   0.00000

 Dipole moment (field-independent basis, Debye):
    X=             -0.0099    Y=             -0.1367    Z=             -0.0000  Tot=              0.1370
 Quadrupole moment (field-independent basis, Debye-Ang):
   XX=             -3.7871   YY=             -3.9568   ZZ=             -3.9720
   XY=              0.2144   XZ=             -0.0000   YZ=              0.0000

 3807\MP4SDQ=-2.3075356\CCSD=-2.3084151\CCSD(T)=-2.308981\RMSD=1.499e-0
 Normal termination of Gaussian 16 at Fri Feb  9 17:38:50 2024.
