 Gaussian 16, Revision A.03,
 Gaussian 16:  ES64L-G16RevA.03 25-Dec-2016

 ------------------
 #p CCSD(T)/cc-pVTZ
 ------------------

 ---------
 H2_H2_125
 ---------
 Symbolic Z-matrix:
 Charge =  0 Multiplicity = 1

                         Standard orientation:
 ---------------------------------------------------------------------
 Center     Atomic      Atomic             Coordinates (Angstroms)
 Number     Number       Type             X           Y           Z
 ---------------------------------------------------------------------
      1          1           0       -0.305658   -1.574682    0.000000
      2          1           0        0.424704   -1.455636    0.000000
      3          1           0       -0.000000    1.149978    0.000000
      4          1           0       -0.119046    1.880340    0.000000
 ---------------------------------------------------------------------

 SCF Done:  E(RHF) =  -2.26552217005     A.U. after    7 cycles
 E2 =    -0.6368073877D-01 EUMP2 =    -0.23292029088213D+01
 CCSD(T)
 CCSD(T)= -0.23446063507D+01

 The electronic state is 1-A'.
 Alpha  occ. eigenvalues --   -0.60504  -0.58539
 Alpha virt. eigenvalues --    0.16287   0.18217   0.29178   0.35161   0.62985
 Alpha virt. eigenvalues --    0.64364   0.68322   0.70070   0.70553   0.77915
 Alpha virt. eigenvalues --    1.05845   1.08075   1.11236   1.12826   1.15780

 Mulliken charges:
               1
     1  H    0.003442
     2  H   -0.002145
     3  H    0.001569
     4  H   -0.002866
 Sum of Mulliken charges =  -0.00000

 Dipole moment (field-independent basis, Debye):
    X=             -0.0035    Y=             -0.0255    Z=              0.0000  Tot=              0.0257
 Quadrupole moment (field-independent basis, Debye-Ang):
   XX=             -3.5523   YY=             -3.5992   ZZ=             -4.1761
   XY=              0.0049   XZ=              0.0000   YZ=              0.0000

 391\CCSD=-2.344575\CCSD(T)=-2.3446064\RMSD=1.581e-09\PG=CS [SG(H4)]\\@
 Normal termination of Gaussian 16 at Fri Feb  9 17:41:29 2024.
