 Gaussian 16, Revision A.03,
 Gaussian 16:  ES64L-G16RevA.03 25-Dec-2016

 ------------------
 #p CCSD(T)/cc-pVTZ
 ------------------

 ---------
 H2_H2_300
 ---------
 Symbolic Z-matrix:
 Charge =  0 Multiplicity = 1

                         Standard orientation:
 ---------------------------------------------------------------------
 Center     Atomic      Atomic             Coordinates (Angstroms)
 Number     Number       Type             X           Y           Z
 ---------------------------------------------------------------------
      1          1           0        0.000000    0.000000    3.240000
      2          1           0        0.000000    0.000000    2.500000
      3          1           0        0.000000    0.000000   -2.500000
      4          1           0        0.000000    0.000000   -3.240000
 ---------------------------------------------------------------------

 SCF Done:  E(RHF) =  -2.26592669733     A.U. after    6 cycles
 E2 =    -0.6336062579D-01 EUMP2 =    -0.23292873231209D+01
 CCSD(T)
 CCSD(T)= -0.23446655446D+01

 The electronic state is 1-SGG.
 Alpha  occ. eigenvalues --   -0.59513  -0.59498
 Alpha virt. eigenvalues --    0.15389   0.17919   0.29902   0.31148   0.62645
 Alpha virt. eigenvalues --    0.66470   0.69236   0.69236   0.69236   0.69236
 Alpha virt. eigenvalues --    1.09605   1.09653   1.11975   1.11975   1.11975

 Mulliken charges:
               1
     1  H    0.000417
     2  H   -0.000417
     3  H   -0.000417
     4  H    0.000417
 Sum of Mulliken charges =  -0.00000

 Dipole moment (field-independent basis, Debye):
    X=              0.0000    Y=              0.0000    Z=             -0.0000  Tot=              0.0000
 Quadrupole moment (field-independent basis, Debye-Ang):
   XX=             -4.1797   YY=             -4.1797   ZZ=             -2.9161
   XY=             -0.0000   XZ=             -0.0000   YZ=              0.0000

 4594\CCSD=-2.3446646\CCSD(T)=-2.3446655\RMSD=2.762e-09\PG=D*H [C*(H1H1
 Normal termination of Gaussian 16 at Fri Feb  9 17:45:27 2024.
