 Gaussian 16, Revision A.03,
 Gaussian 16:  ES64L-G16RevA.03 25-Dec-2016

 ------------------
 #p CCSD(T)/cc-pVTZ
 ------------------

 --------
 H2_H2_96
 --------
 Symbolic Z-matrix:
 Charge =  0 Multiplicity = 1

                         Standard orientation:
 ---------------------------------------------------------------------
 Center     Atomic      Atomic             Coordinates (Angstroms)
 Number     Number       Type             X           Y           Z
 ---------------------------------------------------------------------
      1          1           0        0.000000    0.000000    1.880000
      2          1           0        0.000000    0.000000    1.140000
      3          1           0        0.000000    0.000000   -1.140000
      4          1           0        0.000000    0.000000   -1.880000
 ---------------------------------------------------------------------

 SCF Done:  E(RHF) =  -2.26505232167     A.U. after    7 cycles
 E2 =    -0.6387822464D-01 EUMP2 =    -0.23289305463177D+01
 CCSD(T)
 CCSD(T)= -0.23443544314D+01

 The electronic state is 1-SGG.
 Alpha  occ. eigenvalues --   -0.60906  -0.58509
 Alpha virt. eigenvalues --    0.15402   0.21483   0.29160   0.44085   0.65323
 Alpha virt. eigenvalues --    0.66697   0.67519   0.67519   0.70325   0.70325
 Alpha virt. eigenvalues --    0.96724   1.06021   1.06021   1.18469   1.18469

 Mulliken charges:
               1
     1  H   -0.001351
     2  H    0.001351
     3  H    0.001351
     4  H   -0.001351
 Sum of Mulliken charges =   0.00000

 Dipole moment (field-independent basis, Debye):
    X=             -0.0000    Y=              0.0000    Z=              0.0000  Tot=              0.0000
 Quadrupole moment (field-independent basis, Debye-Ang):
   XX=             -4.1748   YY=             -4.1748   ZZ=             -2.8382
   XY=             -0.0000   XZ=             -0.0000   YZ=              0.0000

 1256\CCSD=-2.3442976\CCSD(T)=-2.3443544\RMSD=1.302e-09\PG=D*H [C*(H1H1
 Normal termination of Gaussian 16 at Fri Feb  9 17:40:50 2024.
