 Gaussian 16, Revision A.03,
 Gaussian 16:  ES64L-G16RevA.03 25-Dec-2016

 ------------------
 #p CCSD(T)/cc-pVTZ
 ------------------

 --------
 H2_H2_88
 --------
 Symbolic Z-matrix:
 Charge =  0 Multiplicity = 1

                         Standard orientation:
 ---------------------------------------------------------------------
 Center     Atomic      Atomic             Coordinates (Angstroms)
 Number     Number       Type             X           Y           Z
 ---------------------------------------------------------------------
      1          1           0       -0.179628   -1.693774   -0.000000
      2          1           0        0.273236   -1.108527   -0.000000
      3          1           0       -0.000000    1.034122    0.000000
      4          1           0       -0.093609    1.768178    0.000000
 ---------------------------------------------------------------------

 SCF Done:  E(RHF) =  -2.26449936281     A.U. after    7 cycles
 E2 =    -0.6405434722D-01 EUMP2 =    -0.23285537100339D+01
 CCSD(T)
 CCSD(T)= -0.23439834724D+01

 The electronic state is 1-A'.
 Alpha  occ. eigenvalues --   -0.61300  -0.58032
 Alpha virt. eigenvalues --    0.15897   0.20476   0.29593   0.38845   0.62195
 Alpha virt. eigenvalues --    0.64860   0.66879   0.69823   0.70886   0.75151
 Alpha virt. eigenvalues --    0.99397   1.05613   1.05971   1.17489   1.19546

 Mulliken charges:
               1
     1  H    0.010564
     2  H   -0.009356
     3  H    0.004260
     4  H   -0.005469
 Sum of Mulliken charges =  -0.00000

 Dipole moment (field-independent basis, Debye):
    X=             -0.0178    Y=             -0.0131    Z=             -0.0000  Tot=              0.0221
 Quadrupole moment (field-independent basis, Debye-Ang):
   XX=             -3.9229   YY=             -3.1819   ZZ=             -4.1673
   XY=              0.2340   XZ=             -0.0000   YZ=              0.0000

 6072\MP4SDQ=-2.3427508\CCSD=-2.3439109\CCSD(T)=-2.3439835\RMSD=1.528e-
 Normal termination of Gaussian 16 at Fri Feb  9 17:40:39 2024.
