 Gaussian 16, Revision A.03,
 Gaussian 16:  ES64L-G16RevA.03 25-Dec-2016

 ------------------
 #p CCSD(T)/cc-pVTZ
 ------------------

 --------
 H2_H2_94
 --------
 Symbolic Z-matrix:
 Charge =  0 Multiplicity = 1

                         Standard orientation:
 ---------------------------------------------------------------------
 Center     Atomic      Atomic             Coordinates (Angstroms)
 Number     Number       Type             X           Y           Z
 ---------------------------------------------------------------------
      1          1           0       -0.182734   -1.732610    0.000000
      2          1           0        0.272883   -1.149503   -0.000000
      3          1           0        0.000000    1.073813    0.000000
      4          1           0       -0.090149    1.808301    0.000000
 ---------------------------------------------------------------------

 SCF Done:  E(RHF) =  -2.26482806511     A.U. after    7 cycles
 E2 =    -0.6394598390D-01 EUMP2 =    -0.23287740490028D+01
 CCSD(T)
 CCSD(T)= -0.23441979291D+01

 The electronic state is 1-A'.
 Alpha  occ. eigenvalues --   -0.61067  -0.58234
 Alpha virt. eigenvalues --    0.15789   0.20396   0.29427   0.38836   0.62190
 Alpha virt. eigenvalues --    0.65522   0.67285   0.69795   0.70614   0.74841
 Alpha virt. eigenvalues --    0.98831   1.06288   1.06310   1.16621   1.18409

 Mulliken charges:
               1
     1  H    0.009969
     2  H   -0.008970
     3  H    0.003986
     4  H   -0.004985
 Sum of Mulliken charges =  -0.00000

 Dipole moment (field-independent basis, Debye):
    X=             -0.0167    Y=             -0.0108    Z=              0.0000  Tot=              0.0199
 Quadrupole moment (field-independent basis, Debye-Ang):
   XX=             -3.9242   YY=             -3.1721   ZZ=             -4.1708
   XY=              0.2370   XZ=             -0.0000   YZ=             -0.0000

 28252\MP4SDQ=-2.3429692\CCSD=-2.3441364\CCSD(T)=-2.3441979\RMSD=1.499e
 Normal termination of Gaussian 16 at Fri Feb  9 17:40:47 2024.
