 Gaussian 16, Revision A.03,
 Gaussian 16:  ES64L-G16RevA.03 25-Dec-2016

 ------------------
 #p CCSD(T)/cc-pVTZ
 ------------------

 ---------
 H2_H2_134
 ---------
 Symbolic Z-matrix:
 Charge =  0 Multiplicity = 1

                         Standard orientation:
 ---------------------------------------------------------------------
 Center     Atomic      Atomic             Coordinates (Angstroms)
 Number     Number       Type             X           Y           Z
 ---------------------------------------------------------------------
      1          1           0       -0.309038   -1.631486    0.000000
      2          1           0        0.422250   -1.518274    0.000000
      3          1           0       -0.000000    1.209235    0.000000
      4          1           0       -0.113212    1.940524    0.000000
 ---------------------------------------------------------------------

 SCF Done:  E(RHF) =  -2.26567871632     A.U. after    7 cycles
 E2 =    -0.6360810870D-01 EUMP2 =    -0.23292868250150D+01
 CCSD(T)
 CCSD(T)= -0.23446851377D+01

 The electronic state is 1-A'.
 Alpha  occ. eigenvalues --   -0.60314  -0.58720
 Alpha virt. eigenvalues --    0.16294   0.17964   0.28954   0.35327   0.62716
 Alpha virt. eigenvalues --    0.63863   0.68598   0.69833   0.70387   0.78573
 Alpha virt. eigenvalues --    1.06591   1.08348   1.11433   1.12585   1.14929

 Mulliken charges:
               1
     1  H    0.003187
     2  H   -0.002225
     3  H    0.001044
     4  H   -0.002006
 Sum of Mulliken charges =   0.00000

 Dipole moment (field-independent basis, Debye):
    X=             -0.0031    Y=             -0.0203    Z=              0.0000  Tot=              0.0206
 Quadrupole moment (field-independent basis, Debye-Ang):
   XX=             -3.5544   YY=             -3.5888   ZZ=             -4.1779
   XY=              0.0041   XZ=              0.0000   YZ=              0.0000

 4721\CCSD=-2.3446608\CCSD(T)=-2.3446851\RMSD=1.853e-09\PG=CS [SG(H4)]\
 Normal termination of Gaussian 16 at Fri Feb  9 17:41:41 2024.
