 Gaussian 16, Revision A.03,
 Gaussian 16:  ES64L-G16RevA.03 25-Dec-2016

 ------------------
 #p CCSD(T)/cc-pVTZ
 ------------------

 --------
 H2_H2_44
 --------
 Symbolic Z-matrix:
 Charge =  0 Multiplicity = 1

                         Standard orientation:
 ---------------------------------------------------------------------
 Center     Atomic      Atomic             Coordinates (Angstroms)
 Number     Number       Type             X           Y           Z
 ---------------------------------------------------------------------
      1          1           0       -0.243461   -1.086267    0.000000
      2          1           0        0.463170   -0.866558    0.000000
      3          1           0        0.000000    0.623097    0.000000
      4          1           0       -0.219709    1.329729    0.000000
 ---------------------------------------------------------------------

 SCF Done:  E(RHF) =  -2.24981336623     A.U. after    7 cycles
 E2 =    -0.6648394231D-01 EUMP2 =    -0.23162973085421D+01
 CCSD(T)
 CCSD(T)= -0.23318266483D+01

 The electronic state is 1-A'.
 Alpha  occ. eigenvalues --   -0.66054  -0.53429
 Alpha virt. eigenvalues --    0.15554   0.20617   0.30455   0.36017   0.59519
 Alpha virt. eigenvalues --    0.61108   0.65459   0.70769   0.76303   0.90175
 Alpha virt. eigenvalues --    1.03701   1.09408   1.12383   1.21305   1.37885

 Mulliken charges:
               1
     1  H    0.010149
     2  H    0.007308
     3  H    0.015451
     4  H   -0.032908
 Sum of Mulliken charges =  -0.00000

 Dipole moment (field-independent basis, Debye):
    X=              0.0093    Y=             -0.2231    Z=              0.0000  Tot=              0.2233
 Quadrupole moment (field-independent basis, Debye-Ang):
   XX=             -3.4528   YY=             -4.1023   ZZ=             -4.0709
   XY=              0.0906   XZ=              0.0000   YZ=              0.0000

 7\CCSD=-2.3315469\CCSD(T)=-2.3318266\RMSD=5.738e-09\PG=CS [SG(H4)]\\@
 Normal termination of Gaussian 16 at Fri Feb  9 17:39:39 2024.
