 Gaussian 16, Revision A.03,
 Gaussian 16:  ES64L-G16RevA.03 25-Dec-2016

 ------------------
 #p CCSD(T)/cc-pVTZ
 ------------------

 ---------
 H2_H2_157
 ---------
 Symbolic Z-matrix:
 Charge =  0 Multiplicity = 1

                         Standard orientation:
 ---------------------------------------------------------------------
 Center     Atomic      Atomic             Coordinates (Angstroms)
 Number     Number       Type             X           Y           Z
 ---------------------------------------------------------------------
      1          1           0       -0.205225   -2.143704   -0.000000
      2          1           0        0.270126   -1.576570   -0.000000
      3          1           0       -0.000000    1.491562    0.000000
      4          1           0       -0.064900    2.228711    0.000000
 ---------------------------------------------------------------------

 SCF Done:  E(RHF) =  -2.26586394192     A.U. after    7 cycles
 E2 =    -0.6346663835D-01 EUMP2 =    -0.23293305802708D+01
 CCSD(T)
 CCSD(T)= -0.23447201317D+01

 The electronic state is 1-A'.
 Alpha  occ. eigenvalues --   -0.59869  -0.59246
 Alpha virt. eigenvalues --    0.14591   0.19766   0.28529   0.36796   0.63157
 Alpha virt. eigenvalues --    0.66130   0.69054   0.69328   0.69354   0.73536
 Alpha virt. eigenvalues --    1.08844   1.09392   1.11285   1.12143   1.12573

 Mulliken charges:
               1
     1  H    0.004041
     2  H   -0.003981
     3  H    0.000056
     4  H   -0.000116
 Sum of Mulliken charges =   0.00000

 Dipole moment (field-independent basis, Debye):
    X=             -0.0073    Y=             -0.0023    Z=             -0.0000  Tot=              0.0076
 Quadrupole moment (field-independent basis, Debye-Ang):
   XX=             -3.9189   YY=             -3.1623   ZZ=             -4.1810
   XY=              0.2582   XZ=              0.0000   YZ=              0.0000

 343363\MP4SDQ=-2.34351\CCSD=-2.3447084\CCSD(T)=-2.3447201\RMSD=1.722e-
 Normal termination of Gaussian 16 at Fri Feb  9 17:42:12 2024.
