 Gaussian 16, Revision A.03,
 Gaussian 16:  ES64L-G16RevA.03 25-Dec-2016

 ------------------
 #p CCSD(T)/cc-pVTZ
 ------------------

 ---------
 H2_H2_154
 ---------
 Symbolic Z-matrix:
 Charge =  0 Multiplicity = 1

                         Standard orientation:
 ---------------------------------------------------------------------
 Center     Atomic      Atomic             Coordinates (Angstroms)
 Number     Number       Type             X           Y           Z
 ---------------------------------------------------------------------
      1          1           0       -0.204448   -2.124026   -0.000000
      2          1           0        0.270227   -1.556326   -0.000000
      3          1           0       -0.000000    1.471641    0.000000
      4          1           0       -0.065779    2.208711    0.000000
 ---------------------------------------------------------------------

 SCF Done:  E(RHF) =  -2.26585436605     A.U. after    7 cycles
 E2 =    -0.6347507828D-01 EUMP2 =    -0.23293294443364D+01
 CCSD(T)
 CCSD(T)= -0.23447198175D+01

 The electronic state is 1-A'.
 Alpha  occ. eigenvalues --   -0.59895  -0.59225
 Alpha virt. eigenvalues --    0.14637   0.19794   0.28543   0.36950   0.62971
 Alpha virt. eigenvalues --    0.66285   0.69032   0.69345   0.69373   0.73706
 Alpha virt. eigenvalues --    1.08477   1.09347   1.11189   1.12190   1.12666

 Mulliken charges:
               1
     1  H    0.004260
     2  H   -0.004187
     3  H    0.000115
     4  H   -0.000188
 Sum of Mulliken charges =  -0.00000

 Dipole moment (field-independent basis, Debye):
    X=             -0.0076    Y=             -0.0024    Z=             -0.0000  Tot=              0.0080
 Quadrupole moment (field-independent basis, Debye-Ang):
   XX=             -3.9195   YY=             -3.1611   ZZ=             -4.1810
   XY=              0.2576   XZ=             -0.0000   YZ=              0.0000

 3433625\MP4SDQ=-2.3435094\CCSD=-2.3447072\CCSD(T)=-2.3447198\RMSD=1.76
 Normal termination of Gaussian 16 at Fri Feb  9 17:42:08 2024.
