 Gaussian 16, Revision A.03,
 Gaussian 16:  ES64L-G16RevA.03 25-Dec-2016

 ------------------
 #p CCSD(T)/cc-pVTZ
 ------------------

 ---------
 H2_H2_217
 ---------
 Symbolic Z-matrix:
 Charge =  0 Multiplicity = 1

                         Standard orientation:
 ---------------------------------------------------------------------
 Center     Atomic      Atomic             Coordinates (Angstroms)
 Number     Number       Type             X           Y           Z
 ---------------------------------------------------------------------
      1          1           0       -0.217293   -2.538567    0.000000
      2          1           0        0.268502   -1.980352    0.000000
      3          1           0       -0.000000    1.890346   -0.000000
      4          1           0       -0.051209    2.628572   -0.000000
 ---------------------------------------------------------------------

 SCF Done:  E(RHF) =  -2.26592423944     A.U. after    6 cycles
 E2 =    -0.6338383745D-01 EUMP2 =    -0.23293080768868D+01
 CCSD(T)
 CCSD(T)= -0.23446887130D+01

 The electronic state is 1-A'.
 Alpha  occ. eigenvalues --   -0.59592  -0.59443
 Alpha virt. eigenvalues --    0.14337   0.19062   0.28760   0.33693   0.62946
 Alpha virt. eigenvalues --    0.67074   0.69201   0.69250   0.69253   0.70469
 Alpha virt. eigenvalues --    1.08980   1.10236   1.11931   1.11991   1.11998

 Mulliken charges:
               1
     1  H    0.001365
     2  H   -0.001365
     3  H   -0.000285
     4  H    0.000285
 Sum of Mulliken charges =  -0.00000

 Dipole moment (field-independent basis, Debye):
    X=             -0.0027    Y=             -0.0015    Z=             -0.0000  Tot=              0.0031
 Quadrupole moment (field-independent basis, Debye-Ang):
   XX=             -3.9087   YY=             -3.1856   ZZ=             -4.1800
   XY=              0.2672   XZ=              0.0000   YZ=             -0.0000

 3433338\MP4SDQ=-2.3434818\CCSD=-2.3446855\CCSD(T)=-2.3446887\RMSD=3.35
 Normal termination of Gaussian 16 at Fri Feb  9 17:43:33 2024.
