 Gaussian 16, Revision A.03,
 Gaussian 16:  ES64L-G16RevA.03 25-Dec-2016

 ------------------
 #p CCSD(T)/cc-pVTZ
 ------------------

 ---------
 H2_H2_144
 ---------
 Symbolic Z-matrix:
 Charge =  0 Multiplicity = 1

                         Standard orientation:
 ---------------------------------------------------------------------
 Center     Atomic      Atomic             Coordinates (Angstroms)
 Number     Number       Type             X           Y           Z
 ---------------------------------------------------------------------
      1          1           0        0.000000    0.000000    2.200000
      2          1           0        0.000000    0.000000    1.460000
      3          1           0        0.000000    0.000000   -1.460000
      4          1           0        0.000000    0.000000   -2.200000
 ---------------------------------------------------------------------

 SCF Done:  E(RHF) =  -2.26580211679     A.U. after    6 cycles
 E2 =    -0.6350548772D-01 EUMP2 =    -0.23293076045109D+01
 CCSD(T)
 CCSD(T)= -0.23447030940D+01

 The electronic state is 1-SGG.
 Alpha  occ. eigenvalues --   -0.59980  -0.59235
 Alpha virt. eigenvalues --    0.14203   0.21000   0.28698   0.38811   0.66981
 Alpha virt. eigenvalues --    0.67975   0.68926   0.68926   0.69359   0.69359
 Alpha virt. eigenvalues --    1.06833   1.10712   1.10712   1.13047   1.13047

 Mulliken charges:
               1
     1  H    0.000283
     2  H   -0.000283
     3  H   -0.000283
     4  H    0.000283
 Sum of Mulliken charges =  -0.00000

 Dipole moment (field-independent basis, Debye):
    X=             -0.0000    Y=             -0.0000    Z=             -0.0000  Tot=              0.0000
 Quadrupole moment (field-independent basis, Debye-Ang):
   XX=             -4.1815   YY=             -4.1815   ZZ=             -2.8524
   XY=             -0.0000   XZ=             -0.0000   YZ=              0.0000

 434904\CCSD=-2.3446866\CCSD(T)=-2.3447031\RMSD=9.007e-09\PG=D*H [C*(H1
 Normal termination of Gaussian 16 at Fri Feb  9 17:41:55 2024.
