 Gaussian 16, Revision A.03,
 Gaussian 16:  ES64L-G16RevA.03 25-Dec-2016

 ------------------
 #p CCSD(T)/cc-pVTZ
 ------------------

 --------
 H2_H2_49
 --------
 Symbolic Z-matrix:
 Charge =  0 Multiplicity = 1

                         Standard orientation:
 ---------------------------------------------------------------------
 Center     Atomic      Atomic             Coordinates (Angstroms)
 Number     Number       Type             X           Y           Z
 ---------------------------------------------------------------------
      1          1           0       -0.151541   -1.443571    0.000000
      2          1           0        0.276141   -0.839677    0.000000
      3          1           0       -0.000000    0.776907   -0.000000
      4          1           0       -0.124600    1.506342   -0.000000
 ---------------------------------------------------------------------

 SCF Done:  E(RHF) =  -2.25839707786     A.U. after    7 cycles
 E2 =    -0.6540495051D-01 EUMP2 =    -0.23238020283670D+01
 CCSD(T)
 CCSD(T)= -0.23392802869D+01

 The electronic state is 1-A'.
 Alpha  occ. eigenvalues --   -0.63944  -0.55756
 Alpha virt. eigenvalues --    0.16336   0.21154   0.31096   0.38170   0.57725
 Alpha virt. eigenvalues --    0.63208   0.67281   0.70856   0.73487   0.79357
 Alpha virt. eigenvalues --    1.01917   1.03418   1.13815   1.25535   1.29609

 Mulliken charges:
               1
     1  H    0.010158
     2  H   -0.006492
     3  H   -0.000245
     4  H   -0.003420
 Sum of Mulliken charges =  -0.00000

 Dipole moment (field-independent basis, Debye):
    X=             -0.0243    Y=             -0.0430    Z=              0.0000  Tot=              0.0494
 Quadrupole moment (field-independent basis, Debye-Ang):
   XX=             -3.8922   YY=             -3.3496   ZZ=             -4.1175
   XY=              0.2114   XZ=             -0.0000   YZ=             -0.0000

 8616\MP4SDQ=-2.338003\CCSD=-2.339074\CCSD(T)=-2.3392803\RMSD=2.390e-09
 Normal termination of Gaussian 16 at Fri Feb  9 17:39:46 2024.
