 Gaussian 16, Revision A.03,
 Gaussian 16:  ES64L-G16RevA.03 25-Dec-2016

 ------------------
 #p CCSD(T)/cc-pVTZ
 ------------------

 ---------
 H2_H2_293
 ---------
 Symbolic Z-matrix:
 Charge =  0 Multiplicity = 1

                         Standard orientation:
 ---------------------------------------------------------------------
 Center     Atomic      Atomic             Coordinates (Angstroms)
 Number     Number       Type             X           Y           Z
 ---------------------------------------------------------------------
      1          1           0       -0.338508   -2.661590    0.000000
      2          1           0        0.399014   -2.601084    0.000000
      3          1           0       -0.000000    2.262576    0.000000
      4          1           0       -0.060506    3.000098    0.000000
 ---------------------------------------------------------------------

 SCF Done:  E(RHF) =  -2.26594177329     A.U. after    6 cycles
 E2 =    -0.6335941364D-01 EUMP2 =    -0.23293011869289D+01
 CCSD(T)
 CCSD(T)= -0.23446785668D+01

 The electronic state is 1-A'.
 Alpha  occ. eigenvalues --   -0.59519  -0.59442
 Alpha virt. eigenvalues --    0.16497   0.16824   0.29515   0.31659   0.64187
 Alpha virt. eigenvalues --    0.64674   0.69226   0.69290   0.69294   0.69295
 Alpha virt. eigenvalues --    1.09523   1.09868   1.11964   1.11969   1.12037

 Mulliken charges:
               1
     1  H    0.000158
     2  H   -0.000153
     3  H    0.000273
     4  H   -0.000278
 Sum of Mulliken charges =   0.00000

 Dipole moment (field-independent basis, Debye):
    X=             -0.0003    Y=             -0.0022    Z=              0.0000  Tot=              0.0023
 Quadrupole moment (field-independent basis, Debye-Ang):
   XX=             -3.5576   YY=             -3.5585   ZZ=             -4.1799
   XY=              0.0006   XZ=              0.0000   YZ=              0.0000

 34726\CCSD=-2.3446778\CCSD(T)=-2.3446786\RMSD=2.916e-09\PG=CS [SG(H4)]
 Normal termination of Gaussian 16 at Fri Feb  9 17:45:18 2024.
