 Gaussian 16, Revision A.03,
 Gaussian 16:  ES64L-G16RevA.03 25-Dec-2016

 ------------------
 #p CCSD(T)/cc-pVTZ
 ------------------

 ---------
 H2_H2_158
 ---------
 Symbolic Z-matrix:
 Charge =  0 Multiplicity = 1

                         Standard orientation:
 ---------------------------------------------------------------------
 Center     Atomic      Atomic             Coordinates (Angstroms)
 Number     Number       Type             X           Y           Z
 ---------------------------------------------------------------------
      1          1           0       -0.316547   -1.784222    0.000000
      2          1           0        0.416651   -1.684118    0.000000
      3          1           0        0.000000    1.367571    0.000000
      4          1           0       -0.100105    2.100769    0.000000
 ---------------------------------------------------------------------

 SCF Done:  E(RHF) =  -2.26587761434     A.U. after    7 cycles
 E2 =    -0.6348748162D-01 EUMP2 =    -0.23293650959660D+01
 CCSD(T)
 CCSD(T)= -0.23447541478D+01

 The electronic state is 1-A'.
 Alpha  occ. eigenvalues --   -0.59964  -0.59051
 Alpha virt. eigenvalues --    0.16257   0.17423   0.28517   0.35530   0.61799
 Alpha virt. eigenvalues --    0.63851   0.69001   0.69474   0.69923   0.77747
 Alpha virt. eigenvalues --    1.07605   1.10228   1.11761   1.12224   1.13338

 Mulliken charges:
               1
     1  H    0.002023
     2  H   -0.001659
     3  H    0.000700
     4  H   -0.001064
 Sum of Mulliken charges =  -0.00000

 Dipole moment (field-independent basis, Debye):
    X=             -0.0022    Y=             -0.0117    Z=              0.0000  Tot=              0.0119
 Quadrupole moment (field-independent basis, Debye-Ang):
   XX=             -3.5570   YY=             -3.5736   ZZ=             -4.1801
   XY=              0.0031   XZ=              0.0000   YZ=              0.0000

 5448\CCSD=-2.3447414\CCSD(T)=-2.3447541\RMSD=2.326e-09\PG=CS [SG(H4)]\
 Normal termination of Gaussian 16 at Fri Feb  9 17:42:13 2024.
