 Gaussian 16, Revision A.03,
 Gaussian 16:  ES64L-G16RevA.03 25-Dec-2016

 ------------------
 #p CCSD(T)/cc-pVTZ
 ------------------

 ---------
 H2_H2_259
 ---------
 Symbolic Z-matrix:
 Charge =  0 Multiplicity = 1

                         Standard orientation:
 ---------------------------------------------------------------------
 Center     Atomic      Atomic             Coordinates (Angstroms)
 Number     Number       Type             X           Y           Z
 ---------------------------------------------------------------------
      1          1           0       -0.223073   -2.816016    0.000000
      2          1           0        0.267687   -2.262161    0.000000
      3          1           0        0.000000    2.169762    0.000000
      4          1           0       -0.044615    2.908416    0.000000
 ---------------------------------------------------------------------

 SCF Done:  E(RHF) =  -2.26592942795     A.U. after    6 cycles
 E2 =    -0.6336674970D-01 EUMP2 =    -0.23292961776511D+01
 CCSD(T)
 CCSD(T)= -0.23446748325D+01

 The electronic state is 1-A'.
 Alpha  occ. eigenvalues --   -0.59534  -0.59473
 Alpha virt. eigenvalues --    0.14902   0.18377   0.29306   0.32127   0.62481
 Alpha virt. eigenvalues --    0.67173   0.69221   0.69256   0.69256   0.69386
 Alpha virt. eigenvalues --    1.09555   1.09712   1.11961   1.11996   1.11996

 Mulliken charges:
               1
     1  H    0.000754
     2  H   -0.000751
     3  H   -0.000204
     4  H    0.000201
 Sum of Mulliken charges =  -0.00000

 Dipole moment (field-independent basis, Debye):
    X=             -0.0015    Y=             -0.0012    Z=              0.0000  Tot=              0.0019
 Quadrupole moment (field-independent basis, Debye-Ang):
   XX=             -3.9038   YY=             -3.1966   ZZ=             -4.1798
   XY=              0.2722   XZ=              0.0000   YZ=              0.0000

 3433203\MP4SDQ=-2.3434685\CCSD=-2.3446733\CCSD(T)=-2.3446748\RMSD=2.46
 Normal termination of Gaussian 16 at Fri Feb  9 17:44:31 2024.
