 Gaussian 16, Revision A.03,
 Gaussian 16:  ES64L-G16RevA.03 25-Dec-2016

 ------------------
 #p CCSD(T)/cc-pVTZ
 ------------------

 --------
 H2_H2_71
 --------
 Symbolic Z-matrix:
 Charge =  0 Multiplicity = 1

                         Standard orientation:
 ---------------------------------------------------------------------
 Center     Atomic      Atomic             Coordinates (Angstroms)
 Number     Number       Type             X           Y           Z
 ---------------------------------------------------------------------
      1          1           0       -0.273980   -1.242572    0.000000
      2          1           0        0.445797   -1.070754    0.000000
      3          1           0       -0.000000    0.796775    0.000000
      4          1           0       -0.171818    1.516552    0.000000
 ---------------------------------------------------------------------

 SCF Done:  E(RHF) =  -2.26076360514     A.U. after    7 cycles
 E2 =    -0.6488363069D-01 EUMP2 =    -0.23256472358327D+01
 CCSD(T)
 CCSD(T)= -0.23411183407D+01

 The electronic state is 1-A'.
 Alpha  occ. eigenvalues --   -0.63004  -0.56159
 Alpha virt. eigenvalues --    0.15977   0.19890   0.30481   0.34752   0.61446
 Alpha virt. eigenvalues --    0.64203   0.65274   0.70316   0.73299   0.80560
 Alpha virt. eigenvalues --    1.01156   1.09723   1.11265   1.16655   1.27897

 Mulliken charges:
               1
     1  H    0.003347
     2  H    0.003693
     3  H    0.011951
     4  H   -0.018990
 Sum of Mulliken charges =   0.00000

 Dipole moment (field-independent basis, Debye):
    X=             -0.0034    Y=             -0.1065    Z=              0.0000  Tot=              0.1066
 Quadrupole moment (field-independent basis, Debye-Ang):
   XX=             -3.5093   YY=             -3.8060   ZZ=             -4.1328
   XY=              0.0302   XZ=              0.0000   YZ=              0.0000

 8661\CCSD=-2.3409762\CCSD(T)=-2.3411183\RMSD=2.222e-09\PG=CS [SG(H4)]\
 Normal termination of Gaussian 16 at Fri Feb  9 17:40:16 2024.
