 Gaussian 16, Revision A.03,
 Gaussian 16:  ES64L-G16RevA.03 25-Dec-2016

 ------------------
 #p CCSD(T)/cc-pVTZ
 ------------------

 ---------
 H2_H2_194
 ---------
 Symbolic Z-matrix:
 Charge =  0 Multiplicity = 1

                         Standard orientation:
 ---------------------------------------------------------------------
 Center     Atomic      Atomic             Coordinates (Angstroms)
 Number     Number       Type             X           Y           Z
 ---------------------------------------------------------------------
      1          1           0       -0.324906   -2.015859    0.000000
      2          1           0        0.410166   -1.930599    0.000000
      3          1           0       -0.000000    1.605693    0.000000
      4          1           0       -0.085259    2.340765    0.000000
 ---------------------------------------------------------------------

 SCF Done:  E(RHF) =  -2.26594443553     A.U. after    7 cycles
 E2 =    -0.6340817337D-01 EUMP2 =    -0.23293526088982D+01
 CCSD(T)
 CCSD(T)= -0.23447346585D+01

 The electronic state is 1-A'.
 Alpha  occ. eigenvalues --   -0.59698  -0.59293
 Alpha virt. eigenvalues --    0.16140   0.17027   0.28310   0.34916   0.62546
 Alpha virt. eigenvalues --    0.64163   0.69162   0.69334   0.69480   0.73777
 Alpha virt. eigenvalues --    1.08915   1.11091   1.11909   1.11910   1.12081

 Mulliken charges:
               1
     1  H    0.000888
     2  H   -0.000854
     3  H    0.000616
     4  H   -0.000650
 Sum of Mulliken charges =  -0.00000

 Dipole moment (field-independent basis, Debye):
    X=             -0.0012    Y=             -0.0061    Z=              0.0000  Tot=              0.0062
 Quadrupole moment (field-independent basis, Debye-Ang):
   XX=             -3.5576   YY=             -3.5651   ZZ=             -4.1803
   XY=              0.0021   XZ=              0.0000   YZ=              0.0000

 5275\CCSD=-2.3447294\CCSD(T)=-2.3447347\RMSD=2.193e-09\PG=CS [SG(H4)]\
 Normal termination of Gaussian 16 at Fri Feb  9 17:43:02 2024.
