 Gaussian 16, Revision A.03,
 Gaussian 16:  ES64L-G16RevA.03 25-Dec-2016

 ------------------
 #p CCSD(T)/cc-pVTZ
 ------------------

 ---------
 H2_H2_266
 ---------
 Symbolic Z-matrix:
 Charge =  0 Multiplicity = 1

                         Standard orientation:
 ---------------------------------------------------------------------
 Center     Atomic      Atomic             Coordinates (Angstroms)
 Number     Number       Type             X           Y           Z
 ---------------------------------------------------------------------
      1          1           0       -0.335681   -2.484626    0.000000
      2          1           0        0.401396   -2.418911    0.000000
      3          1           0       -0.000000    2.083231    0.000000
      4          1           0       -0.065715    2.820307    0.000000
 ---------------------------------------------------------------------

 SCF Done:  E(RHF) =  -2.26594404903     A.U. after    6 cycles
 E2 =    -0.6336410165D-01 EUMP2 =    -0.23293081506762D+01
 CCSD(T)
 CCSD(T)= -0.23446858979D+01

 The electronic state is 1-A'.
 Alpha  occ. eigenvalues --   -0.59537  -0.59429
 Alpha virt. eigenvalues --    0.16363   0.16852   0.29087   0.32361   0.64120
 Alpha virt. eigenvalues --    0.64728   0.69216   0.69300   0.69302   0.69523
 Alpha virt. eigenvalues --    1.09600   1.09894   1.11955   1.11959   1.12044

 Mulliken charges:
               1
     1  H    0.000232
     2  H   -0.000227
     3  H    0.000338
     4  H   -0.000343
 Sum of Mulliken charges =   0.00000

 Dipole moment (field-independent basis, Debye):
    X=             -0.0004    Y=             -0.0029    Z=              0.0000  Tot=              0.0029
 Quadrupole moment (field-independent basis, Debye-Ang):
   XX=             -3.5575   YY=             -3.5590   ZZ=             -4.1799
   XY=              0.0009   XZ=              0.0000   YZ=              0.0000

 98\CCSD=-2.3446847\CCSD(T)=-2.3446859\RMSD=4.205e-09\PG=CS [SG(H4)]\\@
 Normal termination of Gaussian 16 at Fri Feb  9 17:44:41 2024.
