 Gaussian 16, Revision A.03,
 Gaussian 16:  ES64L-G16RevA.03 25-Dec-2016

 ------------------
 #p CCSD(T)/cc-pVTZ
 ------------------

 --------
 H2_H2_99
 --------
 Symbolic Z-matrix:
 Charge =  0 Multiplicity = 1

                         Standard orientation:
 ---------------------------------------------------------------------
 Center     Atomic      Atomic             Coordinates (Angstroms)
 Number     Number       Type             X           Y           Z
 ---------------------------------------------------------------------
      1          1           0        0.000000    0.000000    1.900000
      2          1           0        0.000000    0.000000    1.160000
      3          1           0        0.000000    0.000000   -1.160000
      4          1           0        0.000000    0.000000   -1.900000
 ---------------------------------------------------------------------

 SCF Done:  E(RHF) =  -2.26515546331     A.U. after    7 cycles
 E2 =    -0.6383720955D-01 EUMP2 =    -0.23289926728568D+01
 CCSD(T)
 CCSD(T)= -0.23444140961D+01

 The electronic state is 1-SGG.
 Alpha  occ. eigenvalues --   -0.60814  -0.58584
 Alpha virt. eigenvalues --    0.15321   0.21452   0.29108   0.43723   0.65281
 Alpha virt. eigenvalues --    0.67247   0.67680   0.67680   0.70222   0.70222
 Alpha virt. eigenvalues --    0.96671   1.06430   1.06430   1.17902   1.17902

 Mulliken charges:
               1
     1  H   -0.001537
     2  H    0.001537
     3  H    0.001537
     4  H   -0.001537
 Sum of Mulliken charges =  -0.00000

 Dipole moment (field-independent basis, Debye):
    X=             -0.0000    Y=              0.0000    Z=              0.0000  Tot=              0.0000
 Quadrupole moment (field-independent basis, Debye-Ang):
   XX=             -4.1759   YY=             -4.1759   ZZ=             -2.8369
   XY=             -0.0000   XZ=             -0.0000   YZ=              0.0000

 31869\CCSD=-2.3443617\CCSD(T)=-2.3444141\RMSD=1.330e-09\PG=D*H [C*(H1H
 Normal termination of Gaussian 16 at Fri Feb  9 17:40:54 2024.
