 Gaussian 16, Revision A.03,
 Gaussian 16:  ES64L-G16RevA.03 25-Dec-2016

 ------------------
 #p CCSD(T)/cc-pVTZ
 ------------------

 --------
 H2_H2_90
 --------
 Symbolic Z-matrix:
 Charge =  0 Multiplicity = 1

                         Standard orientation:
 ---------------------------------------------------------------------
 Center     Atomic      Atomic             Coordinates (Angstroms)
 Number     Number       Type             X           Y           Z
 ---------------------------------------------------------------------
      1          1           0        0.000000    0.000000    1.840000
      2          1           0        0.000000    0.000000    1.100000
      3          1           0        0.000000    0.000000   -1.100000
      4          1           0        0.000000    0.000000   -1.840000
 ---------------------------------------------------------------------

 SCF Done:  E(RHF) =  -2.26480234327     A.U. after    7 cycles
 E2 =    -0.6397135849D-01 EUMP2 =    -0.23287737017629D+01
 CCSD(T)
 CCSD(T)= -0.23442027668D+01

 The electronic state is 1-SGG.
 Alpha  occ. eigenvalues --   -0.61111  -0.58341
 Alpha virt. eigenvalues --    0.15564   0.21549   0.29277   0.44817   0.65486
 Alpha virt. eigenvalues --    0.65496   0.67159   0.67159   0.70552   0.70552
 Alpha virt. eigenvalues --    0.97199   1.05193   1.05193   1.19714   1.19714

 Mulliken charges:
               1
     1  H   -0.000687
     2  H    0.000687
     3  H    0.000687
     4  H   -0.000687
 Sum of Mulliken charges =   0.00000

 Dipole moment (field-independent basis, Debye):
    X=             -0.0000    Y=             -0.0000    Z=              0.0000  Tot=              0.0000
 Quadrupole moment (field-independent basis, Debye-Ang):
   XX=             -4.1722   YY=             -4.1722   ZZ=             -2.8424
   XY=             -0.0000   XZ=             -0.0000   YZ=              0.0000

 9702\CCSD=-2.3441359\CCSD(T)=-2.3442028\RMSD=1.262e-09\PG=D*H [C*(H1H1
 Normal termination of Gaussian 16 at Fri Feb  9 17:40:42 2024.
