 Gaussian 16, Revision A.03,
 Gaussian 16:  ES64L-G16RevA.03 25-Dec-2016

 ------------------
 #p CCSD(T)/cc-pVTZ
 ------------------

 --------
 H2_H2_76
 --------
 Symbolic Z-matrix:
 Charge =  0 Multiplicity = 1

                         Standard orientation:
 ---------------------------------------------------------------------
 Center     Atomic      Atomic             Coordinates (Angstroms)
 Number     Number       Type             X           Y           Z
 ---------------------------------------------------------------------
      1          1           0       -0.172626   -1.616337   -0.000000
      2          1           0        0.274010   -1.026323    0.000000
      3          1           0       -0.000000    0.954819    0.000000
      4          1           0       -0.101384    1.687841   -0.000000
 ---------------------------------------------------------------------

 SCF Done:  E(RHF) =  -2.26352866168     A.U. after    7 cycles
 E2 =    -0.6433339751D-01 EUMP2 =    -0.23278620591911D+01
 CCSD(T)
 CCSD(T)= -0.23433051656D+01

 The electronic state is 1-A'.
 Alpha  occ. eigenvalues --   -0.61874  -0.57531
 Alpha virt. eigenvalues --    0.16089   0.20656   0.29984   0.38757   0.61144
 Alpha virt. eigenvalues --    0.64773   0.65903   0.69961   0.71529   0.76088
 Alpha virt. eigenvalues --    1.00714   1.04371   1.06354   1.19496   1.22165

 Mulliken charges:
               1
     1  H    0.011459
     2  H   -0.009714
     3  H    0.004161
     4  H   -0.005906
 Sum of Mulliken charges =  -0.00000

 Dipole moment (field-independent basis, Debye):
    X=             -0.0201    Y=             -0.0189    Z=             -0.0000  Tot=              0.0276
 Quadrupole moment (field-independent basis, Debye-Ang):
   XX=             -3.9180   YY=             -3.2112   ZZ=             -4.1578
   XY=              0.2274   XZ=              0.0000   YZ=              0.0000

 419201\MP4SDQ=-2.3420629\CCSD=-2.3432043\CCSD(T)=-2.3433052\RMSD=1.774
 Normal termination of Gaussian 16 at Fri Feb  9 17:40:23 2024.
