 Gaussian 16, Revision A.03,
 Gaussian 16:  ES64L-G16RevA.03 25-Dec-2016

 ------------------
 #p CCSD(T)/cc-pVTZ
 ------------------

 ---------
 H2_H2_269
 ---------
 Symbolic Z-matrix:
 Charge =  0 Multiplicity = 1

                         Standard orientation:
 ---------------------------------------------------------------------
 Center     Atomic      Atomic             Coordinates (Angstroms)
 Number     Number       Type             X           Y           Z
 ---------------------------------------------------------------------
      1          1           0       -0.336019   -2.504265    0.000000
      2          1           0        0.401112   -2.439172    0.000000
      3          1           0       -0.000000    2.103152    0.000000
      4          1           0       -0.065093    2.840284    0.000000
 ---------------------------------------------------------------------

 SCF Done:  E(RHF) =  -2.26594376083     A.U. after    6 cycles
 E2 =    -0.6336343255D-01 EUMP2 =    -0.23293071933782D+01
 CCSD(T)
 CCSD(T)= -0.23446848841D+01

 The electronic state is 1-A'.
 Alpha  occ. eigenvalues --   -0.59534  -0.59431
 Alpha virt. eigenvalues --    0.16379   0.16849   0.29136   0.32272   0.64129
 Alpha virt. eigenvalues --    0.64730   0.69217   0.69300   0.69301   0.69479
 Alpha virt. eigenvalues --    1.09585   1.09894   1.11956   1.11961   1.12043

 Mulliken charges:
               1
     1  H    0.000222
     2  H   -0.000217
     3  H    0.000330
     4  H   -0.000335
 Sum of Mulliken charges =  -0.00000

 Dipole moment (field-independent basis, Debye):
    X=             -0.0003    Y=             -0.0028    Z=              0.0000  Tot=              0.0029
 Quadrupole moment (field-independent basis, Debye-Ang):
   XX=             -3.5575   YY=             -3.5589   ZZ=             -4.1799
   XY=              0.0008   XZ=              0.0000   YZ=              0.0000

 788\CCSD=-2.3446838\CCSD(T)=-2.3446849\RMSD=4.021e-09\PG=CS [SG(H4)]\\
 Normal termination of Gaussian 16 at Fri Feb  9 17:44:45 2024.
