 Gaussian 16, Revision A.03,
 Gaussian 16:  ES64L-G16RevA.03 25-Dec-2016

 ------------------
 #p CCSD(T)/cc-pVTZ
 ------------------

 ---------
 H2_H2_135
 ---------
 Symbolic Z-matrix:
 Charge =  0 Multiplicity = 1

                         Standard orientation:
 ---------------------------------------------------------------------
 Center     Atomic      Atomic             Coordinates (Angstroms)
 Number     Number       Type             X           Y           Z
 ---------------------------------------------------------------------
      1          1           0        0.000000    0.000000    2.140000
      2          1           0        0.000000    0.000000    1.400000
      3          1           0        0.000000    0.000000   -1.400000
      4          1           0        0.000000    0.000000   -2.140000
 ---------------------------------------------------------------------

 SCF Done:  E(RHF) =  -2.26575002200     A.U. after    7 cycles
 E2 =    -0.6354265771D-01 EUMP2 =    -0.23292926797136D+01
 CCSD(T)
 CCSD(T)= -0.23446918418D+01

 The electronic state is 1-SGG.
 Alpha  occ. eigenvalues --   -0.60086  -0.59157
 Alpha virt. eigenvalues --    0.14399   0.21099   0.28741   0.39698   0.66380
 Alpha virt. eigenvalues --    0.68713   0.68804   0.68804   0.69447   0.69447
 Alpha virt. eigenvalues --    1.04463   1.10183   1.10183   1.13571   1.13571

 Mulliken charges:
               1
     1  H   -0.000159
     2  H    0.000159
     3  H    0.000159
     4  H   -0.000159
 Sum of Mulliken charges =   0.00000

 Dipole moment (field-independent basis, Debye):
    X=             -0.0000    Y=             -0.0000    Z=              0.0000  Tot=              0.0000
 Quadrupole moment (field-independent basis, Debye-Ang):
   XX=             -4.1814   YY=             -4.1814   ZZ=             -2.8464
   XY=             -0.0000   XZ=             -0.0000   YZ=              0.0000

 774\CCSD=-2.3446713\CCSD(T)=-2.3446918\RMSD=1.372e-09\PG=D*H [C*(H1H1.
 Normal termination of Gaussian 16 at Fri Feb  9 17:41:43 2024.
