 Gaussian 16, Revision A.03,
 Gaussian 16:  ES64L-G16RevA.03 25-Dec-2016

 ------------------
 #p CCSD(T)/cc-pVTZ
 ------------------

 ---------
 H2_H2_189
 ---------
 Symbolic Z-matrix:
 Charge =  0 Multiplicity = 1

                         Standard orientation:
 ---------------------------------------------------------------------
 Center     Atomic      Atomic             Coordinates (Angstroms)
 Number     Number       Type             X           Y           Z
 ---------------------------------------------------------------------
      1          1           0        0.000000    0.000000    2.500000
      2          1           0        0.000000    0.000000    1.760000
      3          1           0        0.000000    0.000000   -1.760000
      4          1           0        0.000000    0.000000   -2.500000
 ---------------------------------------------------------------------

 SCF Done:  E(RHF) =  -2.26589773682     A.U. after    6 cycles
 E2 =    -0.6340971854D-01 EUMP2 =    -0.23293074553610D+01
 CCSD(T)
 CCSD(T)= -0.23446920166D+01

 The electronic state is 1-SGG.
 Alpha  occ. eigenvalues --   -0.59680  -0.59435
 Alpha virt. eigenvalues --    0.13643   0.20333   0.28723   0.35184   0.63981
 Alpha virt. eigenvalues --    0.69168   0.69168   0.69211   0.69211   0.69659
 Alpha virt. eigenvalues --    1.08813   1.10848   1.11798   1.11798   1.12047

 Mulliken charges:
               1
     1  H    0.000936
     2  H   -0.000936
     3  H   -0.000936
     4  H    0.000936
 Sum of Mulliken charges =  -0.00000

 Dipole moment (field-independent basis, Debye):
    X=             -0.0000    Y=              0.0000    Z=             -0.0000  Tot=              0.0000
 Quadrupole moment (field-independent basis, Debye-Ang):
   XX=             -4.1805   YY=             -4.1805   ZZ=             -2.8831
   XY=             -0.0000   XZ=             -0.0000   YZ=              0.0000

 4837\CCSD=-2.3446859\CCSD(T)=-2.344692\RMSD=3.028e-09\PG=D*H [C*(H1H1.
 Normal termination of Gaussian 16 at Fri Feb  9 17:42:56 2024.
