 Gaussian 16, Revision A.03,
 Gaussian 16:  ES64L-G16RevA.03 25-Dec-2016

 ------------------
 #p CCSD(T)/cc-pVTZ
 ------------------

 ---------
 H2_H2_296
 ---------
 Symbolic Z-matrix:
 Charge =  0 Multiplicity = 1

                         Standard orientation:
 ---------------------------------------------------------------------
 Center     Atomic      Atomic             Coordinates (Angstroms)
 Number     Number       Type             X           Y           Z
 ---------------------------------------------------------------------
      1          1           0       -0.338794   -2.681281    0.000000
      2          1           0        0.398772   -2.621303    0.000000
      3          1           0       -0.000000    2.282510    0.000000
      4          1           0       -0.059978    3.020075    0.000000
 ---------------------------------------------------------------------

 SCF Done:  E(RHF) =  -2.26594156173     A.U. after    6 cycles
 E2 =    -0.6335904140D-01 EUMP2 =    -0.23293006031342D+01
 CCSD(T)
 CCSD(T)= -0.23446779573D+01

 The electronic state is 1-A'.
 Alpha  occ. eigenvalues --   -0.59518  -0.59443
 Alpha virt. eigenvalues --    0.16510   0.16821   0.29560   0.31595   0.64193
 Alpha virt. eigenvalues --    0.64662   0.69227   0.69280   0.69294   0.69294
 Alpha virt. eigenvalues --    1.09521   1.09862   1.11965   1.11970   1.12036

 Mulliken charges:
               1
     1  H    0.000151
     2  H   -0.000147
     3  H    0.000267
     4  H   -0.000272
 Sum of Mulliken charges =  -0.00000

 Dipole moment (field-independent basis, Debye):
    X=             -0.0002    Y=             -0.0022    Z=              0.0000  Tot=              0.0022
 Quadrupole moment (field-independent basis, Debye-Ang):
   XX=             -3.5576   YY=             -3.5585   ZZ=             -4.1799
   XY=              0.0006   XZ=              0.0000   YZ=              0.0000

 3472\CCSD=-2.3446772\CCSD(T)=-2.344678\RMSD=2.815e-09\PG=CS [SG(H4)]\\
 Normal termination of Gaussian 16 at Fri Feb  9 17:45:22 2024.
