 Gaussian 16, Revision A.03,
 Gaussian 16:  ES64L-G16RevA.03 25-Dec-2016

 ------------------
 #p CCSD(T)/cc-pVTZ
 ------------------

 --------
 H2_H2_27
 --------
 Symbolic Z-matrix:
 Charge =  0 Multiplicity = 1

                         Standard orientation:
 ---------------------------------------------------------------------
 Center     Atomic      Atomic             Coordinates (Angstroms)
 Number     Number       Type             X           Y           Z
 ---------------------------------------------------------------------
      1          1           0        0.000000    0.000000    1.420000
      2          1           0        0.000000    0.000000    0.680000
      3          1           0        0.000000    0.000000   -0.680000
      4          1           0        0.000000    0.000000   -1.420000
 ---------------------------------------------------------------------

 SCF Done:  E(RHF) =  -2.25043889900     A.U. after    7 cycles
 E2 =    -0.6674181146D-01 EUMP2 =    -0.23171807104622D+01
 CCSD(T)
 CCSD(T)= -0.23326756763D+01

 The electronic state is 1-SGG.
 Alpha  occ. eigenvalues --   -0.66426  -0.54077
 Alpha virt. eigenvalues --    0.16664   0.22767   0.31988   0.52086   0.54738
 Alpha virt. eigenvalues --    0.61500   0.61500   0.74702   0.74702   0.74904
 Alpha virt. eigenvalues --    1.03223   1.03223   1.15802   1.42306   1.42306

 Mulliken charges:
               1
     1  H    0.034678
     2  H   -0.034678
     3  H   -0.034678
     4  H    0.034678
 Sum of Mulliken charges =  -0.00000

 Dipole moment (field-independent basis, Debye):
    X=              0.0000    Y=             -0.0000    Z=              0.0000  Tot=              0.0000
 Quadrupole moment (field-independent basis, Debye-Ang):
   XX=             -4.0736   YY=             -4.0736   ZZ=             -3.1744
   XY=             -0.0000   XZ=             -0.0000   YZ=              0.0000

 447\CCSD=-2.3323306\CCSD(T)=-2.3326757\RMSD=5.559e-09\PG=D*H [C*(H1H1.
 Normal termination of Gaussian 16 at Fri Feb  9 17:39:17 2024.
