 Gaussian 16, Revision A.03,
 Gaussian 16:  ES64L-G16RevA.03 25-Dec-2016

 ------------------
 #p CCSD(T)/cc-pVTZ
 ------------------

 ---------
 H2_H2_188
 ---------
 Symbolic Z-matrix:
 Charge =  0 Multiplicity = 1

                         Standard orientation:
 ---------------------------------------------------------------------
 Center     Atomic      Atomic             Coordinates (Angstroms)
 Number     Number       Type             X           Y           Z
 ---------------------------------------------------------------------
      1          1           0       -0.323698   -1.977086    0.000000
      2          1           0        0.411120   -1.889664    0.000000
      3          1           0        0.000000    1.565966    0.000000
      4          1           0       -0.087422    2.300784    0.000000
 ---------------------------------------------------------------------

 SCF Done:  E(RHF) =  -2.26594085890     A.U. after    7 cycles
 E2 =    -0.6341669195D-01 EUMP2 =    -0.23293575508421D+01
 CCSD(T)
 CCSD(T)= -0.23447404105D+01

 The electronic state is 1-A'.
 Alpha  occ. eigenvalues --   -0.59729  -0.59266
 Alpha virt. eigenvalues --    0.16154   0.17065   0.28309   0.35089   0.62305
 Alpha virt. eigenvalues --    0.64120   0.69151   0.69342   0.69528   0.74437
 Alpha virt. eigenvalues --    1.08733   1.11193   1.11900   1.11985   1.12089

 Mulliken charges:
               1
     1  H    0.001011
     2  H   -0.000953
     3  H    0.000642
     4  H   -0.000699
 Sum of Mulliken charges =  -0.00000

 Dipole moment (field-independent basis, Debye):
    X=             -0.0013    Y=             -0.0067    Z=              0.0000  Tot=              0.0068
 Quadrupole moment (field-independent basis, Debye-Ang):
   XX=             -3.5576   YY=             -3.5660   ZZ=             -4.1804
   XY=              0.0023   XZ=              0.0000   YZ=              0.0000

 5331\CCSD=-2.3447344\CCSD(T)=-2.3447404\RMSD=2.272e-09\PG=CS [SG(H4)]\
 Normal termination of Gaussian 16 at Fri Feb  9 17:42:54 2024.
