 Gaussian 16, Revision A.03,
 Gaussian 16:  ES64L-G16RevA.03 25-Dec-2016

 ------------------
 #p CCSD(T)/cc-pVTZ
 ------------------

 --------
 H2_H2_61
 --------
 Symbolic Z-matrix:
 Charge =  0 Multiplicity = 1

                         Standard orientation:
 ---------------------------------------------------------------------
 Center     Atomic      Atomic             Coordinates (Angstroms)
 Number     Number       Type             X           Y           Z
 ---------------------------------------------------------------------
      1          1           0       -0.162015   -1.520067    0.000000
      2          1           0        0.275119   -0.922979    0.000000
      3          1           0       -0.000000    0.855871    0.000000
      4          1           0       -0.113105    1.587176    0.000000
 ---------------------------------------------------------------------

 SCF Done:  E(RHF) =  -2.26137995347     A.U. after    7 cycles
 E2 =    -0.6483564165D-01 EUMP2 =    -0.23262155951193D+01
 CCSD(T)
 CCSD(T)= -0.23416776889D+01

 The electronic state is 1-A'.
 Alpha  occ. eigenvalues --   -0.62860  -0.56677
 Alpha virt. eigenvalues --    0.16266   0.20916   0.30578   0.38478   0.59131
 Alpha virt. eigenvalues --    0.64447   0.66064   0.70297   0.72528   0.77715
 Alpha virt. eigenvalues --    1.01443   1.03433   1.09709   1.22568   1.26053

 Mulliken charges:
               1
     1  H    0.011434
     2  H   -0.008752
     3  H    0.002511
     4  H   -0.005194
 Sum of Mulliken charges =  -0.00000

 Dipole moment (field-independent basis, Debye):
    X=             -0.0228    Y=             -0.0300    Z=              0.0000  Tot=              0.0377
 Quadrupole moment (field-independent basis, Debye-Ang):
   XX=             -3.9068   YY=             -3.2727   ZZ=             -4.1393
   XY=              0.2186   XZ=              0.0000   YZ=              0.0000

 277\MP4SDQ=-2.3404188\CCSD=-2.3415268\CCSD(T)=-2.3416777\RMSD=1.819e-0
 Normal termination of Gaussian 16 at Fri Feb  9 17:40:03 2024.
