 Gaussian 16, Revision A.03,
 Gaussian 16:  ES64L-G16RevA.03 25-Dec-2016

 ------------------
 #p CCSD(T)/cc-pVTZ
 ------------------

 ---------
 H2_H2_187
 ---------
 Symbolic Z-matrix:
 Charge =  0 Multiplicity = 1

                         Standard orientation:
 ---------------------------------------------------------------------
 Center     Atomic      Atomic             Coordinates (Angstroms)
 Number     Number       Type             X           Y           Z
 ---------------------------------------------------------------------
      1          1           0       -0.211980   -2.340860    0.000000
      2          1           0        0.269229   -1.778688    0.000000
      3          1           0        0.000000    1.690883   -0.000000
      4          1           0       -0.057250    2.428665   -0.000000
 ---------------------------------------------------------------------

 SCF Done:  E(RHF) =  -2.26591209280     A.U. after    6 cycles
 E2 =    -0.6341059027D-01 EUMP2 =    -0.23293226830787D+01
 CCSD(T)
 CCSD(T)= -0.23447063869D+01

 The electronic state is 1-A'.
 Alpha  occ. eigenvalues --   -0.59685  -0.59383
 Alpha virt. eigenvalues --    0.14288   0.19460   0.28531   0.35190   0.63990
 Alpha virt. eigenvalues --    0.65768   0.69171   0.69253   0.69266   0.71857
 Alpha virt. eigenvalues --    1.08754   1.10714   1.11806   1.12000   1.12094

 Mulliken charges:
               1
     1  H    0.002331
     2  H   -0.002329
     3  H   -0.000243
     4  H    0.000240
 Sum of Mulliken charges =  -0.00000

 Dipole moment (field-independent basis, Debye):
    X=             -0.0045    Y=             -0.0017    Z=              0.0000  Tot=              0.0048
 Quadrupole moment (field-independent basis, Debye-Ang):
   XX=             -3.9133   YY=             -3.1748   ZZ=             -4.1805
   XY=              0.2633   XZ=             -0.0000   YZ=             -0.0000

 433508\MP4SDQ=-2.3434985\CCSD=-2.3447004\CCSD(T)=-2.3447064\RMSD=5.718
 Normal termination of Gaussian 16 at Fri Feb  9 17:42:53 2024.
