 Gaussian 16, Revision A.03,
 Gaussian 16:  ES64L-G16RevA.03 25-Dec-2016

 ------------------
 #p CCSD(T)/cc-pVTZ
 ------------------

 ---------
 H2_H2_117
 ---------
 Symbolic Z-matrix:
 Charge =  0 Multiplicity = 1

                         Standard orientation:
 ---------------------------------------------------------------------
 Center     Atomic      Atomic             Coordinates (Angstroms)
 Number     Number       Type             X           Y           Z
 ---------------------------------------------------------------------
      1          1           0        0.000000    0.000000    2.020000
      2          1           0        0.000000    0.000000    1.280000
      3          1           0        0.000000    0.000000   -1.280000
      4          1           0        0.000000    0.000000   -2.020000
 ---------------------------------------------------------------------

 SCF Done:  E(RHF) =  -2.26556133672     A.U. after    7 cycles
 E2 =    -0.6365267858D-01 EUMP2 =    -0.23292140152988D+01
 CCSD(T)
 CCSD(T)= -0.23446226413D+01

 The electronic state is 1-SGG.
 Alpha  occ. eigenvalues --   -0.60376  -0.58934
 Alpha virt. eigenvalues --    0.14842   0.21277   0.28878   0.41625   0.65503
 Alpha virt. eigenvalues --    0.68401   0.68401   0.69198   0.69736   0.69736
 Alpha virt. eigenvalues --    0.99152   1.08629   1.08629   1.15215   1.15215

 Mulliken charges:
               1
     1  H   -0.001262
     2  H    0.001262
     3  H    0.001262
     4  H   -0.001262
 Sum of Mulliken charges =   0.00000

 Dipole moment (field-independent basis, Debye):
    X=             -0.0000    Y=             -0.0000    Z=              0.0000  Tot=              0.0000
 Quadrupole moment (field-independent basis, Debye-Ang):
   XX=             -4.1800   YY=             -4.1800   ZZ=             -2.8373
   XY=             -0.0000   XZ=             -0.0000   YZ=              0.0000

 033\CCSD=-2.3445902\CCSD(T)=-2.3446226\RMSD=1.488e-09\PG=D*H [C*(H1H1.
 Normal termination of Gaussian 16 at Fri Feb  9 17:41:18 2024.
