 Gaussian 16, Revision A.03,
 Gaussian 16:  ES64L-G16RevA.03 25-Dec-2016

 ------------------
 #p CCSD(T)/cc-pVTZ
 ------------------

 --------
 H2_H2_63
 --------
 Symbolic Z-matrix:
 Charge =  0 Multiplicity = 1

                         Standard orientation:
 ---------------------------------------------------------------------
 Center     Atomic      Atomic             Coordinates (Angstroms)
 Number     Number       Type             X           Y           Z
 ---------------------------------------------------------------------
      1          1           0        0.000000    0.000000    1.660000
      2          1           0        0.000000    0.000000    0.920000
      3          1           0        0.000000    0.000000   -0.920000
      4          1           0        0.000000    0.000000   -1.660000
 ---------------------------------------------------------------------

 SCF Done:  E(RHF) =  -2.26243938480     A.U. after    7 cycles
 E2 =    -0.6464451532D-01 EUMP2 =    -0.23270839001204D+01
 CCSD(T)
 CCSD(T)= -0.23425389126D+01

 The electronic state is 1-SGG.
 Alpha  occ. eigenvalues --   -0.62487  -0.57203
 Alpha virt. eigenvalues --    0.16230   0.21933   0.30089   0.48155   0.59999
 Alpha virt. eigenvalues --    0.64934   0.64934   0.67663   0.71926   0.71926
 Alpha virt. eigenvalues --    1.02117   1.02117   1.03342   1.27242   1.27242

 Mulliken charges:
               1
     1  H    0.008149
     2  H   -0.008149
     3  H   -0.008149
     4  H    0.008149
 Sum of Mulliken charges =  -0.00000

 Dipole moment (field-independent basis, Debye):
    X=             -0.0000    Y=              0.0000    Z=              0.0000  Tot=              0.0000
 Quadrupole moment (field-independent basis, Debye-Ang):
   XX=             -4.1502   YY=             -4.1502   ZZ=             -2.9008
   XY=             -0.0000   XZ=             -0.0000   YZ=              0.0000

 12821\CCSD=-2.3424011\CCSD(T)=-2.3425389\RMSD=1.318e-09\PG=D*H [C*(H1H
 Normal termination of Gaussian 16 at Fri Feb  9 17:40:06 2024.
