 Gaussian 16, Revision A.03,
 Gaussian 16:  ES64L-G16RevA.03 25-Dec-2016

 ------------------
 #p CCSD(T)/cc-pVTZ
 ------------------

 ---------
 H2_H2_141
 ---------
 Symbolic Z-matrix:
 Charge =  0 Multiplicity = 1

                         Standard orientation:
 ---------------------------------------------------------------------
 Center     Atomic      Atomic             Coordinates (Angstroms)
 Number     Number       Type             X           Y           Z
 ---------------------------------------------------------------------
      1          1           0        0.000000    0.000000    2.180000
      2          1           0        0.000000    0.000000    1.440000
      3          1           0        0.000000    0.000000   -1.440000
      4          1           0        0.000000    0.000000   -2.180000
 ---------------------------------------------------------------------

 SCF Done:  E(RHF) =  -2.26578692034     A.U. after    6 cycles
 E2 =    -0.6351685518D-01 EUMP2 =    -0.23293037755196D+01
 CCSD(T)
 CCSD(T)= -0.23447004186D+01

 The electronic state is 1-SGG.
 Alpha  occ. eigenvalues --   -0.60013  -0.59211
 Alpha virt. eigenvalues --    0.14266   0.21034   0.28711   0.39101   0.66773
 Alpha virt. eigenvalues --    0.68240   0.68890   0.68890   0.69385   0.69385
 Alpha virt. eigenvalues --    1.06103   1.10552   1.10552   1.13203   1.13203

 Mulliken charges:
               1
     1  H    0.000150
     2  H   -0.000150
     3  H   -0.000150
     4  H    0.000150
 Sum of Mulliken charges =   0.00000

 Dipole moment (field-independent basis, Debye):
    X=             -0.0000    Y=             -0.0000    Z=              0.0000  Tot=              0.0000
 Quadrupole moment (field-independent basis, Debye-Ang):
   XX=             -4.1815   YY=             -4.1815   ZZ=             -2.8504
   XY=             -0.0000   XZ=             -0.0000   YZ=              0.0000

 434872\CCSD=-2.3446827\CCSD(T)=-2.3447004\RMSD=9.741e-09\PG=D*H [C*(H1
 Normal termination of Gaussian 16 at Fri Feb  9 17:41:51 2024.
