 Gaussian 16, Revision A.03,
 Gaussian 16:  ES64L-G16RevA.03 25-Dec-2016

 ------------------
 #p CCSD(T)/cc-pVTZ
 ------------------

 --------
 H2_H2_55
 --------
 Symbolic Z-matrix:
 Charge =  0 Multiplicity = 1

                         Standard orientation:
 ---------------------------------------------------------------------
 Center     Atomic      Atomic             Coordinates (Angstroms)
 Number     Number       Type             X           Y           Z
 ---------------------------------------------------------------------
      1          1           0       -0.157036   -1.481755   -0.000000
      2          1           0        0.275614   -0.881410   -0.000000
      3          1           0       -0.000000    0.816364    0.000000
      4          1           0       -0.118578    1.546802    0.000000
 ---------------------------------------------------------------------

 SCF Done:  E(RHF) =  -2.26007066037     A.U. after    7 cycles
 E2 =    -0.6509841375D-01 EUMP2 =    -0.23251690741134D+01
 CCSD(T)
 CCSD(T)= -0.23406391706D+01

 The electronic state is 1-A'.
 Alpha  occ. eigenvalues --   -0.63363  -0.56247
 Alpha virt. eigenvalues --    0.16311   0.21032   0.30837   0.38328   0.58400
 Alpha virt. eigenvalues --    0.63828   0.66684   0.70524   0.72989   0.78495
 Alpha virt. eigenvalues --    1.01643   1.03335   1.11669   1.23991   1.27785

 Mulliken charges:
               1
     1  H    0.010943
     2  H   -0.007795
     3  H    0.001284
     4  H   -0.004431
 Sum of Mulliken charges =  -0.00000

 Dipole moment (field-independent basis, Debye):
    X=             -0.0237    Y=             -0.0359    Z=             -0.0000  Tot=              0.0430
 Quadrupole moment (field-independent basis, Debye-Ang):
   XX=             -3.9002   YY=             -3.3075   ZZ=             -4.1293
   XY=              0.2150   XZ=             -0.0000   YZ=             -0.0000

 392302\MP4SDQ=-2.3393718\CCSD=-2.3404626\CCSD(T)=-2.3406392\RMSD=1.764
 Normal termination of Gaussian 16 at Fri Feb  9 17:39:54 2024.
