 Gaussian 16, Revision A.03,
 Gaussian 16:  ES64L-G16RevA.03 25-Dec-2016

 ------------------
 #p CCSD(T)/cc-pVTZ
 ------------------

 ---------
 H2_H2_114
 ---------
 Symbolic Z-matrix:
 Charge =  0 Multiplicity = 1

                         Standard orientation:
 ---------------------------------------------------------------------
 Center     Atomic      Atomic             Coordinates (Angstroms)
 Number     Number       Type             X           Y           Z
 ---------------------------------------------------------------------
      1          1           0        0.000000    0.000000    2.000000
      2          1           0        0.000000    0.000000    1.260000
      3          1           0        0.000000    0.000000   -1.260000
      4          1           0        0.000000    0.000000   -2.000000
 ---------------------------------------------------------------------

 SCF Done:  E(RHF) =  -2.26551330162     A.U. after    7 cycles
 E2 =    -0.6367721835D-01 EUMP2 =    -0.23291905199655D+01
 CCSD(T)
 CCSD(T)= -0.23446010330D+01

 The electronic state is 1-SGG.
 Alpha  occ. eigenvalues --   -0.60437  -0.58886
 Alpha virt. eigenvalues --    0.14920   0.21306   0.28909   0.41964   0.65414
 Alpha virt. eigenvalues --    0.68306   0.68306   0.69061   0.69802   0.69802
 Alpha virt. eigenvalues --    0.98432   1.08303   1.08303   1.15583   1.15583

 Mulliken charges:
               1
     1  H   -0.001418
     2  H    0.001418
     3  H    0.001418
     4  H   -0.001418
 Sum of Mulliken charges =   0.00000

 Dipole moment (field-independent basis, Debye):
    X=             -0.0000    Y=              0.0000    Z=             -0.0000  Tot=              0.0000
 Quadrupole moment (field-independent basis, Debye-Ang):
   XX=             -4.1796   YY=             -4.1796   ZZ=             -2.8364
   XY=             -0.0000   XZ=             -0.0000   YZ=              0.0000

 33806\CCSD=-2.3445659\CCSD(T)=-2.344601\RMSD=1.473e-09\PG=D*H [C*(H1H1
 Normal termination of Gaussian 16 at Fri Feb  9 17:41:14 2024.
