 Gaussian 16, Revision A.03,
 Gaussian 16:  ES64L-G16RevA.03 25-Dec-2016

 ------------------
 #p CCSD(T)/cc-pVTZ
 ------------------

 ---------
 H2_H2_142
 ---------
 Symbolic Z-matrix:
 Charge =  0 Multiplicity = 1

                         Standard orientation:
 ---------------------------------------------------------------------
 Center     Atomic      Atomic             Coordinates (Angstroms)
 Number     Number       Type             X           Y           Z
 ---------------------------------------------------------------------
      1          1           0       -0.201112   -2.045397    0.000000
      2          1           0        0.270656   -1.475279    0.000000
      3          1           0        0.000000    1.391976   -0.000000
      4          1           0       -0.069544    2.128701   -0.000000
 ---------------------------------------------------------------------

 SCF Done:  E(RHF) =  -2.26579982597     A.U. after    7 cycles
 E2 =    -0.6351680765D-01 EUMP2 =    -0.23293166336228D+01
 CCSD(T)
 CCSD(T)= -0.23447108811D+01

 The electronic state is 1-A'.
 Alpha  occ. eigenvalues --   -0.60020  -0.59125
 Alpha virt. eigenvalues --    0.14844   0.19901   0.28626   0.37532   0.62314
 Alpha virt. eigenvalues --    0.66876   0.68906   0.69441   0.69482   0.74331
 Alpha virt. eigenvalues --    1.06174   1.09276   1.10685   1.12507   1.13161

 Mulliken charges:
               1
     1  H    0.005217
     2  H   -0.005071
     3  H    0.000457
     4  H   -0.000603
 Sum of Mulliken charges =   0.00000

 Dipole moment (field-independent basis, Debye):
    X=             -0.0091    Y=             -0.0029    Z=              0.0000  Tot=              0.0095
 Quadrupole moment (field-independent basis, Debye-Ang):
   XX=             -3.9218   YY=             -3.1569   ZZ=             -4.1809
   XY=              0.2548   XZ=              0.0000   YZ=             -0.0000

 3433523\MP4SDQ=-2.3434988\CCSD=-2.3446939\CCSD(T)=-2.3447109\RMSD=1.85
 Normal termination of Gaussian 16 at Fri Feb  9 17:41:52 2024.
