 Gaussian 16, Revision A.03,
 Gaussian 16:  ES64L-G16RevA.03 25-Dec-2016

 ------------------
 #p CCSD(T)/cc-pVTZ
 ------------------

 -------
 H2_H2_3
 -------
 Symbolic Z-matrix:
 Charge =  0 Multiplicity = 1

                         Standard orientation:
 ---------------------------------------------------------------------
 Center     Atomic      Atomic             Coordinates (Angstroms)
 Number     Number       Type             X           Y           Z
 ---------------------------------------------------------------------
      1          1           0        0.000000    0.000000    1.260000
      2          1           0        0.000000    0.000000    0.520000
      3          1           0        0.000000    0.000000   -0.520000
      4          1           0        0.000000    0.000000   -1.260000
 ---------------------------------------------------------------------

 SCF Done:  E(RHF) =  -2.22436773812     A.U. after    8 cycles
 E2 =    -0.6967779526D-01 EUMP2 =    -0.22940455333755D+01
 CCSD(T)
 CCSD(T)= -0.23096686411D+01

 The electronic state is 1-SGG.
 Alpha  occ. eigenvalues --   -0.71857  -0.50284
 Alpha virt. eigenvalues --    0.16336   0.23612   0.33601   0.51743   0.52846
 Alpha virt. eigenvalues --    0.59566   0.59566   0.77095   0.77095   0.83312
 Alpha virt. eigenvalues --    1.08379   1.08379   1.25577   1.54823   1.54823

 Mulliken charges:
               1
     1  H    0.014383
     2  H   -0.014383
     3  H   -0.014383
     4  H    0.014383
 Sum of Mulliken charges =  -0.00000

 Dipole moment (field-independent basis, Debye):
    X=             -0.0000    Y=              0.0000    Z=             -0.0000  Tot=              0.0000
 Quadrupole moment (field-independent basis, Debye-Ang):
   XX=             -3.9727   YY=             -3.9727   ZZ=             -3.6045
   XY=             -0.0000   XZ=              0.0000   YZ=              0.0000

 1982\CCSD=-2.3090692\CCSD(T)=-2.3096686\RMSD=1.158e-09\PG=D*H [C*(H1H1
 Normal termination of Gaussian 16 at Fri Feb  9 17:38:44 2024.
