 Gaussian 16, Revision A.03,
 Gaussian 16:  ES64L-G16RevA.03 25-Dec-2016

 ------------------
 #p CCSD(T)/cc-pVTZ
 ------------------

 ---------
 H2_H2_198
 ---------
 Symbolic Z-matrix:
 Charge =  0 Multiplicity = 1

                         Standard orientation:
 ---------------------------------------------------------------------
 Center     Atomic      Atomic             Coordinates (Angstroms)
 Number     Number       Type             X           Y           Z
 ---------------------------------------------------------------------
      1          1           0        0.000000    0.000000    2.560000
      2          1           0        0.000000    0.000000    1.820000
      3          1           0        0.000000    0.000000   -1.820000
      4          1           0        0.000000    0.000000   -2.560000
 ---------------------------------------------------------------------

 SCF Done:  E(RHF) =  -2.26590344552     A.U. after    6 cycles
 E2 =    -0.6340034460D-01 EUMP2 =    -0.23293037901219D+01
 CCSD(T)
 CCSD(T)= -0.23446871569D+01

 The electronic state is 1-SGG.
 Alpha  occ. eigenvalues --   -0.59648  -0.59452
 Alpha virt. eigenvalues --    0.13639   0.20161   0.28776   0.34617   0.63403
 Alpha virt. eigenvalues --    0.69183   0.69183   0.69208   0.69208   0.69830
 Alpha virt. eigenvalues --    1.08673   1.10784   1.11855   1.11855   1.12004

 Mulliken charges:
               1
     1  H    0.000917
     2  H   -0.000917
     3  H   -0.000917
     4  H    0.000917
 Sum of Mulliken charges =  -0.00000

 Dipole moment (field-independent basis, Debye):
    X=             -0.0000    Y=             -0.0000    Z=             -0.0000  Tot=              0.0000
 Quadrupole moment (field-independent basis, Debye-Ang):
   XX=             -4.1802   YY=             -4.1802   ZZ=             -2.8881
   XY=             -0.0000   XZ=             -0.0000   YZ=              0.0000

 434793\CCSD=-2.3446821\CCSD(T)=-2.3446872\RMSD=2.969e-09\PG=D*H [C*(H1
 Normal termination of Gaussian 16 at Fri Feb  9 17:43:08 2024.
