 Gaussian 16, Revision A.03,
 Gaussian 16:  ES64L-G16RevA.03 25-Dec-2016

 ------------------
 #p CCSD(T)/cc-pVTZ
 ------------------

 ---------
 H2_H2_168
 ---------
 Symbolic Z-matrix:
 Charge =  0 Multiplicity = 1

                         Standard orientation:
 ---------------------------------------------------------------------
 Center     Atomic      Atomic             Coordinates (Angstroms)
 Number     Number       Type             X           Y           Z
 ---------------------------------------------------------------------
      1          1           0        0.000000    0.000000    2.360000
      2          1           0        0.000000    0.000000    1.620000
      3          1           0        0.000000    0.000000   -1.620000
      4          1           0        0.000000    0.000000   -2.360000
 ---------------------------------------------------------------------

 SCF Done:  E(RHF) =  -2.26587352482     A.U. after    6 cycles
 E2 =    -0.6344124064D-01 EUMP2 =    -0.23293147654661D+01
 CCSD(T)
 CCSD(T)= -0.23447031763D+01

 The electronic state is 1-SGG.
 Alpha  occ. eigenvalues --   -0.59784  -0.59371
 Alpha virt. eigenvalues --    0.13802   0.20684   0.28661   0.36709   0.65692
 Alpha virt. eigenvalues --    0.68674   0.69105   0.69105   0.69240   0.69240
 Alpha virt. eigenvalues --    1.10022   1.10275   1.11521   1.11521   1.12284

 Mulliken charges:
               1
     1  H    0.000858
     2  H   -0.000858
     3  H   -0.000858
     4  H    0.000858
 Sum of Mulliken charges =  -0.00000

 Dipole moment (field-independent basis, Debye):
    X=             -0.0000    Y=              0.0000    Z=             -0.0000  Tot=              0.0000
 Quadrupole moment (field-independent basis, Debye-Ang):
   XX=             -4.1811   YY=             -4.1811   ZZ=             -2.8696
   XY=             -0.0000   XZ=             -0.0000   YZ=              0.0000

 434935\CCSD=-2.3446937\CCSD(T)=-2.3447032\RMSD=4.523e-09\PG=D*H [C*(H1
 Normal termination of Gaussian 16 at Fri Feb  9 17:42:27 2024.
