 Gaussian 16, Revision A.03,
 Gaussian 16:  ES64L-G16RevA.03 25-Dec-2016

 ------------------
 #p CCSD(T)/cc-pVTZ
 ------------------

 ---------
 H2_H2_208
 ---------
 Symbolic Z-matrix:
 Charge =  0 Multiplicity = 1

                         Standard orientation:
 ---------------------------------------------------------------------
 Center     Atomic      Atomic             Coordinates (Angstroms)
 Number     Number       Type             X           Y           Z
 ---------------------------------------------------------------------
      1          1           0       -0.215822   -2.479207    0.000000
      2          1           0        0.268705   -1.919891    0.000000
      3          1           0       -0.000000    1.830494   -0.000000
      4          1           0       -0.052884    2.568604   -0.000000
 ---------------------------------------------------------------------

 SCF Done:  E(RHF) =  -2.26592202810     A.U. after    6 cycles
 E2 =    -0.6339001778D-01 EUMP2 =    -0.23293120458791D+01
 CCSD(T)
 CCSD(T)= -0.23446934142D+01

 The electronic state is 1-A'.
 Alpha  occ. eigenvalues --   -0.59614  -0.59430
 Alpha virt. eigenvalues --    0.14285   0.19192   0.28671   0.34115   0.63219
 Alpha virt. eigenvalues --    0.66767   0.69195   0.69249   0.69254   0.70848
 Alpha virt. eigenvalues --    1.08852   1.10401   1.11912   1.11992   1.12010

 Mulliken charges:
               1
     1  H    0.001592
     2  H   -0.001593
     3  H   -0.000289
     4  H    0.000289
 Sum of Mulliken charges =  -0.00000

 Dipole moment (field-independent basis, Debye):
    X=             -0.0032    Y=             -0.0016    Z=              0.0000  Tot=              0.0035
 Quadrupole moment (field-independent basis, Debye-Ang):
   XX=             -3.9100   YY=             -3.1826   ZZ=             -4.1801
   XY=              0.2661   XZ=             -0.0000   YZ=             -0.0000

 33384\MP4SDQ=-2.3434863\CCSD=-2.3446896\CCSD(T)=-2.3446934\RMSD=3.818e
 Normal termination of Gaussian 16 at Fri Feb  9 17:43:21 2024.
