 Gaussian 16, Revision A.03,
 Gaussian 16:  ES64L-G16RevA.03 25-Dec-2016

 ------------------
 #p CCSD(T)/cc-pVTZ
 ------------------

 ---------
 H2_H2_219
 ---------
 Symbolic Z-matrix:
 Charge =  0 Multiplicity = 1

                         Standard orientation:
 ---------------------------------------------------------------------
 Center     Atomic      Atomic             Coordinates (Angstroms)
 Number     Number       Type             X           Y           Z
 ---------------------------------------------------------------------
      1          1           0        0.000000    0.000000    2.700000
      2          1           0        0.000000    0.000000    1.960000
      3          1           0        0.000000    0.000000   -1.960000
      4          1           0        0.000000    0.000000   -2.700000
 ---------------------------------------------------------------------

 SCF Done:  E(RHF) =  -2.26591192540     A.U. after    6 cycles
 E2 =    -0.6338458156D-01 EUMP2 =    -0.23292965069601D+01
 CCSD(T)
 CCSD(T)= -0.23446778272D+01

 The electronic state is 1-SGG.
 Alpha  occ. eigenvalues --   -0.59595  -0.59479
 Alpha virt. eigenvalues --    0.13779   0.19716   0.28953   0.33486   0.62452
 Alpha virt. eigenvalues --    0.69204   0.69204   0.69211   0.69211   0.69669
 Alpha virt. eigenvalues --    1.08817   1.10410   1.11923   1.11923   1.11964

 Mulliken charges:
               1
     1  H    0.000815
     2  H   -0.000815
     3  H   -0.000815
     4  H    0.000815
 Sum of Mulliken charges =   0.00000

 Dipole moment (field-independent basis, Debye):
    X=              0.0000    Y=              0.0000    Z=             -0.0000  Tot=              0.0000
 Quadrupole moment (field-independent basis, Debye-Ang):
   XX=             -4.1799   YY=             -4.1799   ZZ=             -2.8977
   XY=             -0.0000   XZ=             -0.0000   YZ=              0.0000

 434707\CCSD=-2.3446744\CCSD(T)=-2.3446778\RMSD=3.201e-09\PG=D*H [C*(H1
 Normal termination of Gaussian 16 at Fri Feb  9 17:43:36 2024.
