 Gaussian 16, Revision A.03,
 Gaussian 16:  ES64L-G16RevA.03 25-Dec-2016

 ------------------
 #p CCSD(T)/cc-pVTZ
 ------------------

 --------
 H2_H2_65
 --------
 Symbolic Z-matrix:
 Charge =  0 Multiplicity = 1

                         Standard orientation:
 ---------------------------------------------------------------------
 Center     Atomic      Atomic             Coordinates (Angstroms)
 Number     Number       Type             X           Y           Z
 ---------------------------------------------------------------------
      1          1           0       -0.268496   -1.207046    0.000000
      2          1           0        0.449121   -1.026421    0.000000
      3          1           0       -0.000000    0.757925    0.000000
      4          1           0       -0.180625    1.475542    0.000000
 ---------------------------------------------------------------------

 SCF Done:  E(RHF) =  -2.25923689057     A.U. after    7 cycles
 E2 =    -0.6515686923D-01 EUMP2 =    -0.23243937598002D+01
 CCSD(T)
 CCSD(T)= -0.23398770371D+01

 The electronic state is 1-A'.
 Alpha  occ. eigenvalues --   -0.63526  -0.55677
 Alpha virt. eigenvalues --    0.15905   0.20066   0.30520   0.34937   0.60942
 Alpha virt. eigenvalues --    0.63510   0.65177   0.70303   0.73878   0.82510
 Alpha virt. eigenvalues --    1.01415   1.09621   1.11532   1.17470   1.29996

 Mulliken charges:
               1
     1  H    0.004325
     2  H    0.004286
     3  H    0.012954
     4  H   -0.021564
 Sum of Mulliken charges =   0.00000

 Dipole moment (field-independent basis, Debye):
    X=             -0.0022    Y=             -0.1254    Z=              0.0000  Tot=              0.1254
 Quadrupole moment (field-independent basis, Debye-Ang):
   XX=             -3.4992   YY=             -3.8560   ZZ=             -4.1222
   XY=              0.0384   XZ=              0.0000   YZ=              0.0000

 167\CCSD=-2.3397109\CCSD(T)=-2.339877\RMSD=2.585e-09\PG=CS [SG(H4)]\\@
 Normal termination of Gaussian 16 at Fri Feb  9 17:40:08 2024.
