 Gaussian 16, Revision A.03,
 Gaussian 16:  ES64L-G16RevA.03 25-Dec-2016

 ------------------
 #p CCSD(T)/cc-pVTZ
 ------------------

 -------
 H2_H2_5
 -------
 Symbolic Z-matrix:
 Charge =  0 Multiplicity = 1

                         Standard orientation:
 ---------------------------------------------------------------------
 Center     Atomic      Atomic             Coordinates (Angstroms)
 Number     Number       Type             X           Y           Z
 ---------------------------------------------------------------------
      1          1           0       -0.145027   -0.885447    0.000000
      2          1           0        0.502760   -0.527715    0.000000
      3          1           0       -0.000000    0.382688    0.000000
      4          1           0       -0.357733    1.030474    0.000000
 ---------------------------------------------------------------------

 SCF Done:  E(RHF) =  -2.19154557887     A.U. after    8 cycles
 E2 =    -0.7111912595D-01 EUMP2 =    -0.22626647048197D+01
 CCSD(T)
 CCSD(T)= -0.22782720193D+01

 The electronic state is 1-A'.
 Alpha  occ. eigenvalues --   -0.75972  -0.46016
 Alpha virt. eigenvalues --    0.14200   0.20765   0.30640   0.38099   0.57065
 Alpha virt. eigenvalues --    0.57255   0.68608   0.74867   0.82659   1.03879
 Alpha virt. eigenvalues --    1.08464   1.09808   1.16423   1.32562   1.49049

 Mulliken charges:
               1
     1  H    0.045022
     2  H    0.032002
     3  H    0.042783
     4  H   -0.119808
 Sum of Mulliken charges =  -0.00000

 Dipole moment (field-independent basis, Debye):
    X=              0.1486    Y=             -0.6217    Z=              0.0000  Tot=              0.6392
 Quadrupole moment (field-independent basis, Debye-Ang):
   XX=             -3.4076   YY=             -4.9430   ZZ=             -3.9247
   XY=              0.4621   XZ=              0.0000   YZ=              0.0000

 014\CCSD=-2.2776211\CCSD(T)=-2.278272\RMSD=4.642e-09\PG=CS [SG(H4)]\\@
 Normal termination of Gaussian 16 at Fri Feb  9 17:38:47 2024.
