 Gaussian 16, Revision A.03,
 Gaussian 16:  ES64L-G16RevA.03 25-Dec-2016

 ------------------
 #p CCSD(T)/cc-pVTZ
 ------------------

 -------
 H2_H2_4
 -------
 Symbolic Z-matrix:
 Charge =  0 Multiplicity = 1

                         Standard orientation:
 ---------------------------------------------------------------------
 Center     Atomic      Atomic             Coordinates (Angstroms)
 Number     Number       Type             X           Y           Z
 ---------------------------------------------------------------------
      1          1           0       -0.081111   -1.162677    0.000000
      2          1           0        0.281186   -0.517432    0.000000
      3          1           0        0.000000    0.483835    0.000000
      4          1           0       -0.200074    1.196274    0.000000
 ---------------------------------------------------------------------

 SCF Done:  E(RHF) =  -2.21844548521     A.U. after    8 cycles
 E2 =    -0.6994641495D-01 EUMP2 =    -0.22883919001523D+01
 CCSD(T)
 CCSD(T)= -0.23040319711D+01

 The electronic state is 1-A'.
 Alpha  occ. eigenvalues --   -0.72518  -0.49379
 Alpha virt. eigenvalues --    0.15652   0.22082   0.31608   0.37789   0.54155
 Alpha virt. eigenvalues --    0.59073   0.69113   0.78273   0.78375   0.89712
 Alpha virt. eigenvalues --    1.07381   1.09542   1.30773   1.41176   1.44489

 Mulliken charges:
               1
     1  H   -0.010765
     2  H    0.024901
     3  H    0.026244
     4  H   -0.040380
 Sum of Mulliken charges =  -0.00000

 Dipole moment (field-independent basis, Debye):
    X=             -0.0060    Y=             -0.1468    Z=              0.0000  Tot=              0.1469
 Quadrupole moment (field-independent basis, Debye-Ang):
   XX=             -3.7767   YY=             -4.0293   ZZ=             -3.9571
   XY=              0.2201   XZ=              0.0000   YZ=             -0.0000

 037\MP4SDQ=-2.3025618\CCSD=-2.3034279\CCSD(T)=-2.304032\RMSD=1.831e-09
 Normal termination of Gaussian 16 at Fri Feb  9 17:38:46 2024.
