 Gaussian 16, Revision A.03,
 Gaussian 16:  ES64L-G16RevA.03 25-Dec-2016

 ------------------
 #p CCSD(T)/cc-pVTZ
 ------------------

 --------
 H2_H2_12
 --------
 Symbolic Z-matrix:
 Charge =  0 Multiplicity = 1

                         Standard orientation:
 ---------------------------------------------------------------------
 Center     Atomic      Atomic             Coordinates (Angstroms)
 Number     Number       Type             X           Y           Z
 ---------------------------------------------------------------------
      1          1           0        0.000000    0.000000    1.320000
      2          1           0        0.000000    0.000000    0.580000
      3          1           0        0.000000    0.000000   -0.580000
      4          1           0        0.000000    0.000000   -1.320000
 ---------------------------------------------------------------------

 SCF Done:  E(RHF) =  -2.23726733096     A.U. after    8 cycles
 E2 =    -0.6836852608D-01 EUMP2 =    -0.23056358570335D+01
 CCSD(T)
 CCSD(T)= -0.23211860411D+01

 The electronic state is 1-SGG.
 Alpha  occ. eigenvalues --   -0.69425  -0.51907
 Alpha virt. eigenvalues --    0.16541   0.23260   0.32991   0.52682   0.53406
 Alpha virt. eigenvalues --    0.60254   0.60254   0.76164   0.76164   0.79745
 Alpha virt. eigenvalues --    1.06043   1.06043   1.21742   1.49993   1.49993

 Mulliken charges:
               1
     1  H    0.032636
     2  H   -0.032636
     3  H   -0.032636
     4  H    0.032636
 Sum of Mulliken charges =   0.00000

 Dipole moment (field-independent basis, Debye):
    X=              0.0000    Y=             -0.0000    Z=             -0.0000  Tot=              0.0000
 Quadrupole moment (field-independent basis, Debye-Ang):
   XX=             -4.0163   YY=             -4.0163   ZZ=             -3.4103
   XY=             -0.0000   XZ=             -0.0000   YZ=              0.0000

 7832\CCSD=-2.3206951\CCSD(T)=-2.321186\RMSD=9.238e-10\PG=D*H [C*(H1H1.
 Normal termination of Gaussian 16 at Fri Feb  9 17:38:57 2024.
