 Gaussian 16, Revision A.03,
 Gaussian 16:  ES64L-G16RevA.03 25-Dec-2016

 ------------------
 #p CCSD(T)/cc-pVTZ
 ------------------

 ---------
 H2_H2_229
 ---------
 Symbolic Z-matrix:
 Charge =  0 Multiplicity = 1

                         Standard orientation:
 ---------------------------------------------------------------------
 Center     Atomic      Atomic             Coordinates (Angstroms)
 Number     Number       Type             X           Y           Z
 ---------------------------------------------------------------------
      1          1           0       -0.219113   -2.617769   -0.000000
      2          1           0        0.268248   -2.060922    0.000000
      3          1           0        0.000000    1.970162    0.000000
      4          1           0       -0.049134    2.708529   -0.000000
 ---------------------------------------------------------------------

 SCF Done:  E(RHF) =  -2.26592627954     A.U. after    6 cycles
 E2 =    -0.6337731359D-01 EUMP2 =    -0.23293035931356D+01
 CCSD(T)
 CCSD(T)= -0.23446834654D+01

 The electronic state is 1-A'.
 Alpha  occ. eigenvalues --   -0.59570  -0.59456
 Alpha virt. eigenvalues --    0.14452   0.18877   0.28899   0.33175   0.62677
 Alpha virt. eigenvalues --    0.67326   0.69208   0.69252   0.69253   0.70028
 Alpha virt. eigenvalues --    1.09174   1.10039   1.11945   1.11992   1.11994

 Mulliken charges:
               1
     1  H    0.001126
     2  H   -0.001125
     3  H   -0.000267
     4  H    0.000266
 Sum of Mulliken charges =  -0.00000

 Dipole moment (field-independent basis, Debye):
    X=             -0.0023    Y=             -0.0014    Z=             -0.0000  Tot=              0.0027
 Quadrupole moment (field-independent basis, Debye-Ang):
   XX=             -3.9071   YY=             -3.1892   ZZ=             -4.1799
   XY=              0.2687   XZ=              0.0000   YZ=              0.0000

 33287\MP4SDQ=-2.3434768\CCSD=-2.3446809\CCSD(T)=-2.3446835\RMSD=2.960e
 Normal termination of Gaussian 16 at Fri Feb  9 17:43:50 2024.
