 Gaussian 16, Revision A.03,
 Gaussian 16:  ES64L-G16RevA.03 25-Dec-2016

 ------------------
 #p CCSD(T)/cc-pVTZ
 ------------------

 --------
 H2_H2_41
 --------
 Symbolic Z-matrix:
 Charge =  0 Multiplicity = 1

                         Standard orientation:
 ---------------------------------------------------------------------
 Center     Atomic      Atomic             Coordinates (Angstroms)
 Number     Number       Type             X           Y           Z
 ---------------------------------------------------------------------
      1          1           0       -0.238896   -1.069569    0.000000
      2          1           0        0.465541   -0.842924    0.000000
      3          1           0        0.000000    0.604028    0.000000
      4          1           0       -0.226645    1.308466    0.000000
 ---------------------------------------------------------------------

 SCF Done:  E(RHF) =  -2.24771972483     A.U. after    7 cycles
 E2 =    -0.6673002214D-01 EUMP2 =    -0.23144497469659D+01
 CCSD(T)
 CCSD(T)= -0.23299856603D+01

 The electronic state is 1-A'.
 Alpha  occ. eigenvalues --   -0.66529  -0.53023
 Alpha virt. eigenvalues --    0.15488   0.20682   0.30432   0.36209   0.59363
 Alpha virt. eigenvalues --    0.60786   0.65564   0.70920   0.76704   0.91334
 Alpha virt. eigenvalues --    1.04146   1.09382   1.12523   1.21992   1.39053

 Mulliken charges:
               1
     1  H    0.011340
     2  H    0.008042
     3  H    0.015889
     4  H   -0.035271
 Sum of Mulliken charges =   0.00000

 Dipole moment (field-independent basis, Debye):
    X=              0.0125    Y=             -0.2422    Z=              0.0000  Tot=              0.2425
 Quadrupole moment (field-independent basis, Debye-Ang):
   XX=             -3.4451   YY=             -4.1483   ZZ=             -4.0616
   XY=              0.1026   XZ=              0.0000   YZ=              0.0000

 781\CCSD=-2.3296854\CCSD(T)=-2.3299857\RMSD=6.387e-09\PG=CS [SG(H4)]\\
 Normal termination of Gaussian 16 at Fri Feb  9 17:39:35 2024.
