 Gaussian 16, Revision A.03,
 Gaussian 16:  ES64L-G16RevA.03 25-Dec-2016

 ------------------
 #p CCSD(T)/cc-pVTZ
 ------------------

 ---------
 H2_H2_244
 ---------
 Symbolic Z-matrix:
 Charge =  0 Multiplicity = 1

                         Standard orientation:
 ---------------------------------------------------------------------
 Center     Atomic      Atomic             Coordinates (Angstroms)
 Number     Number       Type             X           Y           Z
 ---------------------------------------------------------------------
      1          1           0       -0.221189   -2.716854    0.000000
      2          1           0        0.267955   -2.161572    0.000000
      3          1           0       -0.000000    2.069953    0.000000
      4          1           0       -0.046766    2.808473    0.000000
 ---------------------------------------------------------------------

 SCF Done:  E(RHF) =  -2.26592806589     A.U. after    6 cycles
 E2 =    -0.6337121181D-01 EUMP2 =    -0.23292992776924D+01
 CCSD(T)
 CCSD(T)= -0.23446784415D+01

 The electronic state is 1-A'.
 Alpha  occ. eigenvalues --   -0.59549  -0.59467
 Alpha virt. eigenvalues --    0.14655   0.18631   0.29096   0.32606   0.62500
 Alpha virt. eigenvalues --    0.67380   0.69215   0.69254   0.69254   0.69617
 Alpha virt. eigenvalues --    1.09395   1.09845   1.11954   1.11994   1.11994

 Mulliken charges:
               1
     1  H    0.000909
     2  H   -0.000907
     3  H   -0.000235
     4  H    0.000233
 Sum of Mulliken charges =  -0.00000

 Dipole moment (field-independent basis, Debye):
    X=             -0.0018    Y=             -0.0013    Z=              0.0000  Tot=              0.0022
 Quadrupole moment (field-independent basis, Debye-Ang):
   XX=             -3.9054   YY=             -3.1931   ZZ=             -4.1798
   XY=              0.2705   XZ=              0.0000   YZ=              0.0000

 3433238\MP4SDQ=-2.343472\CCSD=-2.3446765\CCSD(T)=-2.3446784\RMSD=2.660
 Normal termination of Gaussian 16 at Fri Feb  9 17:44:10 2024.
