 Gaussian 16, Revision A.03,
 Gaussian 16:  ES64L-G16RevA.03 25-Dec-2016

 ------------------
 #p CCSD(T)/cc-pVTZ
 ------------------

 ---------
 H2_H2_119
 ---------
 Symbolic Z-matrix:
 Charge =  0 Multiplicity = 1

                         Standard orientation:
 ---------------------------------------------------------------------
 Center     Atomic      Atomic             Coordinates (Angstroms)
 Number     Number       Type             X           Y           Z
 ---------------------------------------------------------------------
      1          1           0       -0.303192   -1.536986    0.000000
      2          1           0        0.426468   -1.413710    0.000000
      3          1           0        0.000000    1.110518    0.000000
      4          1           0       -0.123276    1.840177    0.000000
 ---------------------------------------------------------------------

 SCF Done:  E(RHF) =  -2.26537506391     A.U. after    7 cycles
 E2 =    -0.6374139600D-01 EUMP2 =    -0.23291164599107D+01
 CCSD(T)
 CCSD(T)= -0.23445240178D+01

 The electronic state is 1-A'.
 Alpha  occ. eigenvalues --   -0.60654  -0.58395
 Alpha virt. eigenvalues --    0.16276   0.18396   0.29340   0.35037   0.63027
 Alpha virt. eigenvalues --    0.64925   0.68085   0.70268   0.70643   0.77199
 Alpha virt. eigenvalues --    1.05138   1.08205   1.11082   1.13030   1.16474

 Mulliken charges:
               1
     1  H    0.003477
     2  H   -0.001914
     3  H    0.002142
     4  H   -0.003705
 Sum of Mulliken charges =   0.00000

 Dipole moment (field-independent basis, Debye):
    X=             -0.0038    Y=             -0.0297    Z=              0.0000  Tot=              0.0299
 Quadrupole moment (field-independent basis, Debye-Ang):
   XX=             -3.5505   YY=             -3.6083   ZZ=             -4.1743
   XY=              0.0056   XZ=              0.0000   YZ=              0.0000

 3067\CCSD=-2.3444868\CCSD(T)=-2.344524\RMSD=1.400e-09\PG=CS [SG(H4)]\\
 Normal termination of Gaussian 16 at Fri Feb  9 17:41:21 2024.
