 Gaussian 16, Revision A.03,
 Gaussian 16:  ES64L-G16RevA.03 25-Dec-2016

 ------------------
 #p CCSD(T)/cc-pVTZ
 ------------------

 ---------
 H2_H2_232
 ---------
 Symbolic Z-matrix:
 Charge =  0 Multiplicity = 1

                         Standard orientation:
 ---------------------------------------------------------------------
 Center     Atomic      Atomic             Coordinates (Angstroms)
 Number     Number       Type             X           Y           Z
 ---------------------------------------------------------------------
      1          1           0       -0.219545   -2.637580    0.000000
      2          1           0        0.268187   -2.081058    0.000000
      3          1           0       -0.000000    1.990119   -0.000000
      4          1           0       -0.048642    2.728519   -0.000000
 ---------------------------------------------------------------------

 SCF Done:  E(RHF) =  -2.26592668733     A.U. after    6 cycles
 E2 =    -0.6337593239D-01 EUMP2 =    -0.23293026197170D+01
 CCSD(T)
 CCSD(T)= -0.23446823308D+01

 The electronic state is 1-A'.
 Alpha  occ. eigenvalues --   -0.59565  -0.59459
 Alpha virt. eigenvalues --    0.14488   0.18829   0.28937   0.33054   0.62628
 Alpha virt. eigenvalues --    0.67360   0.69209   0.69252   0.69253   0.69931
 Alpha virt. eigenvalues --    1.09222   1.09995   1.11947   1.11992   1.11993

 Mulliken charges:
               1
     1  H    0.001077
     2  H   -0.001075
     3  H   -0.000261
     4  H    0.000259
 Sum of Mulliken charges =  -0.00000

 Dipole moment (field-independent basis, Debye):
    X=             -0.0022    Y=             -0.0014    Z=             -0.0000  Tot=              0.0026
 Quadrupole moment (field-independent basis, Debye-Ang):
   XX=             -3.9068   YY=             -3.1900   ZZ=             -4.1799
   XY=              0.2690   XZ=              0.0000   YZ=             -0.0000

 3433276\MP4SDQ=-2.3434757\CCSD=-2.3446799\CCSD(T)=-2.3446823\RMSD=2.88
 Normal termination of Gaussian 16 at Fri Feb  9 17:43:54 2024.
