 Gaussian 16, Revision A.03,
 Gaussian 16:  ES64L-G16RevA.03 25-Dec-2016

 ------------------
 #p CCSD(T)/cc-pVTZ
 ------------------

 ---------
 H2_H2_282
 ---------
 Symbolic Z-matrix:
 Charge =  0 Multiplicity = 1

                         Standard orientation:
 ---------------------------------------------------------------------
 Center     Atomic      Atomic             Coordinates (Angstroms)
 Number     Number       Type             X           Y           Z
 ---------------------------------------------------------------------
      1          1           0        0.000000    0.000000    3.120000
      2          1           0        0.000000    0.000000    2.380000
      3          1           0        0.000000    0.000000   -2.380000
      4          1           0        0.000000    0.000000   -3.120000
 ---------------------------------------------------------------------

 SCF Done:  E(RHF) =  -2.26592456074     A.U. after    6 cycles
 E2 =    -0.6336331780D-01 EUMP2 =    -0.23292878785328D+01
 CCSD(T)
 CCSD(T)= -0.23446664458D+01

 The electronic state is 1-SGG.
 Alpha  occ. eigenvalues --   -0.59522  -0.59498
 Alpha virt. eigenvalues --    0.15007   0.18275   0.29706   0.31449   0.62295
 Alpha virt. eigenvalues --    0.67156   0.69231   0.69231   0.69231   0.69231
 Alpha virt. eigenvalues --    1.09594   1.09654   1.11970   1.11970   1.11970

 Mulliken charges:
               1
     1  H    0.000479
     2  H   -0.000479
     3  H   -0.000479
     4  H    0.000479
 Sum of Mulliken charges =  -0.00000

 Dipole moment (field-independent basis, Debye):
    X=              0.0000    Y=              0.0000    Z=             -0.0000  Tot=              0.0000
 Quadrupole moment (field-independent basis, Debye-Ang):
   XX=             -4.1797   YY=             -4.1797   ZZ=             -2.9135
   XY=             -0.0000   XZ=             -0.0000   YZ=              0.0000

 602\CCSD=-2.3446653\CCSD(T)=-2.3446664\RMSD=2.971e-09\PG=D*H [C*(H1H1.
 Normal termination of Gaussian 16 at Fri Feb  9 17:45:03 2024.
