 Gaussian 16, Revision A.03,
 Gaussian 16:  ES64L-G16RevA.03 25-Dec-2016

 ------------------
 #p CCSD(T)/cc-pVTZ
 ------------------

 --------
 H2_H2_66
 --------
 Symbolic Z-matrix:
 Charge =  0 Multiplicity = 1

                         Standard orientation:
 ---------------------------------------------------------------------
 Center     Atomic      Atomic             Coordinates (Angstroms)
 Number     Number       Type             X           Y           Z
 ---------------------------------------------------------------------
      1          1           0        0.000000    0.000000    1.680000
      2          1           0        0.000000    0.000000    0.940000
      3          1           0        0.000000    0.000000   -0.940000
      4          1           0        0.000000    0.000000   -1.680000
 ---------------------------------------------------------------------

 SCF Done:  E(RHF) =  -2.26285060114     A.U. after    7 cycles
 E2 =    -0.6454339992D-01 EUMP2 =    -0.23273940010578D+01
 CCSD(T)
 CCSD(T)= -0.23428460731D+01

 The electronic state is 1-SGG.
 Alpha  occ. eigenvalues --   -0.62288  -0.57368
 Alpha virt. eigenvalues --    0.16165   0.21881   0.29973   0.47787   0.60562
 Alpha virt. eigenvalues --    0.65220   0.65220   0.67295   0.71744   0.71744
 Alpha virt. eigenvalues --    1.02347   1.02347   1.02452   1.26245   1.26245

 Mulliken charges:
               1
     1  H    0.006647
     2  H   -0.006647
     3  H   -0.006647
     4  H    0.006647
 Sum of Mulliken charges =  -0.00000

 Dipole moment (field-independent basis, Debye):
    X=             -0.0000    Y=              0.0000    Z=              0.0000  Tot=              0.0000
 Quadrupole moment (field-independent basis, Debye-Ang):
   XX=             -4.1537   YY=             -4.1537   ZZ=             -2.8901
   XY=             -0.0000   XZ=             -0.0000   YZ=              0.0000

 927\CCSD=-2.3427188\CCSD(T)=-2.3428461\RMSD=1.334e-09\PG=D*H [C*(H1H1.
 Normal termination of Gaussian 16 at Fri Feb  9 17:40:10 2024.
