 Gaussian 16, Revision A.03,
 Gaussian 16:  ES64L-G16RevA.03 25-Dec-2016

 ------------------
 #p CCSD(T)/cc-pVTZ
 ------------------

 ---------
 H2_H2_201
 ---------
 Symbolic Z-matrix:
 Charge =  0 Multiplicity = 1

                         Standard orientation:
 ---------------------------------------------------------------------
 Center     Atomic      Atomic             Coordinates (Angstroms)
 Number     Number       Type             X           Y           Z
 ---------------------------------------------------------------------
      1          1           0        0.000000    0.000000    2.580000
      2          1           0        0.000000    0.000000    1.840000
      3          1           0        0.000000    0.000000   -1.840000
      4          1           0        0.000000    0.000000   -2.580000
 ---------------------------------------------------------------------

 SCF Done:  E(RHF) =  -2.26590499134     A.U. after    6 cycles
 E2 =    -0.6339762351D-01 EUMP2 =    -0.23293026148488D+01
 CCSD(T)
 CCSD(T)= -0.23446856311D+01

 The electronic state is 1-SGG.
 Alpha  occ. eigenvalues --   -0.59639  -0.59457
 Alpha virt. eigenvalues --    0.13647   0.20101   0.28797   0.34440   0.63233
 Alpha virt. eigenvalues --    0.69187   0.69187   0.69208   0.69208   0.69853
 Alpha virt. eigenvalues --    1.08662   1.10742   1.11869   1.11869   1.11994

 Mulliken charges:
               1
     1  H    0.000906
     2  H   -0.000906
     3  H   -0.000906
     4  H    0.000906
 Sum of Mulliken charges =   0.00000

 Dipole moment (field-independent basis, Debye):
    X=             -0.0000    Y=              0.0000    Z=             -0.0000  Tot=              0.0000
 Quadrupole moment (field-independent basis, Debye-Ang):
   XX=             -4.1802   YY=             -4.1802   ZZ=             -2.8896
   XY=             -0.0000   XZ=             -0.0000   YZ=              0.0000

 779\CCSD=-2.3446808\CCSD(T)=-2.3446856\RMSD=2.989e-09\PG=D*H [C*(H1H1.
 Normal termination of Gaussian 16 at Fri Feb  9 17:43:12 2024.
