 Gaussian 16, Revision A.03,
 Gaussian 16:  ES64L-G16RevA.03 25-Dec-2016

 ------------------
 #p CCSD(T)/cc-pVTZ
 ------------------

 ---------
 H2_H2_140
 ---------
 Symbolic Z-matrix:
 Charge =  0 Multiplicity = 1

                         Standard orientation:
 ---------------------------------------------------------------------
 Center     Atomic      Atomic             Coordinates (Angstroms)
 Number     Number       Type             X           Y           Z
 ---------------------------------------------------------------------
      1          1           0       -0.311104   -1.669510    0.000000
      2          1           0        0.420731   -1.559883    0.000000
      3          1           0        0.000000    1.248779    0.000000
      4          1           0       -0.109627    1.980614    0.000000
 ---------------------------------------------------------------------

 SCF Done:  E(RHF) =  -2.26575174405     A.U. after    7 cycles
 E2 =    -0.6356954020D-01 EUMP2 =    -0.23293212842457D+01
 CCSD(T)
 CCSD(T)= -0.23447167572D+01

 The electronic state is 1-A'.
 Alpha  occ. eigenvalues --   -0.60208  -0.58821
 Alpha virt. eigenvalues --    0.16292   0.17809   0.28822   0.35416   0.62419
 Alpha virt. eigenvalues --    0.63768   0.68738   0.69710   0.70268   0.78686
 Alpha virt. eigenvalues --    1.06886   1.08797   1.11540   1.12461   1.14456

 Mulliken charges:
               1
     1  H    0.002924
     2  H   -0.002148
     3  H    0.000859
     4  H   -0.001635
 Sum of Mulliken charges =  -0.00000

 Dipole moment (field-independent basis, Debye):
    X=             -0.0029    Y=             -0.0176    Z=              0.0000  Tot=              0.0178
 Quadrupole moment (field-independent basis, Debye-Ang):
   XX=             -3.5554   YY=             -3.5837   ZZ=             -4.1788
   XY=              0.0038   XZ=              0.0000   YZ=              0.0000

 5049\CCSD=-2.3446961\CCSD(T)=-2.3447168\RMSD=2.014e-09\PG=CS [SG(H4)]\
 Normal termination of Gaussian 16 at Fri Feb  9 17:41:49 2024.
