 Gaussian 16, Revision A.03,
 Gaussian 16:  ES64L-G16RevA.03 25-Dec-2016

 ------------------
 #p CCSD(T)/cc-pVTZ
 ------------------

 ---------
 H2_H2_215
 ---------
 Symbolic Z-matrix:
 Charge =  0 Multiplicity = 1

                         Standard orientation:
 ---------------------------------------------------------------------
 Center     Atomic      Atomic             Coordinates (Angstroms)
 Number     Number       Type             X           Y           Z
 ---------------------------------------------------------------------
      1          1           0       -0.328684   -2.151980    0.000000
      2          1           0        0.407144   -2.073520    0.000000
      3          1           0        0.000000    1.744835    0.000000
      4          1           0       -0.078460    2.480664    0.000000
 ---------------------------------------------------------------------

 SCF Done:  E(RHF) =  -2.26594849534     A.U. after    6 cycles
 E2 =    -0.6338680586D-01 EUMP2 =    -0.23293353011953D+01
 CCSD(T)
 CCSD(T)= -0.23447152472D+01

 The electronic state is 1-A'.
 Alpha  occ. eigenvalues --   -0.59621  -0.59361
 Alpha virt. eigenvalues --    0.16136   0.16939   0.28410   0.34185   0.63398
 Alpha virt. eigenvalues --    0.64306   0.69186   0.69318   0.69373   0.71794
 Alpha virt. eigenvalues --    1.09411   1.10472   1.11926   1.11932   1.12063

 Mulliken charges:
               1
     1  H    0.000575
     2  H   -0.000574
     3  H    0.000516
     4  H   -0.000517
 Sum of Mulliken charges =  -0.00000

 Dipole moment (field-independent basis, Debye):
    X=             -0.0008    Y=             -0.0047    Z=              0.0000  Tot=              0.0048
 Quadrupole moment (field-independent basis, Debye-Ang):
   XX=             -3.5576   YY=             -3.5625   ZZ=             -4.1801
   XY=              0.0016   XZ=              0.0000   YZ=              0.0000

 087\CCSD=-2.344712\CCSD(T)=-2.3447152\RMSD=9.758e-09\PG=CS [SG(H4)]\\@
 Normal termination of Gaussian 16 at Fri Feb  9 17:43:31 2024.
