 Gaussian 16, Revision A.03,
 Gaussian 16:  ES64L-G16RevA.03 25-Dec-2016

 ------------------
 #p CCSD(T)/cc-pVTZ
 ------------------

 --------
 H2_H2_40
 --------
 Symbolic Z-matrix:
 Charge =  0 Multiplicity = 1

                         Standard orientation:
 ---------------------------------------------------------------------
 Center     Atomic      Atomic             Coordinates (Angstroms)
 Number     Number       Type             X           Y           Z
 ---------------------------------------------------------------------
      1          1           0       -0.142143   -1.386566   -0.000000
      2          1           0        0.276997   -0.776712   -0.000000
      3          1           0       -0.000000    0.717835    0.000000
      4          1           0       -0.134854    1.445443    0.000000
 ---------------------------------------------------------------------

 SCF Done:  E(RHF) =  -2.25498388294     A.U. after    7 cycles
 E2 =    -0.6596223222D-01 EUMP2 =    -0.23209461151611D+01
 CCSD(T)
 CCSD(T)= -0.23364377000D+01

 The electronic state is 1-A'.
 Alpha  occ. eigenvalues --   -0.64989  -0.54891
 Alpha virt. eigenvalues --    0.16334   0.21346   0.31461   0.37942   0.56809
 Alpha virt. eigenvalues --    0.62299   0.68016   0.71653   0.74303   0.80824
 Alpha virt. eigenvalues --    1.02531   1.03890   1.17253   1.28087   1.32494

 Mulliken charges:
               1
     1  H    0.008383
     2  H   -0.003825
     3  H   -0.002639
     4  H   -0.001919
 Sum of Mulliken charges =   0.00000

 Dipole moment (field-independent basis, Debye):
    X=             -0.0247    Y=             -0.0560    Z=             -0.0000  Tot=              0.0612
 Quadrupole moment (field-independent basis, Debye-Ang):
   XX=             -3.8772   YY=             -3.4289   ZZ=             -4.0961
   XY=              0.2067   XZ=              0.0000   YZ=              0.0000

 350001\MP4SDQ=-2.3351418\CCSD=-2.3361784\CCSD(T)=-2.3364377\RMSD=4.835
 Normal termination of Gaussian 16 at Fri Feb  9 17:39:34 2024.
