 Gaussian 16, Revision A.03,
 Gaussian 16:  ES64L-G16RevA.03 25-Dec-2016

 ------------------
 #p CCSD(T)/cc-pVTZ
 ------------------

 --------
 H2_H2_73
 --------
 Symbolic Z-matrix:
 Charge =  0 Multiplicity = 1

                         Standard orientation:
 ---------------------------------------------------------------------
 Center     Atomic      Atomic             Coordinates (Angstroms)
 Number     Number       Type             X           Y           Z
 ---------------------------------------------------------------------
      1          1           0       -0.170687   -1.597032    0.000000
      2          1           0        0.274218   -1.005711    0.000000
      3          1           0        0.000000    0.935011   -0.000000
      4          1           0       -0.103531    1.667733   -0.000000
 ---------------------------------------------------------------------

 SCF Done:  E(RHF) =  -2.26319917111     A.U. after    7 cycles
 E2 =    -0.6441856190D-01 EUMP2 =    -0.23276177330064D+01
 CCSD(T)
 CCSD(T)= -0.23430644701D+01

 The electronic state is 1-A'.
 Alpha  occ. eigenvalues --   -0.62044  -0.57383
 Alpha virt. eigenvalues --    0.16131   0.20704   0.30094   0.38715   0.60739
 Alpha virt. eigenvalues --    0.64968   0.65629   0.70011   0.71712   0.76377
 Alpha virt. eigenvalues --    1.00944   1.04116   1.06777   1.20058   1.22890

 Mulliken charges:
               1
     1  H    0.011578
     2  H   -0.009670
     3  H    0.003978
     4  H   -0.005886
 Sum of Mulliken charges =  -0.00000

 Dipole moment (field-independent basis, Debye):
    X=             -0.0207    Y=             -0.0208    Z=              0.0000  Tot=              0.0293
 Quadrupole moment (field-independent basis, Debye-Ang):
   XX=             -3.9163   YY=             -3.2209   ZZ=             -4.1547
   XY=              0.2257   XZ=              0.0000   YZ=              0.0000

 416767\MP4SDQ=-2.3418193\CCSD=-2.342955\CCSD(T)=-2.3430645\RMSD=1.846e
 Normal termination of Gaussian 16 at Fri Feb  9 17:40:19 2024.
