 Gaussian 16, Revision A.03,
 Gaussian 16:  ES64L-G16RevA.03 25-Dec-2016

 ------------------
 #p CCSD(T)/cc-pVTZ
 ------------------

 ---------
 H2_H2_249
 ---------
 Symbolic Z-matrix:
 Charge =  0 Multiplicity = 1

                         Standard orientation:
 ---------------------------------------------------------------------
 Center     Atomic      Atomic             Coordinates (Angstroms)
 Number     Number       Type             X           Y           Z
 ---------------------------------------------------------------------
      1          1           0        0.000000    0.000000    2.900000
      2          1           0        0.000000    0.000000    2.160000
      3          1           0        0.000000    0.000000   -2.160000
      4          1           0        0.000000    0.000000   -2.900000
 ---------------------------------------------------------------------

 SCF Done:  E(RHF) =  -2.26591916180     A.U. after    6 cycles
 E2 =    -0.6337127326D-01 EUMP2 =    -0.23292904350610D+01
 CCSD(T)
 CCSD(T)= -0.23446700240D+01

 The electronic state is 1-SGG.
 Alpha  occ. eigenvalues --   -0.59549  -0.59494
 Alpha virt. eigenvalues --    0.14276   0.19020   0.29299   0.32292   0.61978
 Alpha virt. eigenvalues --    0.68594   0.69220   0.69220   0.69221   0.69221
 Alpha virt. eigenvalues --    1.09299   1.09912   1.11956   1.11956   1.11961

 Mulliken charges:
               1
     1  H    0.000634
     2  H   -0.000634
     3  H   -0.000634
     4  H    0.000634
 Sum of Mulliken charges =   0.00000

 Dipole moment (field-independent basis, Debye):
    X=              0.0000    Y=              0.0000    Z=             -0.0000  Tot=              0.0000
 Quadrupole moment (field-independent basis, Debye-Ang):
   XX=             -4.1797   YY=             -4.1797   ZZ=             -2.9070
   XY=             -0.0000   XZ=             -0.0000   YZ=              0.0000

 434634\CCSD=-2.344668\CCSD(T)=-2.34467\RMSD=3.272e-09\PG=D*H [C*(H1H1.
 Normal termination of Gaussian 16 at Fri Feb  9 17:44:17 2024.
