 Gaussian 16, Revision A.03,
 Gaussian 16:  ES64L-G16RevA.03 25-Dec-2016

 ------------------
 #p CCSD(T)/cc-pVTZ
 ------------------

 --------
 H2_H2_20
 --------
 Symbolic Z-matrix:
 Charge =  0 Multiplicity = 1

                         Standard orientation:
 ---------------------------------------------------------------------
 Center     Atomic      Atomic             Coordinates (Angstroms)
 Number     Number       Type             X           Y           Z
 ---------------------------------------------------------------------
      1          1           0       -0.195682   -0.957997    0.000000
      2          1           0        0.485292   -0.668387    0.000000
      3          1           0        0.000000    0.472705    0.000000
      4          1           0       -0.289610    1.153679    0.000000
 ---------------------------------------------------------------------

 SCF Done:  E(RHF) =  -2.22406066002     A.U. after    8 cycles
 E2 =    -0.6894789689D-01 EUMP2 =    -0.22930085569020D+01
 CCSD(T)
 CCSD(T)= -0.23085870989D+01

 The electronic state is 1-A'.
 Alpha  occ. eigenvalues --   -0.71021  -0.49454
 Alpha virt. eigenvalues --    0.14874   0.20938   0.30382   0.37541   0.58276
 Alpha virt. eigenvalues --    0.58685   0.66875   0.72675   0.79929   0.99442
 Alpha virt. eigenvalues --    1.07281   1.09026   1.14204   1.27748   1.47119

 Mulliken charges:
               1
     1  H    0.025622
     2  H    0.017292
     3  H    0.024965
     4  H   -0.067878
 Sum of Mulliken charges =  -0.00000

 Dipole moment (field-independent basis, Debye):
    X=              0.0599    Y=             -0.4267    Z=              0.0000  Tot=              0.4309
 Quadrupole moment (field-independent basis, Debye-Ang):
   XX=             -3.3967   YY=             -4.5589   ZZ=             -3.9847
   XY=              0.2454   XZ=              0.0000   YZ=              0.0000

 45\CCSD=-2.308106\CCSD(T)=-2.3085871\RMSD=1.874e-09\PG=CS [SG(H4)]\\@
 Normal termination of Gaussian 16 at Fri Feb  9 17:39:07 2024.
