 Gaussian 16, Revision A.03,
 Gaussian 16:  ES64L-G16RevA.03 25-Dec-2016

 ------------------
 #p CCSD(T)/cc-pVTZ
 ------------------

 ---------
 H2_H2_103
 ---------
 Symbolic Z-matrix:
 Charge =  0 Multiplicity = 1

                         Standard orientation:
 ---------------------------------------------------------------------
 Center     Atomic      Atomic             Coordinates (Angstroms)
 Number     Number       Type             X           Y           Z
 ---------------------------------------------------------------------
      1          1           0       -0.186979   -1.790995    0.000000
      2          1           0        0.272389   -1.210839    0.000000
      3          1           0       -0.000000    1.133389   -0.000000
      4          1           0       -0.085410    1.868444   -0.000000
 ---------------------------------------------------------------------

 SCF Done:  E(RHF) =  -2.26518700536     A.U. after    7 cycles
 E2 =    -0.6381442549D-01 EUMP2 =    -0.23290014308485D+01
 CCSD(T)
 CCSD(T)= -0.23444174837D+01

 The electronic state is 1-A'.
 Alpha  occ. eigenvalues --   -0.60774  -0.58489
 Alpha virt. eigenvalues --    0.15618   0.20285   0.29212   0.38754   0.61965
 Alpha virt. eigenvalues --    0.66595   0.67793   0.69805   0.70265   0.74628
 Alpha virt. eigenvalues --    0.98582   1.06997   1.07363   1.15476   1.16920

 Mulliken charges:
               1
     1  H    0.009018
     2  H   -0.008275
     3  H    0.003302
     4  H   -0.004045
 Sum of Mulliken charges =   0.00000

 Dipole moment (field-independent basis, Debye):
    X=             -0.0151    Y=             -0.0082    Z=              0.0000  Tot=              0.0172
 Quadrupole moment (field-independent basis, Debye-Ang):
   XX=             -3.9253   YY=             -3.1621   ZZ=             -4.1747
   XY=              0.2412   XZ=             -0.0000   YZ=             -0.0000

 430491\MP4SDQ=-2.3431937\CCSD=-2.3443696\CCSD(T)=-2.3444175\RMSD=1.547
 Normal termination of Gaussian 16 at Fri Feb  9 17:40:59 2024.
