 Gaussian 16, Revision A.03,
 Gaussian 16:  ES64L-G16RevA.03 25-Dec-2016

 ------------------
 #p CCSD(T)/cc-pVTZ
 ------------------

 ---------
 H2_H2_193
 ---------
 Symbolic Z-matrix:
 Charge =  0 Multiplicity = 1

                         Standard orientation:
 ---------------------------------------------------------------------
 Center     Atomic      Atomic             Coordinates (Angstroms)
 Number     Number       Type             X           Y           Z
 ---------------------------------------------------------------------
      1          1           0       -0.213141   -2.380363   -0.000000
      2          1           0        0.269072   -1.819051   -0.000000
      3          1           0       -0.000000    1.730765    0.000000
      4          1           0       -0.055931    2.468649    0.000000
 ---------------------------------------------------------------------

 SCF Done:  E(RHF) =  -2.26591594027     A.U. after    6 cycles
 E2 =    -0.6340362973D-01 EUMP2 =    -0.23293195699975D+01
 CCSD(T)
 CCSD(T)= -0.23447024924D+01

 The electronic state is 1-A'.
 Alpha  occ. eigenvalues --   -0.59661  -0.59399
 Alpha virt. eigenvalues --    0.14268   0.19388   0.28561   0.34873   0.63773
 Alpha virt. eigenvalues --    0.66070   0.69180   0.69251   0.69260   0.71552
 Alpha virt. eigenvalues --    1.08742   1.10659   1.11848   1.11996   1.12058

 Mulliken charges:
               1
     1  H    0.002087
     2  H   -0.002086
     3  H   -0.000265
     4  H    0.000265
 Sum of Mulliken charges =  -0.00000

 Dipole moment (field-independent basis, Debye):
    X=             -0.0041    Y=             -0.0017    Z=             -0.0000  Tot=              0.0044
 Quadrupole moment (field-independent basis, Debye-Ang):
   XX=             -3.9123   YY=             -3.1771   ZZ=             -4.1803
   XY=              0.2641   XZ=              0.0000   YZ=              0.0000

 71\MP4SDQ=-2.3434948\CCSD=-2.3446973\CCSD(T)=-2.3447025\RMSD=5.036e-09
 Normal termination of Gaussian 16 at Fri Feb  9 17:43:01 2024.
