 Gaussian 16, Revision A.03,
 Gaussian 16:  ES64L-G16RevA.03 25-Dec-2016

 ------------------
 #p CCSD(T)/cc-pVTZ
 ------------------

 ---------
 H2_H2_167
 ---------
 Symbolic Z-matrix:
 Charge =  0 Multiplicity = 1

                         Standard orientation:
 ---------------------------------------------------------------------
 Center     Atomic      Atomic             Coordinates (Angstroms)
 Number     Number       Type             X           Y           Z
 ---------------------------------------------------------------------
      1          1           0       -0.318911   -1.841886    0.000000
      2          1           0        0.414844   -1.745954    0.000000
      3          1           0        0.000000    1.427042    0.000000
      4          1           0       -0.095933    2.160798    0.000000
 ---------------------------------------------------------------------

 SCF Done:  E(RHF) =  -2.26590850738     A.U. after    7 cycles
 E2 =    -0.6345986301D-01 EUMP2 =    -0.23293683703945D+01
 CCSD(T)
 CCSD(T)= -0.23447551022D+01

 The electronic state is 1-A'.
 Alpha  occ. eigenvalues --   -0.59875  -0.59133
 Alpha virt. eigenvalues --    0.16227   0.17281   0.28416   0.35481   0.61774
 Alpha virt. eigenvalues --    0.63937   0.69072   0.69411   0.69776   0.76838
 Alpha virt. eigenvalues --    1.07971   1.10733   1.11825   1.12160   1.12877

 Mulliken charges:
               1
     1  H    0.001637
     2  H   -0.001407
     3  H    0.000693
     4  H   -0.000923
 Sum of Mulliken charges =   0.00000

 Dipole moment (field-independent basis, Debye):
    X=             -0.0019    Y=             -0.0097    Z=              0.0000  Tot=              0.0099
 Quadrupole moment (field-independent basis, Debye-Ang):
   XX=             -3.5573   YY=             -3.5705   ZZ=             -4.1803
   XY=              0.0028   XZ=              0.0000   YZ=              0.0000

 5466\CCSD=-2.344745\CCSD(T)=-2.3447551\RMSD=2.380e-09\PG=CS [SG(H4)]\\
 Normal termination of Gaussian 16 at Fri Feb  9 17:42:25 2024.
