 Gaussian 16, Revision A.03,
 Gaussian 16:  ES64L-G16RevA.03 25-Dec-2016

 ------------------
 #p CCSD(T)/cc-pVTZ
 ------------------

 ---------
 H2_H2_250
 ---------
 Symbolic Z-matrix:
 Charge =  0 Multiplicity = 1

                         Standard orientation:
 ---------------------------------------------------------------------
 Center     Atomic      Atomic             Coordinates (Angstroms)
 Number     Number       Type             X           Y           Z
 ---------------------------------------------------------------------
      1          1           0       -0.221964   -2.756509   -0.000000
      2          1           0        0.267845   -2.201814   -0.000000
      3          1           0       -0.000000    2.109874    0.000000
      4          1           0       -0.045881    2.848450    0.000000
 ---------------------------------------------------------------------

 SCF Done:  E(RHF) =  -2.26592864749     A.U. after    6 cycles
 E2 =    -0.6336926097D-01 EUMP2 =    -0.23292979084669D+01
 CCSD(T)
 CCSD(T)= -0.23446768485D+01

 The electronic state is 1-A'.
 Alpha  occ. eigenvalues --   -0.59542  -0.59470
 Alpha virt. eigenvalues --    0.14750   0.18530   0.29179   0.32404   0.62475
 Alpha virt. eigenvalues --    0.67324   0.69218   0.69255   0.69255   0.69504
 Alpha virt. eigenvalues --    1.09467   1.09785   1.11957   1.11995   1.11995

 Mulliken charges:
               1
     1  H    0.000841
     2  H   -0.000838
     3  H   -0.000222
     4  H    0.000220
 Sum of Mulliken charges =  -0.00000

 Dipole moment (field-independent basis, Debye):
    X=             -0.0017    Y=             -0.0012    Z=             -0.0000  Tot=              0.0021
 Quadrupole moment (field-independent basis, Debye-Ang):
   XX=             -3.9047   YY=             -3.1945   ZZ=             -4.1798
   XY=              0.2712   XZ=              0.0000   YZ=              0.0000

 33223\MP4SDQ=-2.3434704\CCSD=-2.3446751\CCSD(T)=-2.3446768\RMSD=2.573e
 Normal termination of Gaussian 16 at Fri Feb  9 17:44:19 2024.
