 Gaussian 16, Revision A.03,
 Gaussian 16:  ES64L-G16RevA.03 25-Dec-2016

 ------------------
 #p CCSD(T)/cc-pVTZ
 ------------------

 ---------
 H2_H2_128
 ---------
 Symbolic Z-matrix:
 Charge =  0 Multiplicity = 1

                         Standard orientation:
 ---------------------------------------------------------------------
 Center     Atomic      Atomic             Coordinates (Angstroms)
 Number     Number       Type             X           Y           Z
 ---------------------------------------------------------------------
      1          1           0       -0.306825   -1.593584    0.000000
      2          1           0        0.423861   -1.476547    0.000000
      3          1           0        0.000000    1.169722    0.000000
      4          1           0       -0.117036    1.900409    0.000000
 ---------------------------------------------------------------------

 SCF Done:  E(RHF) =  -2.26558179652     A.U. after    7 cycles
 E2 =    -0.6365430238D-01 EUMP2 =    -0.23292360989032D+01
 CCSD(T)
 CCSD(T)= -0.23446377025D+01

 The electronic state is 1-A'.
 Alpha  occ. eigenvalues --   -0.60436  -0.58604
 Alpha virt. eigenvalues --    0.16290   0.18130   0.29100   0.35219   0.62929
 Alpha virt. eigenvalues --    0.64143   0.68423   0.69983   0.70501   0.78197
 Alpha virt. eigenvalues --    1.06143   1.08098   1.11306   1.12738   1.15474

 Mulliken charges:
               1
     1  H    0.003381
     2  H   -0.002203
     3  H    0.001354
     4  H   -0.002532
 Sum of Mulliken charges =  -0.00000

 Dipole moment (field-independent basis, Debye):
    X=             -0.0034    Y=             -0.0236    Z=              0.0000  Tot=              0.0238
 Quadrupole moment (field-independent basis, Debye-Ang):
   XX=             -3.5531   YY=             -3.5954   ZZ=             -4.1768
   XY=              0.0046   XZ=              0.0000   YZ=              0.0000

 34232\CCSD=-2.3446089\CCSD(T)=-2.3446377\RMSD=1.674e-09\PG=CS [SG(H4)]
 Normal termination of Gaussian 16 at Fri Feb  9 17:41:33 2024.
