 Gaussian 16, Revision A.03,
 Gaussian 16:  ES64L-G16RevA.03 25-Dec-2016

 ------------------
 #p CCSD(T)/cc-pVTZ
 ------------------

 --------
 H2_H2_86
 --------
 Symbolic Z-matrix:
 Charge =  0 Multiplicity = 1

                         Standard orientation:
 ---------------------------------------------------------------------
 Center     Atomic      Atomic             Coordinates (Angstroms)
 Number     Number       Type             X           Y           Z
 ---------------------------------------------------------------------
      1          1           0       -0.285461   -1.332877    0.000000
      2          1           0        0.438534   -1.179804    0.000000
      3          1           0       -0.000000    0.894343    0.000000
      4          1           0       -0.153073    1.618338    0.000000
 ---------------------------------------------------------------------

 SCF Done:  E(RHF) =  -2.26327004554     A.U. after    7 cycles
 E2 =    -0.6435705966D-01 EUMP2 =    -0.23276271052042D+01
 CCSD(T)
 CCSD(T)= -0.23430716602D+01

 The electronic state is 1-A'.
 Alpha  occ. eigenvalues --   -0.61978  -0.57125
 Alpha virt. eigenvalues --    0.16118   0.19432   0.30242   0.34562   0.62488
 Alpha virt. eigenvalues --    0.65795   0.66058   0.70456   0.72054   0.76609
 Alpha virt. eigenvalues --    1.01421   1.10083   1.10438   1.15041   1.23163

 Mulliken charges:
               1
     1  H    0.002421
     2  H    0.001861
     3  H    0.008691
     4  H   -0.012974
 Sum of Mulliken charges =  -0.00000

 Dipole moment (field-independent basis, Debye):
    X=             -0.0045    Y=             -0.0710    Z=              0.0000  Tot=              0.0712
 Quadrupole moment (field-independent basis, Debye-Ang):
   XX=             -3.5288   YY=             -3.7116   ZZ=             -4.1529
   XY=              0.0166   XZ=              0.0000   YZ=              0.0000

 51\CCSD=-2.3429769\CCSD(T)=-2.3430717\RMSD=1.388e-09\PG=CS [SG(H4)]\\@
 Normal termination of Gaussian 16 at Fri Feb  9 17:40:37 2024.
