 Gaussian 16, Revision A.03,
 Gaussian 16:  ES64L-G16RevA.03 25-Dec-2016

 ------------------
 #p CCSD(T)/cc-pVTZ
 ------------------

 ---------
 H2_H2_241
 ---------
 Symbolic Z-matrix:
 Charge =  0 Multiplicity = 1

                         Standard orientation:
 ---------------------------------------------------------------------
 Center     Atomic      Atomic             Coordinates (Angstroms)
 Number     Number       Type             X           Y           Z
 ---------------------------------------------------------------------
      1          1           0       -0.220791   -2.697030   -0.000000
      2          1           0        0.268012   -2.141447   -0.000000
      3          1           0       -0.000000    2.049992    0.000000
      4          1           0       -0.047221    2.788484    0.000000
 ---------------------------------------------------------------------

 SCF Done:  E(RHF) =  -2.26592775197     A.U. after    6 cycles
 E2 =    -0.6337228240D-01 EUMP2 =    -0.23293000343721D+01
 CCSD(T)
 CCSD(T)= -0.23446793217D+01

 The electronic state is 1-A'.
 Alpha  occ. eigenvalues --   -0.59553  -0.59465
 Alpha virt. eigenvalues --    0.14610   0.18681   0.29055   0.32713   0.62522
 Alpha virt. eigenvalues --    0.67392   0.69214   0.69254   0.69254   0.69685
 Alpha virt. eigenvalues --    1.09355   1.09879   1.11953   1.11993   1.11994

 Mulliken charges:
               1
     1  H    0.000947
     2  H   -0.000944
     3  H   -0.000242
     4  H    0.000240
 Sum of Mulliken charges =  -0.00000

 Dipole moment (field-independent basis, Debye):
    X=             -0.0019    Y=             -0.0013    Z=              0.0000  Tot=              0.0023
 Quadrupole moment (field-independent basis, Debye-Ang):
   XX=             -3.9057   YY=             -3.1924   ZZ=             -4.1798
   XY=              0.2701   XZ=             -0.0000   YZ=              0.0000

 3247\MP4SDQ=-2.3434728\CCSD=-2.3446773\CCSD(T)=-2.3446793\RMSD=2.709e-
 Normal termination of Gaussian 16 at Fri Feb  9 17:44:06 2024.
