 Gaussian 16, Revision A.03,
 Gaussian 16:  ES64L-G16RevA.03 25-Dec-2016

 ------------------
 #p CCSD(T)/cc-pVTZ
 ------------------

 ---------
 H2_H2_205
 ---------
 Symbolic Z-matrix:
 Charge =  0 Multiplicity = 1

                         Standard orientation:
 ---------------------------------------------------------------------
 Center     Atomic      Atomic             Coordinates (Angstroms)
 Number     Number       Type             X           Y           Z
 ---------------------------------------------------------------------
      1          1           0       -0.215310   -2.459428    0.000000
      2          1           0        0.268776   -1.899731    0.000000
      3          1           0       -0.000000    1.810547   -0.000000
      4          1           0       -0.053466    2.548613   -0.000000
 ---------------------------------------------------------------------

 SCF Done:  E(RHF) =  -2.26592111326     A.U. after    6 cycles
 E2 =    -0.6339236859D-01 EUMP2 =    -0.23293134818474D+01
 CCSD(T)
 CCSD(T)= -0.23446951131D+01

 The electronic state is 1-A'.
 Alpha  occ. eigenvalues --   -0.59622  -0.59425
 Alpha virt. eigenvalues --    0.14274   0.19233   0.28645   0.34262   0.63323
 Alpha virt. eigenvalues --    0.66643   0.69192   0.69249   0.69255   0.70982
 Alpha virt. eigenvalues --    1.08817   1.10458   1.11903   1.11992   1.12016

 Mulliken charges:
               1
     1  H    0.001679
     2  H   -0.001680
     3  H   -0.000287
     4  H    0.000288
 Sum of Mulliken charges =  -0.00000

 Dipole moment (field-independent basis, Debye):
    X=             -0.0033    Y=             -0.0016    Z=              0.0000  Tot=              0.0037
 Quadrupole moment (field-independent basis, Debye-Ang):
   XX=             -3.9104   YY=             -3.1816   ZZ=             -4.1801
   XY=              0.2657   XZ=              0.0000   YZ=             -0.0000

 34334\MP4SDQ=-2.3434879\CCSD=-2.344691\CCSD(T)=-2.3446951\RMSD=4.012e-
 Normal termination of Gaussian 16 at Fri Feb  9 17:43:17 2024.
