 Gaussian 16, Revision A.03,
 Gaussian 16:  ES64L-G16RevA.03 25-Dec-2016

 ------------------
 #p CCSD(T)/cc-pVTZ
 ------------------

 --------
 H2_H2_14
 --------
 Symbolic Z-matrix:
 Charge =  0 Multiplicity = 1

                         Standard orientation:
 ---------------------------------------------------------------------
 Center     Atomic      Atomic             Coordinates (Angstroms)
 Number     Number       Type             X           Y           Z
 ---------------------------------------------------------------------
      1          1           0       -0.178139   -0.928179    0.000000
      2          1           0        0.492003   -0.614315    0.000000
      3          1           0       -0.000000    0.436177    0.000000
      4          1           0       -0.313864    1.106318    0.000000
 ---------------------------------------------------------------------

 SCF Done:  E(RHF) =  -2.21315556871     A.U. after    8 cycles
 E2 =    -0.6975573840D-01 EUMP2 =    -0.22829113071071D+01
 CCSD(T)
 CCSD(T)= -0.22985005623D+01

 The electronic state is 1-A'.
 Alpha  occ. eigenvalues --   -0.72786  -0.48172
 Alpha virt. eigenvalues --    0.14634   0.20913   0.30446   0.37835   0.57867
 Alpha virt. eigenvalues --    0.58113   0.67483   0.73434   0.80983   1.01523
 Alpha virt. eigenvalues --    1.08134   1.08837   1.15005   1.29635   1.49064

 Mulliken charges:
               1
     1  H    0.032407
     2  H    0.022083
     3  H    0.030921
     4  H   -0.085412
 Sum of Mulliken charges =   0.00000

 Dipole moment (field-independent basis, Debye):
    X=              0.0871    Y=             -0.4983    Z=              0.0000  Tot=              0.5059
 Quadrupole moment (field-independent basis, Debye-Ang):
   XX=             -3.3919   YY=             -4.7052   ZZ=             -3.9604
   XY=              0.3158   XZ=              0.0000   YZ=              0.0000

 871\CCSD=-2.2979554\CCSD(T)=-2.2985006\RMSD=2.535e-09\PG=CS [SG(H4)]\\
 Normal termination of Gaussian 16 at Fri Feb  9 17:38:59 2024.
