 Gaussian 16, Revision A.03,
 Gaussian 16:  ES64L-G16RevA.03 25-Dec-2016

 ------------------
 #p CCSD(T)/cc-pVTZ
 ------------------

 ---------
 H2_H2_185
 ---------
 Symbolic Z-matrix:
 Charge =  0 Multiplicity = 1

                         Standard orientation:
 ---------------------------------------------------------------------
 Center     Atomic      Atomic             Coordinates (Angstroms)
 Number     Number       Type             X           Y           Z
 ---------------------------------------------------------------------
      1          1           0       -0.323069   -1.957722    0.000000
      2          1           0        0.411614   -1.869177    0.000000
      3          1           0       -0.000000    1.546108    0.000000
      4          1           0       -0.088545    2.280791    0.000000
 ---------------------------------------------------------------------

 SCF Done:  E(RHF) =  -2.26593840157     A.U. after    7 cycles
 E2 =    -0.6342147795D-01 EUMP2 =    -0.23293598795208D+01
 CCSD(T)
 CCSD(T)= -0.23447431869D+01

 The electronic state is 1-A'.
 Alpha  occ. eigenvalues --   -0.59745  -0.59251
 Alpha virt. eigenvalues --    0.16163   0.17088   0.28314   0.35166   0.62194
 Alpha virt. eigenvalues --    0.64096   0.69144   0.69348   0.69556   0.74777
 Alpha virt. eigenvalues --    1.08635   1.11203   1.11893   1.12060   1.12095

 Mulliken charges:
               1
     1  H    0.001080
     2  H   -0.001007
     3  H    0.000654
     4  H   -0.000726
 Sum of Mulliken charges =  -0.00000

 Dipole moment (field-independent basis, Debye):
    X=             -0.0014    Y=             -0.0070    Z=              0.0000  Tot=              0.0072
 Quadrupole moment (field-independent basis, Debye-Ang):
   XX=             -3.5576   YY=             -3.5665   ZZ=             -4.1804
   XY=              0.0024   XZ=              0.0000   YZ=              0.0000

 35357\CCSD=-2.3447367\CCSD(T)=-2.3447432\RMSD=2.305e-09\PG=CS [SG(H4)]
 Normal termination of Gaussian 16 at Fri Feb  9 17:42:50 2024.
