 Gaussian 16, Revision A.03,
 Gaussian 16:  ES64L-G16RevA.03 25-Dec-2016

 ------------------
 #p CCSD(T)/cc-pVTZ
 ------------------

 ---------
 H2_H2_171
 ---------
 Symbolic Z-matrix:
 Charge =  0 Multiplicity = 1

                         Standard orientation:
 ---------------------------------------------------------------------
 Center     Atomic      Atomic             Coordinates (Angstroms)
 Number     Number       Type             X           Y           Z
 ---------------------------------------------------------------------
      1          1           0        0.000000    0.000000    2.380000
      2          1           0        0.000000    0.000000    1.640000
      3          1           0        0.000000    0.000000   -1.640000
      4          1           0        0.000000    0.000000   -2.380000
 ---------------------------------------------------------------------

 SCF Done:  E(RHF) =  -2.26587836546     A.U. after    6 cycles
 E2 =    -0.6343568165D-01 EUMP2 =    -0.23293140471168D+01
 CCSD(T)
 CCSD(T)= -0.23447017980D+01

 The electronic state is 1-SGG.
 Alpha  occ. eigenvalues --   -0.59766  -0.59382
 Alpha virt. eigenvalues --    0.13767   0.20639   0.28665   0.36473   0.65420
 Alpha virt. eigenvalues --    0.68858   0.69117   0.69117   0.69233   0.69233
 Alpha virt. eigenvalues --    1.09758   1.10453   1.11578   1.11578   1.12234

 Mulliken charges:
               1
     1  H    0.000885
     2  H   -0.000885
     3  H   -0.000885
     4  H    0.000885
 Sum of Mulliken charges =  -0.00000

 Dipole moment (field-independent basis, Debye):
    X=             -0.0000    Y=              0.0000    Z=              0.0000  Tot=              0.0000
 Quadrupole moment (field-independent basis, Debye-Ang):
   XX=             -4.1810   YY=             -4.1810   ZZ=             -2.8717
   XY=             -0.0000   XZ=             -0.0000   YZ=              0.0000

 923\CCSD=-2.3446929\CCSD(T)=-2.3447018\RMSD=4.164e-09\PG=D*H [C*(H1H1.
 Normal termination of Gaussian 16 at Fri Feb  9 17:42:31 2024.
