 Gaussian 16, Revision A.03,
 Gaussian 16:  ES64L-G16RevA.03 25-Dec-2016

 ------------------
 #p CCSD(T)/cc-pVTZ
 ------------------

 ---------
 H2_H2_192
 ---------
 Symbolic Z-matrix:
 Charge =  0 Multiplicity = 1

                         Standard orientation:
 ---------------------------------------------------------------------
 Center     Atomic      Atomic             Coordinates (Angstroms)
 Number     Number       Type             X           Y           Z
 ---------------------------------------------------------------------
      1          1           0        0.000000    0.000000    2.520000
      2          1           0        0.000000    0.000000    1.780000
      3          1           0        0.000000    0.000000   -1.780000
      4          1           0        0.000000    0.000000   -2.520000
 ---------------------------------------------------------------------

 SCF Done:  E(RHF) =  -2.26589984525     A.U. after    6 cycles
 E2 =    -0.6340637559D-01 EUMP2 =    -0.23293062208478D+01
 CCSD(T)
 CCSD(T)= -0.23446903586D+01

 The electronic state is 1-SGG.
 Alpha  occ. eigenvalues --   -0.59669  -0.59441
 Alpha virt. eigenvalues --    0.13638   0.20277   0.28739   0.34989   0.63777
 Alpha virt. eigenvalues --    0.69173   0.69173   0.69210   0.69210   0.69734
 Alpha virt. eigenvalues --    1.08747   1.10839   1.11820   1.11820   1.12030

 Mulliken charges:
               1
     1  H    0.000932
     2  H   -0.000932
     3  H   -0.000932
     4  H    0.000932
 Sum of Mulliken charges =   0.00000

 Dipole moment (field-independent basis, Debye):
    X=             -0.0000    Y=             -0.0000    Z=              0.0000  Tot=              0.0000
 Quadrupole moment (field-independent basis, Debye-Ang):
   XX=             -4.1804   YY=             -4.1804   ZZ=             -2.8848
   XY=             -0.0000   XZ=             -0.0000   YZ=              0.0000

 34822\CCSD=-2.3446846\CCSD(T)=-2.3446904\RMSD=2.983e-09\PG=D*H [C*(H1H
 Normal termination of Gaussian 16 at Fri Feb  9 17:43:00 2024.
