 Gaussian 16, Revision A.03,
 Gaussian 16:  ES64L-G16RevA.03 25-Dec-2016

 ------------------
 #p CCSD(T)/cc-pVTZ
 ------------------

 ---------
 H2_H2_264
 ---------
 Symbolic Z-matrix:
 Charge =  0 Multiplicity = 1

                         Standard orientation:
 ---------------------------------------------------------------------
 Center     Atomic      Atomic             Coordinates (Angstroms)
 Number     Number       Type             X           Y           Z
 ---------------------------------------------------------------------
      1          1           0        0.000000    0.000000    3.000000
      2          1           0        0.000000    0.000000    2.260000
      3          1           0        0.000000    0.000000   -2.260000
      4          1           0        0.000000    0.000000   -3.000000
 ---------------------------------------------------------------------

 SCF Done:  E(RHF) =  -2.26592187020     A.U. after    6 cycles
 E2 =    -0.6336704609D-01 EUMP2 =    -0.23292889162941D+01
 CCSD(T)
 CCSD(T)= -0.23446679614D+01

 The electronic state is 1-SGG.
 Alpha  occ. eigenvalues --   -0.59535  -0.59497
 Alpha virt. eigenvalues --    0.14602   0.18671   0.29487   0.31856   0.62045
 Alpha virt. eigenvalues --    0.67929   0.69226   0.69226   0.69226   0.69226
 Alpha virt. eigenvalues --    1.09470   1.09760   1.11963   1.11963   1.11965

 Mulliken charges:
               1
     1  H    0.000556
     2  H   -0.000556
     3  H   -0.000556
     4  H    0.000556
 Sum of Mulliken charges =  -0.00000

 Dipole moment (field-independent basis, Debye):
    X=              0.0000    Y=             -0.0000    Z=             -0.0000  Tot=              0.0000
 Quadrupole moment (field-independent basis, Debye-Ang):
   XX=             -4.1797   YY=             -4.1797   ZZ=             -2.9103
   XY=             -0.0000   XZ=             -0.0000   YZ=              0.0000

 434615\CCSD=-2.3446664\CCSD(T)=-2.344668\RMSD=3.161e-09\PG=D*H [C*(H1H
 Normal termination of Gaussian 16 at Fri Feb  9 17:44:38 2024.
