 Gaussian 16, Revision A.03,
 Gaussian 16:  ES64L-G16RevA.03 25-Dec-2016

 ------------------
 #p CCSD(T)/cc-pVTZ
 ------------------

 ---------
 H2_H2_230
 ---------
 Symbolic Z-matrix:
 Charge =  0 Multiplicity = 1

                         Standard orientation:
 ---------------------------------------------------------------------
 Center     Atomic      Atomic             Coordinates (Angstroms)
 Number     Number       Type             X           Y           Z
 ---------------------------------------------------------------------
      1          1           0       -0.331020   -2.249550    0.000000
      2          1           0        0.405248   -2.175322    0.000000
      3          1           0       -0.000000    1.844302    0.000000
      4          1           0       -0.074229    2.580570    0.000000
 ---------------------------------------------------------------------

 SCF Done:  E(RHF) =  -2.26594778696     A.U. after    6 cycles
 E2 =    -0.6337709304D-01 EUMP2 =    -0.23293248799951D+01
 CCSD(T)
 CCSD(T)= -0.23447038540D+01

 The electronic state is 1-A'.
 Alpha  occ. eigenvalues --   -0.59585  -0.59391
 Alpha virt. eigenvalues --    0.16178   0.16903   0.28561   0.33614   0.63819
 Alpha virt. eigenvalues --    0.64446   0.69197   0.69311   0.69336   0.70761
 Alpha virt. eigenvalues --    1.09629   1.10117   1.11942   1.11943   1.12056

 Mulliken charges:
               1
     1  H    0.000429
     2  H   -0.000429
     3  H    0.000452
     4  H   -0.000452
 Sum of Mulliken charges =   0.00000

 Dipole moment (field-independent basis, Debye):
    X=             -0.0006    Y=             -0.0041    Z=              0.0000  Tot=              0.0041
 Quadrupole moment (field-independent basis, Debye-Ang):
   XX=             -3.5576   YY=             -3.5611   ZZ=             -4.1800
   XY=              0.0013   XZ=              0.0000   YZ=              0.0000

 34975\CCSD=-2.3447015\CCSD(T)=-2.3447039\RMSD=7.584e-09\PG=CS [SG(H4)]
 Normal termination of Gaussian 16 at Fri Feb  9 17:43:51 2024.
