 Gaussian 16, Revision A.03,
 Gaussian 16:  ES64L-G16RevA.03 25-Dec-2016

 ------------------
 #p CCSD(T)/cc-pVTZ
 ------------------

 --------
 H2_H2_82
 --------
 Symbolic Z-matrix:
 Charge =  0 Multiplicity = 1

                         Standard orientation:
 ---------------------------------------------------------------------
 Center     Atomic      Atomic             Coordinates (Angstroms)
 Number     Number       Type             X           Y           Z
 ---------------------------------------------------------------------
      1          1           0       -0.176269   -1.655013   -0.000000
      2          1           0        0.273612   -1.067469   -0.000000
      3          1           0        0.000000    0.994456    0.000000
      4          1           0       -0.097343    1.728026    0.000000
 ---------------------------------------------------------------------

 SCF Done:  E(RHF) =  -2.26407518144     A.U. after    7 cycles
 E2 =    -0.6418243452D-01 EUMP2 =    -0.23282576159563D+01
 CCSD(T)
 CCSD(T)= -0.23436937989D+01

 The electronic state is 1-A'.
 Alpha  occ. eigenvalues --   -0.61567  -0.57799
 Alpha virt. eigenvalues --    0.15997   0.20563   0.29778   0.38818   0.61841
 Alpha virt. eigenvalues --    0.64593   0.66417   0.69879   0.71191   0.75573
 Alpha virt. eigenvalues --    1.00095   1.04956   1.05933   1.18446   1.20799

 Mulliken charges:
               1
     1  H    0.011080
     2  H   -0.009625
     3  H    0.004330
     4  H   -0.005785
 Sum of Mulliken charges =   0.00000

 Dipole moment (field-independent basis, Debye):
    X=             -0.0190    Y=             -0.0157    Z=             -0.0000  Tot=              0.0246
 Quadrupole moment (field-independent basis, Debye-Ang):
   XX=             -3.9208   YY=             -3.1947   ZZ=             -4.1630
   XY=              0.2308   XZ=             -0.0000   YZ=              0.0000

 23134\MP4SDQ=-2.3424567\CCSD=-2.3436082\CCSD(T)=-2.3436938\RMSD=1.625e
 Normal termination of Gaussian 16 at Fri Feb  9 17:40:31 2024.
