 Gaussian 16, Revision A.03,
 Gaussian 16:  ES64L-G16RevA.03 25-Dec-2016

 ------------------
 #p CCSD(T)/cc-pVTZ
 ------------------

 ---------
 H2_H2_191
 ---------
 Symbolic Z-matrix:
 Charge =  0 Multiplicity = 1

                         Standard orientation:
 ---------------------------------------------------------------------
 Center     Atomic      Atomic             Coordinates (Angstroms)
 Number     Number       Type             X           Y           Z
 ---------------------------------------------------------------------
      1          1           0       -0.324310   -1.996465    0.000000
      2          1           0        0.410637   -1.910138    0.000000
      3          1           0        0.000000    1.585828    0.000000
      4          1           0       -0.086327    2.320775    0.000000
 ---------------------------------------------------------------------

 SCF Done:  E(RHF) =  -2.26594284728     A.U. after    7 cycles
 E2 =    -0.6341226700D-01 EUMP2 =    -0.23293551142789D+01
 CCSD(T)
 CCSD(T)= -0.23447375553D+01

 The electronic state is 1-A'.
 Alpha  occ. eigenvalues --   -0.59713  -0.59280
 Alpha virt. eigenvalues --    0.16146   0.17045   0.28308   0.35005   0.62423
 Alpha virt. eigenvalues --    0.64142   0.69157   0.69338   0.69503   0.74103
 Alpha virt. eigenvalues --    1.08826   1.11154   1.11905   1.11936   1.12085

 Mulliken charges:
               1
     1  H    0.000947
     2  H   -0.000902
     3  H    0.000630
     4  H   -0.000674
 Sum of Mulliken charges =  -0.00000

 Dipole moment (field-independent basis, Debye):
    X=             -0.0012    Y=             -0.0064    Z=              0.0000  Tot=              0.0065
 Quadrupole moment (field-independent basis, Debye-Ang):
   XX=             -3.5576   YY=             -3.5655   ZZ=             -4.1803
   XY=              0.0022   XZ=              0.0000   YZ=              0.0000

 35303\CCSD=-2.344732\CCSD(T)=-2.3447376\RMSD=2.235e-09\PG=CS [SG(H4)]\
 Normal termination of Gaussian 16 at Fri Feb  9 17:42:58 2024.
