 Gaussian 16, Revision A.03,
 Gaussian 16:  ES64L-G16RevA.03 25-Dec-2016

 ------------------
 #p CCSD(T)/cc-pVTZ
 ------------------

 -------
 H2_H2_8
 -------
 Symbolic Z-matrix:
 Charge =  0 Multiplicity = 1

                         Standard orientation:
 ---------------------------------------------------------------------
 Center     Atomic      Atomic             Coordinates (Angstroms)
 Number     Number       Type             X           Y           Z
 ---------------------------------------------------------------------
      1          1           0       -0.157127   -0.899423    0.000000
      2          1           0        0.499110   -0.557440    0.000000
      3          1           0       -0.000000    0.400312    0.000000
      4          1           0       -0.341983    1.056550    0.000000
 ---------------------------------------------------------------------

 SCF Done:  E(RHF) =  -2.19955800369     A.U. after    8 cycles
 E2 =    -0.7064446808D-01 EUMP2 =    -0.22702024717718D+01
 CCSD(T)
 CCSD(T)= -0.22858030221D+01

 The electronic state is 1-A'.
 Alpha  occ. eigenvalues --   -0.74831  -0.46766
 Alpha virt. eigenvalues --    0.14355   0.20830   0.30562   0.38039   0.57362
 Alpha virt. eigenvalues --    0.57542   0.68207   0.74345   0.82090   1.03236
 Alpha virt. eigenvalues --    1.08601   1.09155   1.15926   1.31580   1.49727

 Mulliken charges:
               1
     1  H    0.040532
     2  H    0.028287
     3  H    0.038558
     4  H   -0.107377
 Sum of Mulliken charges =  -0.00000

 Dipole moment (field-independent basis, Debye):
    X=              0.1248    Y=             -0.5786    Z=              0.0000  Tot=              0.5919
 Quadrupole moment (field-independent basis, Debye-Ang):
   XX=             -3.3982   YY=             -4.8620   ZZ=             -3.9363
   XY=              0.4069   XZ=              0.0000   YZ=              0.0000

 1\CCSD=-2.2851886\CCSD(T)=-2.285803\RMSD=3.713e-09\PG=CS [SG(H4)]\\@
 Normal termination of Gaussian 16 at Fri Feb  9 17:38:51 2024.
