 Gaussian 16, Revision A.03,
 Gaussian 16:  ES64L-G16RevA.03 25-Dec-2016

 ------------------
 #p CCSD(T)/cc-pVTZ
 ------------------

 ---------
 H2_H2_234
 ---------
 Symbolic Z-matrix:
 Charge =  0 Multiplicity = 1

                         Standard orientation:
 ---------------------------------------------------------------------
 Center     Atomic      Atomic             Coordinates (Angstroms)
 Number     Number       Type             X           Y           Z
 ---------------------------------------------------------------------
      1          1           0        0.000000    0.000000    2.800000
      2          1           0        0.000000    0.000000    2.060000
      3          1           0        0.000000    0.000000   -2.060000
      4          1           0        0.000000    0.000000   -2.800000
 ---------------------------------------------------------------------

 SCF Done:  E(RHF) =  -2.26591593917     A.U. after    6 cycles
 E2 =    -0.6337692907D-01 EUMP2 =    -0.23292928682408D+01
 CCSD(T)
 CCSD(T)= -0.23446731902D+01

 The electronic state is 1-SGG.
 Alpha  occ. eigenvalues --   -0.59569  -0.59489
 Alpha virt. eigenvalues --    0.13992   0.19372   0.29117   0.32831   0.62098
 Alpha virt. eigenvalues --    0.69206   0.69213   0.69213   0.69216   0.69216
 Alpha virt. eigenvalues --    1.09067   1.10132   1.11944   1.11944   1.11959

 Mulliken charges:
               1
     1  H    0.000723
     2  H   -0.000723
     3  H   -0.000723
     4  H    0.000723
 Sum of Mulliken charges =   0.00000

 Dipole moment (field-independent basis, Debye):
    X=              0.0000    Y=             -0.0000    Z=             -0.0000  Tot=              0.0000
 Quadrupole moment (field-independent basis, Debye-Ang):
   XX=             -4.1798   YY=             -4.1798   ZZ=             -2.9029
   XY=             -0.0000   XZ=             -0.0000   YZ=              0.0000

 434663\CCSD=-2.3446706\CCSD(T)=-2.3446732\RMSD=3.297e-09\PG=D*H [C*(H1
 Normal termination of Gaussian 16 at Fri Feb  9 17:43:56 2024.
