 Gaussian 16, Revision A.03,
 Gaussian 16:  ES64L-G16RevA.03 25-Dec-2016

 ------------------
 #p CCSD(T)/cc-pVTZ
 ------------------

 --------
 H2_H2_13
 --------
 Symbolic Z-matrix:
 Charge =  0 Multiplicity = 1

                         Standard orientation:
 ---------------------------------------------------------------------
 Center     Atomic      Atomic             Coordinates (Angstroms)
 Number     Number       Type             X           Y           Z
 ---------------------------------------------------------------------
      1          1           0       -0.101399   -1.217952    0.000000
      2          1           0        0.280054   -0.583844    0.000000
      3          1           0        0.000000    0.541843   -0.000000
      4          1           0       -0.178655    1.259953   -0.000000
 ---------------------------------------------------------------------

 SCF Done:  E(RHF) =  -2.23297288613     A.U. after    8 cycles
 E2 =    -0.6861470848D-01 EUMP2 =    -0.23015875946046D+01
 CCSD(T)
 CCSD(T)= -0.23171605086D+01

 The electronic state is 1-A'.
 Alpha  occ. eigenvalues --   -0.69956  -0.51116
 Alpha virt. eigenvalues --    0.15947   0.21929   0.31847   0.37740   0.54665
 Alpha virt. eigenvalues --    0.59820   0.68966   0.76233   0.77249   0.86937
 Alpha virt. eigenvalues --    1.05862   1.07636   1.27816   1.37565   1.41626

 Mulliken charges:
               1
     1  H   -0.003725
     2  H    0.013188
     3  H    0.009096
     4  H   -0.018559
 Sum of Mulliken charges =   0.00000

 Dipole moment (field-independent basis, Debye):
    X=             -0.0158    Y=             -0.1177    Z=              0.0000  Tot=              0.1188
 Quadrupole moment (field-independent basis, Debye-Ang):
   XX=             -3.8071   YY=             -3.8259   ZZ=             -4.0001
   XY=              0.2069   XZ=             -0.0000   YZ=             -0.0000

 156072\MP4SDQ=-2.3157572\CCSD=-2.3166653\CCSD(T)=-2.3171605\RMSD=1.036
 Normal termination of Gaussian 16 at Fri Feb  9 17:38:58 2024.
