 Gaussian 16, Revision A.03,
 Gaussian 16:  ES64L-G16RevA.03 25-Dec-2016

 ------------------
 #p CCSD(T)/cc-pVTZ
 ------------------

 --------
 H2_H2_11
 --------
 Symbolic Z-matrix:
 Charge =  0 Multiplicity = 1

                         Standard orientation:
 ---------------------------------------------------------------------
 Center     Atomic      Atomic             Coordinates (Angstroms)
 Number     Number       Type             X           Y           Z
 ---------------------------------------------------------------------
      1          1           0       -0.168121   -0.913666    0.000000
      2          1           0        0.495515   -0.586272    0.000000
      3          1           0       -0.000000    0.418151    0.000000
      4          1           0       -0.327394    1.081787    0.000000
 ---------------------------------------------------------------------

 SCF Done:  E(RHF) =  -2.20673145113     A.U. after    8 cycles
 E2 =    -0.7018997873D-01 EUMP2 =    -0.22769214298591D+01
 CCSD(T)
 CCSD(T)= -0.22925161221D+01

 The electronic state is 1-A'.
 Alpha  occ. eigenvalues --   -0.73771  -0.47484
 Alpha virt. eigenvalues --    0.14500   0.20879   0.30497   0.37950   0.57628
 Alpha virt. eigenvalues --    0.57828   0.67831   0.73869   0.81531   1.02440
 Alpha virt. eigenvalues --    1.08608   1.08725   1.15453   1.30602   1.49690

 Mulliken charges:
               1
     1  H    0.036312
     2  H    0.024993
     3  H    0.034559
     4  H   -0.095864
 Sum of Mulliken charges =  -0.00000

 Dipole moment (field-independent basis, Debye):
    X=              0.1044    Y=             -0.5374    Z=              0.0000  Tot=              0.5475
 Quadrupole moment (field-independent basis, Debye-Ang):
   XX=             -3.3933   YY=             -4.7825   ZZ=             -3.9482
   XY=              0.3584   XZ=              0.0000   YZ=              0.0000

 853\CCSD=-2.291937\CCSD(T)=-2.2925161\RMSD=3.031e-09\PG=CS [SG(H4)]\\@
 Normal termination of Gaussian 16 at Fri Feb  9 17:38:55 2024.
