 Gaussian 16, Revision A.03,
 Gaussian 16:  ES64L-G16RevA.03 25-Dec-2016

 ------------------
 #p CCSD(T)/cc-pVTZ
 ------------------

 ---------
 H2_H2_183
 ---------
 Symbolic Z-matrix:
 Charge =  0 Multiplicity = 1

                         Standard orientation:
 ---------------------------------------------------------------------
 Center     Atomic      Atomic             Coordinates (Angstroms)
 Number     Number       Type             X           Y           Z
 ---------------------------------------------------------------------
      1          1           0        0.000000    0.000000    2.460000
      2          1           0        0.000000    0.000000    1.720000
      3          1           0        0.000000    0.000000   -1.720000
      4          1           0        0.000000    0.000000   -2.460000
 ---------------------------------------------------------------------

 SCF Done:  E(RHF) =  -2.26589273816     A.U. after    6 cycles
 E2 =    -0.6341715419D-01 EUMP2 =    -0.23293098923522D+01
 CCSD(T)
 CCSD(T)= -0.23446953853D+01

 The electronic state is 1-SGG.
 Alpha  occ. eigenvalues --   -0.59705  -0.59420
 Alpha virt. eigenvalues --    0.13668   0.20441   0.28697   0.35590   0.64421
 Alpha virt. eigenvalues --    0.69155   0.69155   0.69215   0.69215   0.69457
 Alpha virt. eigenvalues --    1.09016   1.10817   1.11743   1.11743   1.12091

 Mulliken charges:
               1
     1  H    0.000935
     2  H   -0.000935
     3  H   -0.000935
     4  H    0.000935
 Sum of Mulliken charges =   0.00000

 Dipole moment (field-independent basis, Debye):
    X=             -0.0000    Y=             -0.0000    Z=              0.0000  Tot=              0.0000
 Quadrupole moment (field-independent basis, Debye-Ang):
   XX=             -4.1806   YY=             -4.1806   ZZ=             -2.8795
   XY=             -0.0000   XZ=             -0.0000   YZ=              0.0000

 34868\CCSD=-2.3446885\CCSD(T)=-2.3446954\RMSD=3.225e-09\PG=D*H [C*(H1H
 Normal termination of Gaussian 16 at Fri Feb  9 17:42:47 2024.
