 Gaussian 16, Revision A.03,
 Gaussian 16:  ES64L-G16RevA.03 25-Dec-2016

 ------------------
 #p CCSD(T)/cc-pVTZ
 ------------------

 ---------
 H2_H2_267
 ---------
 Symbolic Z-matrix:
 Charge =  0 Multiplicity = 1

                         Standard orientation:
 ---------------------------------------------------------------------
 Center     Atomic      Atomic             Coordinates (Angstroms)
 Number     Number       Type             X           Y           Z
 ---------------------------------------------------------------------
      1          1           0        0.000000    0.000000    3.020000
      2          1           0        0.000000    0.000000    2.280000
      3          1           0        0.000000    0.000000   -2.280000
      4          1           0        0.000000    0.000000   -3.020000
 ---------------------------------------------------------------------

 SCF Done:  E(RHF) =  -2.26592235940     A.U. after    6 cycles
 E2 =    -0.6336633540D-01 EUMP2 =    -0.23292886947999D+01
 CCSD(T)
 CCSD(T)= -0.23446676487D+01

 The electronic state is 1-SGG.
 Alpha  occ. eigenvalues --   -0.59533  -0.59498
 Alpha virt. eigenvalues --    0.14669   0.18603   0.29525   0.31780   0.62076
 Alpha virt. eigenvalues --    0.67796   0.69227   0.69227   0.69227   0.69227
 Alpha virt. eigenvalues --    1.09496   1.09738   1.11964   1.11964   1.11966

 Mulliken charges:
               1
     1  H    0.000542
     2  H   -0.000542
     3  H   -0.000542
     4  H    0.000542
 Sum of Mulliken charges =  -0.00000

 Dipole moment (field-independent basis, Debye):
    X=              0.0000    Y=              0.0000    Z=              0.0000  Tot=              0.0000
 Quadrupole moment (field-independent basis, Debye-Ang):
   XX=             -4.1797   YY=             -4.1797   ZZ=             -2.9109
   XY=             -0.0000   XZ=             -0.0000   YZ=              0.0000

 4612\CCSD=-2.3446662\CCSD(T)=-2.3446676\RMSD=3.133e-09\PG=D*H [C*(H1H1
 Normal termination of Gaussian 16 at Fri Feb  9 17:44:42 2024.
