 Gaussian 16, Revision A.03,
 Gaussian 16:  ES64L-G16RevA.03 25-Dec-2016

 ------------------
 #p CCSD(T)/cc-pVTZ
 ------------------

 ---
 H2O
 ---
 Symbolic Z-matrix:
 Charge =  0 Multiplicity = 1

                         Standard orientation:
 ---------------------------------------------------------------------
 Center     Atomic      Atomic             Coordinates (Angstroms)
 Number     Number       Type             X           Y           Z
 ---------------------------------------------------------------------
      1          8           0        0.000000   -0.000000    0.114226
      2          1           0        0.000000    0.799571   -0.456906
      3          1           0       -0.000000   -0.799571   -0.456906
 ---------------------------------------------------------------------

 SCF Done:  E(RHF) =  -76.0537507418     A.U. after   10 cycles
 E2 =    -0.2629267170D+00 EUMP2 =    -0.76316677458796D+02
 CCSD(T)
 CCSD(T)= -0.76330287169D+02

 The electronic state is 1-A1.
 Alpha  occ. eigenvalues --  -20.55680  -1.32979  -0.70385  -0.56430  -0.50092
 Alpha virt. eigenvalues --    0.14007   0.20084   0.54177   0.57102   0.67756
 Alpha virt. eigenvalues --    0.78787   0.80219   0.82142   0.84671   0.97107
 Alpha virt. eigenvalues --    1.14617   1.16982   1.51537   1.51825   2.00524

 Mulliken charges:
               1
     1  O   -0.509411
     2  H    0.254706
     3  H    0.254706
 Sum of Mulliken charges =   0.00000

 Dipole moment (field-independent basis, Debye):
    X=             -0.0000    Y=              0.0000    Z=             -1.9720  Tot=              1.9720
 Quadrupole moment (field-independent basis, Debye-Ang):
   XX=             -7.3560   YY=             -3.8958   ZZ=             -6.1952
   XY=              0.0000   XZ=              0.0000   YZ=              0.0000

 CCSD(T)/cc-pVTZ\\H2O\\0,1\O,0,0.,-0.009833,0.\H,0,-0.799571,-0.580965,
 321242\MP4SDQ=-76.3227688\CCSD=-76.3224758\CCSD(T)=-76.3302872\RMSD=7.
 Normal termination of Gaussian 16 at Sun Aug 28 13:29:57 2022.
