 Gaussian 16, Revision A.03,
 Gaussian 16:  ES64L-G16RevA.03 25-Dec-2016

 ------------------
 #p CCSD(T)/cc-pVTZ
 ------------------

 ------------
 H2O_H2O_2185
 ------------
 Symbolic Z-matrix:
 Charge =  0 Multiplicity = 1

                         Standard orientation:
 ---------------------------------------------------------------------
 Center     Atomic      Atomic             Coordinates (Angstroms)
 Number     Number       Type             X           Y           Z
 ---------------------------------------------------------------------
      1          8           0        0.034786   -1.947580    0.000000
      2          1           0       -0.765656   -2.517490    0.000000
      3          1           0        0.833484   -2.519933    0.000000
      4          8           0        0.034786    1.971078    0.000000
      5          1           0        0.322882    2.910497    0.000000
      6          1           0       -0.947290    1.938940    0.000000
 ---------------------------------------------------------------------

 SCF Done:  E(RHF) =  -152.105705564     A.U. after   10 cycles
 E2 =    -0.5263042250D+00 EUMP2 =    -0.15263200978876D+03
 CCSD(T)
 CCSD(T)= -0.15265924026D+03

 The electronic state is 1-A'.
 Alpha  occ. eigenvalues --  -20.54857 -20.54482  -1.32139  -1.31759  -0.69556
 Alpha  occ. eigenvalues --   -0.69159  -0.55552  -0.55039  -0.49242  -0.48862
 Alpha virt. eigenvalues --    0.13911   0.15772   0.20428   0.21380   0.53646
 Alpha virt. eigenvalues --    0.55562   0.57784   0.58199   0.63447   0.75148
 Alpha virt. eigenvalues --    0.79303   0.80087   0.80312   0.81103   0.82912

 Mulliken charges:
               1
     1  O   -0.496280
     2  H    0.245461
     3  H    0.251263
     4  O   -0.496296
     5  H    0.244061
     6  H    0.251792
 Sum of Mulliken charges =  -0.00000

 Dipole moment (field-independent basis, Debye):
    X=             -1.1734    Y=             -0.4278    Z=              0.0000  Tot=              1.2489
 Quadrupole moment (field-independent basis, Debye-Ang):
   XX=             -8.5860   YY=              2.6567   ZZ=            -14.7107
   XY=             -1.5327   XZ=              0.0000   YZ=              0.0000

 Normal termination of Gaussian 16 at Sat Aug 27 09:05:40 2022.
