 Gaussian 16, Revision A.03,
 Gaussian 16:  ES64L-G16RevA.03 25-Dec-2016

 ------------------
 #p CCSD(T)/cc-pVTZ
 ------------------

 -----------
 H2O_H2O_295
 -----------
 Symbolic Z-matrix:
 Charge =  0 Multiplicity = 1

                         Standard orientation:
 ---------------------------------------------------------------------
 Center     Atomic      Atomic             Coordinates (Angstroms)
 Number     Number       Type             X           Y           Z
 ---------------------------------------------------------------------
      1          8           0        0.055379   -0.904168    0.000000
      2          1           0       -0.747049   -1.471280    0.000000
      3          1           0        0.852073   -1.479306    0.000000
      4          8           0        0.055379    0.988276    0.000000
      5          1           0       -0.284726    1.910140    0.000000
      6          1           0       -0.706361    0.367584    0.000000
 ---------------------------------------------------------------------

 SCF Done:  E(RHF) =  -152.023051606     A.U. after   11 cycles
 E2 =    -0.5403167245D+00 EUMP2 =    -0.15256336833015D+03
 CCSD(T)
 CCSD(T)= -0.15258942288D+03

 The electronic state is 1-A'.
 Alpha  occ. eigenvalues --  -20.55321 -20.49953  -1.36829  -1.27316  -0.74488
 Alpha  occ. eigenvalues --   -0.70389  -0.53076  -0.52707  -0.47669  -0.44248
 Alpha virt. eigenvalues --    0.13288   0.18901   0.19520   0.25656   0.50495
 Alpha virt. eigenvalues --    0.55265   0.61699   0.66040   0.72686   0.75775
 Alpha virt. eigenvalues --    0.79856   0.80372   0.83968   0.85061   0.88141

 Mulliken charges:
               1
     1  O   -0.369182
     2  H    0.186499
     3  H    0.225361
     4  O   -0.461472
     5  H    0.164009
     6  H    0.254786
 Sum of Mulliken charges =  -0.00000

 Dipole moment (field-independent basis, Debye):
    X=             -1.5511    Y=             -1.9347    Z=              0.0000  Tot=              2.4797
 Quadrupole moment (field-independent basis, Debye-Ang):
   XX=             -9.7726   YY=             -7.1908   ZZ=            -14.6370
   XY=             -1.6031   XZ=              0.0000   YZ=              0.0000

 Normal termination of Gaussian 16 at Fri Aug 26 14:57:31 2022.
