 Gaussian 16, Revision A.03,
 Gaussian 16:  ES64L-G16RevA.03 25-Dec-2016

 ------------------
 #p CCSD(T)/cc-pVTZ
 ------------------

 ------------
 H2O_H2O_4439
 ------------
 Symbolic Z-matrix:
 Charge =  0 Multiplicity = 1

                         Standard orientation:
 ---------------------------------------------------------------------
 Center     Atomic      Atomic             Coordinates (Angstroms)
 Number     Number       Type             X           Y           Z
 ---------------------------------------------------------------------
      1          8           0        0.045339   -3.132765    0.000000
      2          1           0       -0.754938   -3.702908    0.000000
      3          1           0        0.844203   -3.704885    0.000000
      4          8           0        0.045339    3.177343    0.000000
      5          1           0        0.080192    4.159325    0.000000
      6          1           0       -0.894873    2.891845    0.000000
 ---------------------------------------------------------------------

 SCF Done:  E(RHF) =  -152.107161581     A.U. after   10 cycles
 E2 =    -0.5259016386D+00 EUMP2 =    -0.15263306321915D+03
 CCSD(T)
 CCSD(T)= -0.15266028852D+03

 The electronic state is 1-A'.
 Alpha  occ. eigenvalues --  -20.55426 -20.55167  -1.32724  -1.32464  -0.70131
 Alpha  occ. eigenvalues --   -0.69866  -0.56160  -0.55899  -0.49834  -0.49574
 Alpha virt. eigenvalues --    0.14224   0.14494   0.20290   0.20566   0.54434
 Alpha virt. eigenvalues --    0.54711   0.57331   0.57591   0.68037   0.68324
 Alpha virt. eigenvalues --    0.79046   0.79302   0.80482   0.80761   0.82409

 Mulliken charges:
               1
     1  O   -0.507430
     2  H    0.252692
     3  H    0.254738
     4  O   -0.507244
     5  H    0.251938
     6  H    0.255307
 Sum of Mulliken charges =   0.00000

 Dipole moment (field-independent basis, Debye):
    X=             -1.5581    Y=             -0.7786    Z=              0.0000  Tot=              1.7418
 Quadrupole moment (field-independent basis, Debye-Ang):
   XX=             -9.0968   YY=              9.5151   ZZ=            -14.7115
   XY=             -4.1314   XZ=              0.0000   YZ=              0.0000

 Normal termination of Gaussian 16 at Sat Aug 27 07:19:35 2022.
