 Gaussian 16, Revision A.03,
 Gaussian 16:  ES64L-G16RevA.03 25-Dec-2016

 ------------------
 #p CCSD(T)/cc-pVTZ
 ------------------

 ------------
 H2O_H2O_2056
 ------------
 Symbolic Z-matrix:
 Charge =  0 Multiplicity = 1

                         Standard orientation:
 ---------------------------------------------------------------------
 Center     Atomic      Atomic             Coordinates (Angstroms)
 Number     Number       Type             X           Y           Z
 ---------------------------------------------------------------------
      1          8           0        0.021861   -1.889165    0.000000
      2          1           0       -0.778278   -2.459502    0.000000
      3          1           0        0.820864   -2.461091    0.000000
      4          8           0        0.021861    1.897816    0.000000
      5          1           0        0.542834    2.730938    0.000000
      6          1           0       -0.935189    2.120441    0.000000
 ---------------------------------------------------------------------

 SCF Done:  E(RHF) =  -152.105009521     A.U. after   10 cycles
 E2 =    -0.5264126073D+00 EUMP2 =    -0.15263142212839D+03
 CCSD(T)
 CCSD(T)= -0.15265866474D+03

 The electronic state is 1-A'.
 Alpha  occ. eigenvalues --  -20.54584 -20.54438  -1.31865  -1.31714  -0.69285
 Alpha  occ. eigenvalues --   -0.69127  -0.55377  -0.54814  -0.48971  -0.48803
 Alpha virt. eigenvalues --    0.14099   0.15842   0.20554   0.21307   0.53729
 Alpha virt. eigenvalues --    0.56237   0.57927   0.58251   0.62093   0.75450
 Alpha virt. eigenvalues --    0.79321   0.80040   0.80594   0.81015   0.82726

 Mulliken charges:
               1
     1  O   -0.492007
     2  H    0.244121
     3  H    0.248087
     4  O   -0.491939
     5  H    0.243429
     6  H    0.248309
 Sum of Mulliken charges =  -0.00000

 Dipole moment (field-independent basis, Debye):
    X=             -0.7355    Y=             -0.1584    Z=              0.0000  Tot=              0.7524
 Quadrupole moment (field-independent basis, Debye-Ang):
   XX=             -8.1386   YY=              2.6951   ZZ=            -14.7097
   XY=             -0.8140   XZ=              0.0000   YZ=              0.0000

 Normal termination of Gaussian 16 at Sat Aug 27 08:20:23 2022.
