 Gaussian 16, Revision A.03,
 Gaussian 16:  ES64L-G16RevA.03 25-Dec-2016

 ------------------
 #p CCSD(T)/cc-pVTZ
 ------------------

 ------------
 H2O_H2O_3837
 ------------
 Symbolic Z-matrix:
 Charge =  0 Multiplicity = 1

                         Standard orientation:
 ---------------------------------------------------------------------
 Center     Atomic      Atomic             Coordinates (Angstroms)
 Number     Number       Type             X           Y           Z
 ---------------------------------------------------------------------
      1          8           0        0.040406   -2.819757    0.000000
      2          1           0       -0.759865   -3.389908    0.000000
      3          1           0        0.839276   -3.391868    0.000000
      4          8           0        0.040406    2.853114    0.000000
      5          1           0        0.203124    3.822149    0.000000
      6          1           0       -0.929026    2.692771    0.000000
 ---------------------------------------------------------------------

 SCF Done:  E(RHF) =  -152.106919508     A.U. after   10 cycles
 E2 =    -0.5259343865D+00 EUMP2 =    -0.15263285389400D+03
 CCSD(T)
 CCSD(T)= -0.15266008365D+03

 The electronic state is 1-A'.
 Alpha  occ. eigenvalues --  -20.55300 -20.55059  -1.32597  -1.32354  -0.70004
 Alpha  occ. eigenvalues --   -0.69756  -0.56021  -0.55779  -0.49705  -0.49463
 Alpha virt. eigenvalues --    0.14288   0.14618   0.20373   0.20652   0.54556
 Alpha virt. eigenvalues --    0.54828   0.57437   0.57682   0.68053   0.68612
 Alpha virt. eigenvalues --    0.79174   0.79412   0.80613   0.80873   0.82561

 Mulliken charges:
               1
     1  O   -0.506015
     2  H    0.251765
     3  H    0.254252
     4  O   -0.505771
     5  H    0.250966
     6  H    0.254803
 Sum of Mulliken charges =  -0.00000

 Dipole moment (field-independent basis, Debye):
    X=             -1.3858    Y=             -0.5849    Z=              0.0000  Tot=              1.5041
 Quadrupole moment (field-independent basis, Debye-Ang):
   XX=             -8.8317   YY=              8.3219   ZZ=            -14.7111
   XY=             -3.1005   XZ=              0.0000   YZ=              0.0000

 Normal termination of Gaussian 16 at Sat Aug 27 03:41:28 2022.
