 Gaussian 16, Revision A.03,
 Gaussian 16:  ES64L-G16RevA.03 25-Dec-2016

 ------------------
 #p CCSD(T)/cc-pVTZ
 ------------------

 -----------
 H2O_H2O_493
 -----------
 Symbolic Z-matrix:
 Charge =  0 Multiplicity = 1

                         Standard orientation:
 ---------------------------------------------------------------------
 Center     Atomic      Atomic             Coordinates (Angstroms)
 Number     Number       Type             X           Y           Z
 ---------------------------------------------------------------------
      1          8           0        0.052917   -1.018167    0.000000
      2          1           0       -0.749110   -1.585845    0.000000
      3          1           0        0.850018   -1.592742    0.000000
      4          8           0        0.052917    1.088225    0.000000
      5          1           0       -0.164626    2.046443    0.000000
      6          1           0       -0.782958    0.571680    0.000000
 ---------------------------------------------------------------------

 SCF Done:  E(RHF) =  -152.071564464     A.U. after   11 cycles
 E2 =    -0.5341605546D+00 EUMP2 =    -0.15260572501818D+03
 CCSD(T)
 CCSD(T)= -0.15263253367D+03

 The electronic state is 1-A'.
 Alpha  occ. eigenvalues --  -20.54879 -20.51547  -1.34046  -1.28737  -0.71447
 Alpha  occ. eigenvalues --   -0.68742  -0.55425  -0.50862  -0.50031  -0.45639
 Alpha virt. eigenvalues --    0.13604   0.18395   0.19707   0.24785   0.51689
 Alpha virt. eigenvalues --    0.56639   0.60346   0.63092   0.71999   0.75003
 Alpha virt. eigenvalues --    0.79356   0.82544   0.84143   0.84339   0.87847

 Mulliken charges:
               1
     1  O   -0.426685
     2  H    0.209083
     3  H    0.234436
     4  O   -0.452419
     5  H    0.186619
     6  H    0.248966
 Sum of Mulliken charges =  -0.00000

 Dipole moment (field-independent basis, Debye):
    X=             -1.5601    Y=             -1.4753    Z=              0.0000  Tot=              2.1472
 Quadrupole moment (field-independent basis, Debye-Ang):
   XX=             -9.6379   YY=             -5.7071   ZZ=            -14.6998
   XY=             -1.5239   XZ=              0.0000   YZ=              0.0000

 13285\MP4DQ=-152.6131843\MP4SDQ=-152.616585\CCSD=-152.6158642\CCSD(T)=
 Normal termination of Gaussian 16 at Fri Aug 26 16:58:15 2022.
