 Gaussian 16, Revision A.03,
 Gaussian 16:  ES64L-G16RevA.03 25-Dec-2016

 ------------------
 #p CCSD(T)/cc-pVTZ
 ------------------

 ------------
 H2O_H2O_2884
 ------------
 Symbolic Z-matrix:
 Charge =  0 Multiplicity = 1

                         Standard orientation:
 ---------------------------------------------------------------------
 Center     Atomic      Atomic             Coordinates (Angstroms)
 Number     Number       Type             X           Y           Z
 ---------------------------------------------------------------------
      1          8           0        0.031742   -2.322213    0.000000
      2          1           0       -0.768498   -2.892408    0.000000
      3          1           0        0.830643   -2.894282    0.000000
      4          8           0        0.031742    2.341390    0.000000
      5          1           0        0.380333    3.260079    0.000000
      6          1           0       -0.950345    2.373201    0.000000
 ---------------------------------------------------------------------

 SCF Done:  E(RHF) =  -152.106236020     A.U. after   10 cycles
 E2 =    -0.5260492171D+00 EUMP2 =    -0.15263228523703D+03
 CCSD(T)
 CCSD(T)= -0.15265952515D+03

 The electronic state is 1-A'.
 Alpha  occ. eigenvalues --  -20.55009 -20.54802  -1.32301  -1.32092  -0.69712
 Alpha  occ. eigenvalues --   -0.69495  -0.55694  -0.55478  -0.49405  -0.49197
 Alpha virt. eigenvalues --    0.14204   0.15103   0.20486   0.20909   0.54629
 Alpha virt. eigenvalues --    0.55189   0.57661   0.57891   0.66484   0.71068
 Alpha virt. eigenvalues --    0.79456   0.79691   0.80849   0.81237   0.82598

 Mulliken charges:
               1
     1  O   -0.501901
     2  H    0.249284
     3  H    0.252659
     4  O   -0.501532
     5  H    0.248447
     6  H    0.253043
 Sum of Mulliken charges =  -0.00000

 Dipole moment (field-independent basis, Debye):
    X=             -1.0819    Y=             -0.3404    Z=              0.0000  Tot=              1.1342
 Quadrupole moment (field-independent basis, Debye-Ang):
   XX=             -8.4471   YY=              5.6192   ZZ=            -14.7103
   XY=             -1.7523   XZ=              0.0000   YZ=              0.0000

 Normal termination of Gaussian 16 at Fri Aug 26 17:07:53 2022.
