 Gaussian 16, Revision A.03,
 Gaussian 16:  ES64L-G16RevA.03 25-Dec-2016

 ------------------
 #p CCSD(T)/cc-pVTZ
 ------------------

 -----------
 H2O_H2O_218
 -----------
 Symbolic Z-matrix:
 Charge =  0 Multiplicity = 1

                         Standard orientation:
 ---------------------------------------------------------------------
 Center     Atomic      Atomic             Coordinates (Angstroms)
 Number     Number       Type             X           Y           Z
 ---------------------------------------------------------------------
      1          8           0        0.052942   -0.871950    0.000000
      2          1           0       -0.749480   -1.439070    0.000000
      3          1           0        0.849642   -1.447080    0.000000
      4          8           0        0.052942    0.941935    0.000000
      5          1           0       -0.163935    1.900304    0.000000
      6          1           0       -0.783293    0.425971    0.000000
 ---------------------------------------------------------------------

 SCF Done:  E(RHF) =  -152.003861185     A.U. after   11 cycles
 E2 =    -0.5421686197D+00 EUMP2 =    -0.15254602980436D+03
 CCSD(T)
 CCSD(T)= -0.15257199745D+03

 The electronic state is 1-A'.
 Alpha  occ. eigenvalues --  -20.54334 -20.50487  -1.36753  -1.27239  -0.74200
 Alpha  occ. eigenvalues --   -0.70106  -0.54714  -0.52560  -0.44945  -0.44143
 Alpha virt. eigenvalues --    0.13582   0.18962   0.19572   0.24869   0.51285
 Alpha virt. eigenvalues --    0.55891   0.60693   0.65670   0.72889   0.76389
 Alpha virt. eigenvalues --    0.80666   0.80718   0.84025   0.84494   0.88449

 Mulliken charges:
               1
     1  O   -0.366131
     2  H    0.176671
     3  H    0.216574
     4  O   -0.421354
     5  H    0.147042
     6  H    0.247198
 Sum of Mulliken charges =  -0.00000

 Dipole moment (field-independent basis, Debye):
    X=             -1.4510    Y=             -1.5651    Z=              0.0000  Tot=              2.1342
 Quadrupole moment (field-independent basis, Debye-Ang):
   XX=             -9.6692   YY=             -7.4632   ZZ=            -14.6379
   XY=             -1.2347   XZ=              0.0000   YZ=              0.0000

 Normal termination of Gaussian 16 at Fri Aug 26 14:10:41 2022.
