 Gaussian 16, Revision A.03,
 Gaussian 16:  ES64L-G16RevA.03 25-Dec-2016

 ------------------
 #p CCSD(T)/cc-pVTZ
 ------------------

 ------------
 H2O_H2O_1020
 ------------
 Symbolic Z-matrix:
 Charge =  0 Multiplicity = 1

                         Standard orientation:
 ---------------------------------------------------------------------
 Center     Atomic      Atomic             Coordinates (Angstroms)
 Number     Number       Type             X           Y           Z
 ---------------------------------------------------------------------
      1          8           0        0.055318   -1.289665    0.000000
      2          1           0       -0.746285   -1.857943    0.000000
      3          1           0        0.852847   -1.863645    0.000000
      4          8           0        0.055318    1.373934    0.000000
      5          1           0       -0.286126    2.295304    0.000000
      6          1           0       -0.705519    0.752137    0.000000
 ---------------------------------------------------------------------

 SCF Done:  E(RHF) =  -152.104179779     A.U. after   10 cycles
 E2 =    -0.5287326181D+00 EUMP2 =    -0.15263291239715D+03
 CCSD(T)
 CCSD(T)= -0.15265999180D+03

 The electronic state is 1-A'.
 Alpha  occ. eigenvalues --  -20.55978 -20.52773  -1.33497  -1.30088  -0.70893
 Alpha  occ. eigenvalues --   -0.68006  -0.56381  -0.53474  -0.50589  -0.47171
 Alpha virt. eigenvalues --    0.13314   0.17645   0.19708   0.24854   0.52157
 Alpha virt. eigenvalues --    0.56776   0.58455   0.59593   0.70791   0.74497
 Alpha virt. eigenvalues --    0.75674   0.80917   0.82658   0.83033   0.84333

 Mulliken charges:
               1
     1  O   -0.476637
     2  H    0.236545
     3  H    0.254181
     4  O   -0.497450
     5  H    0.224270
     6  H    0.259092
 Sum of Mulliken charges =  -0.00000

 Dipole moment (field-independent basis, Debye):
    X=             -1.7591    Y=             -1.7005    Z=              0.0000  Tot=              2.4467
 Quadrupole moment (field-independent basis, Debye-Ang):
   XX=             -9.7461   YY=             -3.9011   ZZ=            -14.7250
   XY=             -2.3531   XZ=              0.0000   YZ=              0.0000

 Normal termination of Gaussian 16 at Sat Aug 27 01:26:20 2022.
