 Gaussian 16, Revision A.03,
 Gaussian 16:  ES64L-G16RevA.03 25-Dec-2016

 ------------------
 #p CCSD(T)/cc-pVTZ
 ------------------

 ------------
 H2O_H2O_1969
 ------------
 Symbolic Z-matrix:
 Charge =  0 Multiplicity = 1

                         Standard orientation:
 ---------------------------------------------------------------------
 Center     Atomic      Atomic             Coordinates (Angstroms)
 Number     Number       Type             X           Y           Z
 ---------------------------------------------------------------------
      1          8           0        0.054180   -1.798732    0.000000
      2          1           0       -0.746835   -2.367836    0.000000
      3          1           0        0.852302   -2.371888    0.000000
      4          8           0        0.054180    1.875967    0.000000
      5          1           0       -0.227244    2.817406    0.000000
      6          1           0       -0.745106    1.304436    0.000000
 ---------------------------------------------------------------------

 SCF Done:  E(RHF) =  -152.107674493     A.U. after   10 cycles
 E2 =    -0.5263989538D+00 EUMP2 =    -0.15263407344720D+03
 CCSD(T)
 CCSD(T)= -0.15266124266D+03

 The electronic state is 1-A'.
 Alpha  occ. eigenvalues --  -20.55698 -20.54165  -1.32971  -1.31448  -0.70383
 Alpha  occ. eigenvalues --   -0.68817  -0.56395  -0.54878  -0.50086  -0.48571
 Alpha virt. eigenvalues --    0.13274   0.16275   0.19963   0.22821   0.54074
 Alpha virt. eigenvalues --    0.54446   0.57126   0.58544   0.65180   0.75465
 Alpha virt. eigenvalues --    0.78352   0.78793   0.79608   0.80612   0.84710

 Mulliken charges:
               1
     1  O   -0.499075
     2  H    0.246376
     3  H    0.256237
     4  O   -0.506283
     5  H    0.242792
     6  H    0.259953
 Sum of Mulliken charges =  -0.00000

 Dipole moment (field-independent basis, Debye):
    X=             -1.8165    Y=             -1.4355    Z=              0.0000  Tot=              2.3152
 Quadrupole moment (field-independent basis, Debye-Ang):
   XX=             -9.6525   YY=             -0.6286   ZZ=            -14.7163
   XY=             -3.0806   XZ=              0.0000   YZ=              0.0000

 Normal termination of Gaussian 16 at Sat Aug 27 07:50:27 2022.
