 Gaussian 16, Revision A.03,
 Gaussian 16:  ES64L-G16RevA.03 25-Dec-2016

 ------------------
 #p CCSD(T)/cc-pVTZ
 ------------------

 ------------
 H2O_H2O_4614
 ------------
 Symbolic Z-matrix:
 Charge =  0 Multiplicity = 1

                         Standard orientation:
 ---------------------------------------------------------------------
 Center     Atomic      Atomic             Coordinates (Angstroms)
 Number     Number       Type             X           Y           Z
 ---------------------------------------------------------------------
      1          8           0        0.045338   -3.225834    0.000000
      2          1           0       -0.754919   -3.796006    0.000000
      3          1           0        0.844222   -3.797926    0.000000
      4          8           0        0.045338    3.270415    0.000000
      5          1           0        0.080156    4.252400    0.000000
      6          1           0       -0.894864    2.984885    0.000000
 ---------------------------------------------------------------------

 SCF Done:  E(RHF) =  -152.107188255     A.U. after   10 cycles
 E2 =    -0.5258970280D+00 EUMP2 =    -0.15263308528297D+03
 CCSD(T)
 CCSD(T)= -0.15266031016D+03

 The electronic state is 1-A'.
 Alpha  occ. eigenvalues --  -20.55439 -20.55195  -1.32737  -1.32492  -0.70143
 Alpha  occ. eigenvalues --   -0.69894  -0.56174  -0.55929  -0.49847  -0.49602
 Alpha virt. eigenvalues --    0.14217   0.14465   0.20282   0.20540   0.54421
 Alpha virt. eigenvalues --    0.54681   0.57320   0.57565   0.68028   0.68285
 Alpha virt. eigenvalues --    0.79033   0.79274   0.80469   0.80731   0.82394

 Mulliken charges:
               1
     1  O   -0.507583
     2  H    0.252851
     3  H    0.254732
     4  O   -0.507419
     5  H    0.252155
     6  H    0.255265
 Sum of Mulliken charges =   0.00000

 Dipole moment (field-independent basis, Debye):
    X=             -1.5587    Y=             -0.7779    Z=              0.0000  Tot=              1.7420
 Quadrupole moment (field-independent basis, Debye-Ang):
   XX=             -9.0966   YY=             10.1137   ZZ=            -14.7115
   XY=             -4.2754   XZ=              0.0000   YZ=              0.0000

 Normal termination of Gaussian 16 at Sat Aug 27 08:20:45 2022.
