 Gaussian 16, Revision A.03,
 Gaussian 16:  ES64L-G16RevA.03 25-Dec-2016

 ------------------
 #p CCSD(T)/cc-pVTZ
 ------------------

 ------------
 H2O_H2O_2788
 ------------
 Symbolic Z-matrix:
 Charge =  0 Multiplicity = 1

                         Standard orientation:
 ---------------------------------------------------------------------
 Center     Atomic      Atomic             Coordinates (Angstroms)
 Number     Number       Type             X           Y           Z
 ---------------------------------------------------------------------
      1          8           0        0.042972   -2.258387    0.000000
      2          1           0       -0.757525   -2.828221    0.000000
      3          1           0        0.841615   -2.830816    0.000000
      4          8           0        0.042972    2.297159    0.000000
      5          1           0        0.142352    3.274722    0.000000
      6          1           0       -0.913986    2.074136    0.000000
 ---------------------------------------------------------------------

 SCF Done:  E(RHF) =  -152.106579266     A.U. after   10 cycles
 E2 =    -0.5260454174D+00 EUMP2 =    -0.15263262468342D+03
 CCSD(T)
 CCSD(T)= -0.15265985423D+03

 The electronic state is 1-A'.
 Alpha  occ. eigenvalues --  -20.55190 -20.54741  -1.32482  -1.32029  -0.69893
 Alpha  occ. eigenvalues --   -0.69425  -0.55887  -0.55434  -0.49588  -0.49138
 Alpha virt. eigenvalues --    0.13937   0.15258   0.20336   0.21092   0.54357
 Alpha virt. eigenvalues --    0.55107   0.57526   0.57933   0.66250   0.71657
 Alpha virt. eigenvalues --    0.79277   0.79744   0.80543   0.81453   0.82894

 Mulliken charges:
               1
     1  O   -0.503584
     2  H    0.249443
     3  H    0.254313
     4  O   -0.503200
     5  H    0.247902
     6  H    0.255126
 Sum of Mulliken charges =  -0.00000

 Dipole moment (field-independent basis, Debye):
    X=             -1.4634    Y=             -0.6912    Z=              0.0000  Tot=              1.6184
 Quadrupole moment (field-independent basis, Debye-Ang):
   XX=             -8.9706   YY=              4.1649   ZZ=            -14.7112
   XY=             -2.5586   XZ=              0.0000   YZ=              0.0000

 Normal termination of Gaussian 16 at Fri Aug 26 16:10:58 2022.
