 Gaussian 16, Revision A.03,
 Gaussian 16:  ES64L-G16RevA.03 25-Dec-2016

 ------------------
 #p CCSD(T)/cc-pVTZ
 ------------------

 ------------
 H2O_H2O_1030
 ------------
 Symbolic Z-matrix:
 Charge =  0 Multiplicity = 1

                         Standard orientation:
 ---------------------------------------------------------------------
 Center     Atomic      Atomic             Coordinates (Angstroms)
 Number     Number       Type             X           Y           Z
 ---------------------------------------------------------------------
      1          8           0        0.018362   -1.345461    0.000000
      2          1           0       -0.781878   -1.915656    0.000000
      3          1           0        0.817263   -1.917530    0.000000
      4          8           0        0.018362    1.351480    0.000000
      5          1           0        0.592851    2.148644    0.000000
      6          1           0       -0.922027    1.636392    0.000000
 ---------------------------------------------------------------------

 SCF Done:  E(RHF) =  -152.097804837     A.U. after   11 cycles
 E2 =    -0.5282671568D+00 EUMP2 =    -0.15262607199360D+03
 CCSD(T)
 CCSD(T)= -0.15265337769D+03

 The electronic state is 1-A'.
 Alpha  occ. eigenvalues --  -20.53572 -20.53407  -1.31154  -1.30589  -0.68520
 Alpha  occ. eigenvalues --   -0.68099  -0.56250  -0.51610  -0.48407  -0.47452
 Alpha virt. eigenvalues --    0.14395   0.17141   0.20533   0.22238   0.51286
 Alpha virt. eigenvalues --    0.58565   0.58791   0.61419   0.70933   0.76554
 Alpha virt. eigenvalues --    0.76868   0.78562   0.80797   0.83529   0.86248

 Mulliken charges:
               1
     1  O   -0.467352
     2  H    0.229632
     3  H    0.237271
     4  O   -0.462153
     5  H    0.227184
     6  H    0.235418
 Sum of Mulliken charges =  -0.00000

 Dipole moment (field-independent basis, Debye):
    X=             -0.5869    Y=             -0.1151    Z=              0.0000  Tot=              0.5981
 Quadrupole moment (field-independent basis, Debye-Ang):
   XX=             -8.1460   YY=             -1.9261   ZZ=            -14.7171
   XY=             -0.3453   XZ=              0.0000   YZ=              0.0000

 Normal termination of Gaussian 16 at Sat Aug 27 01:32:07 2022.
