 Gaussian 16, Revision A.03,
 Gaussian 16:  ES64L-G16RevA.03 25-Dec-2016

 ------------------
 #p CCSD(T)/cc-pVTZ
 ------------------

 ------------
 H2O_H2O_3105
 ------------
 Symbolic Z-matrix:
 Charge =  0 Multiplicity = 1

                         Standard orientation:
 ---------------------------------------------------------------------
 Center     Atomic      Atomic             Coordinates (Angstroms)
 Number     Number       Type             X           Y           Z
 ---------------------------------------------------------------------
      1          8           0        0.018360   -2.449012    0.000000
      2          1           0       -0.781579   -3.019628    0.000000
      3          1           0        0.817563   -3.020659    0.000000
      4          8           0        0.018360    2.455050    0.000000
      5          1           0        0.592428    3.252516    0.000000
      6          1           0       -0.922179    2.739465    0.000000
 ---------------------------------------------------------------------

 SCF Done:  E(RHF) =  -152.106176431     A.U. after   10 cycles
 E2 =    -0.5260281658D+00 EUMP2 =    -0.15263220459644D+03
 CCSD(T)
 CCSD(T)= -0.15265944823D+03

 The electronic state is 1-A'.
 Alpha  occ. eigenvalues --  -20.54947 -20.54889  -1.32240  -1.32181  -0.69650
 Alpha  occ. eigenvalues --   -0.69589  -0.55632  -0.55564  -0.49343  -0.49284
 Alpha virt. eigenvalues --    0.14393   0.14909   0.20572   0.20765   0.54806
 Alpha virt. eigenvalues --    0.55091   0.57714   0.57815   0.67254   0.70121
 Alpha virt. eigenvalues --    0.79522   0.79601   0.80951   0.81094   0.82667

 Mulliken charges:
               1
     1  O   -0.501624
     2  H    0.249967
     3  H    0.251661
     4  O   -0.501501
     5  H    0.249639
     6  H    0.251859
 Sum of Mulliken charges =  -0.00000

 Dipole moment (field-independent basis, Debye):
    X=             -0.6270    Y=             -0.1066    Z=              0.0000  Tot=              0.6360
 Quadrupole moment (field-independent basis, Debye-Ang):
   XX=             -8.0262   YY=              7.2333   ZZ=            -14.7100
   XY=             -1.0121   XZ=              0.0000   YZ=              0.0000

 Normal termination of Gaussian 16 at Fri Aug 26 19:28:28 2022.
