 Gaussian 16, Revision A.03,
 Gaussian 16:  ES64L-G16RevA.03 25-Dec-2016

 ------------------
 #p CCSD(T)/cc-pVTZ
 ------------------

 ------------
 H2O_H2O_2209
 ------------
 Symbolic Z-matrix:
 Charge =  0 Multiplicity = 1

                         Standard orientation:
 ---------------------------------------------------------------------
 Center     Atomic      Atomic             Coordinates (Angstroms)
 Number     Number       Type             X           Y           Z
 ---------------------------------------------------------------------
      1          8           0        0.031744   -1.963231    0.000000
      2          1           0       -0.768617   -2.533255    0.000000
      3          1           0        0.830523   -2.535469    0.000000
      4          8           0        0.031744    1.982394    0.000000
      5          1           0        0.380531    2.901009    0.000000
      6          1           0       -0.950336    2.014414    0.000000
 ---------------------------------------------------------------------

 SCF Done:  E(RHF) =  -152.105598907     A.U. after   10 cycles
 E2 =    -0.5262951719D+00 EUMP2 =    -0.15263189407872D+03
 CCSD(T)
 CCSD(T)= -0.15265912857D+03

 The electronic state is 1-A'.
 Alpha  occ. eigenvalues --  -20.54804 -20.54504  -1.32086  -1.31782  -0.69503
 Alpha  occ. eigenvalues --   -0.69186  -0.55506  -0.55047  -0.49189  -0.48883
 Alpha virt. eigenvalues --    0.13972   0.15728   0.20468   0.21310   0.53772
 Alpha virt. eigenvalues --    0.55666   0.57814   0.58172   0.63292   0.74962
 Alpha virt. eigenvalues --    0.79361   0.80242   0.80287   0.81113   0.82717

 Mulliken charges:
               1
     1  O   -0.496048
     2  H    0.245585
     3  H    0.250792
     4  O   -0.495922
     5  H    0.244399
     6  H    0.251194
 Sum of Mulliken charges =  -0.00000

 Dipole moment (field-independent basis, Debye):
    X=             -1.0714    Y=             -0.3483    Z=              0.0000  Tot=              1.1266
 Quadrupole moment (field-independent basis, Debye-Ang):
   XX=             -8.4603   YY=              2.9309   ZZ=            -14.7104
   XY=             -1.3700   XZ=              0.0000   YZ=              0.0000

 Normal termination of Gaussian 16 at Sat Aug 27 09:13:34 2022.
