 Gaussian 16, Revision A.03,
 Gaussian 16:  ES64L-G16RevA.03 25-Dec-2016

 ------------------
 #p CCSD(T)/cc-pVTZ
 ------------------

 ------------
 H2O_H2O_4544
 ------------
 Symbolic Z-matrix:
 Charge =  0 Multiplicity = 1

                         Standard orientation:
 ---------------------------------------------------------------------
 Center     Atomic      Atomic             Coordinates (Angstroms)
 Number     Number       Type             X           Y           Z
 ---------------------------------------------------------------------
      1          8           0        0.054138   -3.168150    0.000000
      2          1           0       -0.746261   -3.738120    0.000000
      3          1           0        0.852879   -3.740442    0.000000
      4          8           0        0.054138    3.245502    0.000000
      5          1           0       -0.228305    4.186635    0.000000
      6          1           0       -0.744529    2.673107    0.000000
 ---------------------------------------------------------------------

 SCF Done:  E(RHF) =  -152.107427557     A.U. after   10 cycles
 E2 =    -0.5258771644D+00 EUMP2 =    -0.15263330472129D+03
 CCSD(T)
 CCSD(T)= -0.15266052442D+03

 The electronic state is 1-A'.
 Alpha  occ. eigenvalues --  -20.55601 -20.55167  -1.32900  -1.32465  -0.70307
 Alpha  occ. eigenvalues --   -0.69865  -0.56349  -0.55911  -0.50012  -0.49578
 Alpha virt. eigenvalues --    0.14069   0.14515   0.20151   0.20614   0.54254
 Alpha virt. eigenvalues --    0.54709   0.57175   0.57610   0.67825   0.68298
 Alpha virt. eigenvalues --    0.78868   0.79295   0.80298   0.80758   0.82228

 Mulliken charges:
               1
     1  O   -0.509007
     2  H    0.253372
     3  H    0.255635
     4  O   -0.508747
     5  H    0.252236
     6  H    0.256510
 Sum of Mulliken charges =  -0.00000

 Dipole moment (field-independent basis, Debye):
    X=             -1.8612    Y=             -1.3509    Z=              0.0000  Tot=              2.2998
 Quadrupole moment (field-independent basis, Debye-Ang):
   XX=             -9.6488   YY=              6.6724   ZZ=            -14.7121
   XY=             -5.5885   XZ=              0.0000   YZ=              0.0000

 Normal termination of Gaussian 16 at Sat Aug 27 07:55:34 2022.
