 Gaussian 16, Revision A.03,
 Gaussian 16:  ES64L-G16RevA.03 25-Dec-2016

 ------------------
 #p CCSD(T)/cc-pVTZ
 ------------------

 ------------
 H2O_H2O_1978
 ------------
 Symbolic Z-matrix:
 Charge =  0 Multiplicity = 1

                         Standard orientation:
 ---------------------------------------------------------------------
 Center     Atomic      Atomic             Coordinates (Angstroms)
 Number     Number       Type             X           Y           Z
 ---------------------------------------------------------------------
      1          8           0        0.011143   -1.852790    0.000000
      2          1           0       -0.788724   -2.423508    0.000000
      3          1           0        0.810418   -2.424336    0.000000
      4          8           0        0.011143    1.854973    0.000000
      5          1           0        0.684298    2.570771    0.000000
      6          1           0       -0.884278    2.259606    0.000000
 ---------------------------------------------------------------------

 SCF Done:  E(RHF) =  -152.104613093     A.U. after   10 cycles
 E2 =    -0.5264807899D+00 EUMP2 =    -0.15263109388310D+03
 CCSD(T)
 CCSD(T)= -0.15265834370D+03

 The electronic state is 1-A'.
 Alpha  occ. eigenvalues --  -20.54442 -20.54403  -1.31727  -1.31676  -0.69148
 Alpha  occ. eigenvalues --   -0.69097  -0.55322  -0.54645  -0.48849  -0.48744
 Alpha virt. eigenvalues --    0.14189   0.15899   0.20608   0.21298   0.53792
 Alpha virt. eigenvalues --    0.56816   0.57957   0.58303   0.61289   0.75579
 Alpha virt. eigenvalues --    0.79287   0.80053   0.80768   0.80785   0.82924

 Mulliken charges:
               1
     1  O   -0.489535
     2  H    0.243735
     3  H    0.245859
     4  O   -0.489515
     5  H    0.243476
     6  H    0.245980
 Sum of Mulliken charges =  -0.00000

 Dipole moment (field-independent basis, Debye):
    X=             -0.3743    Y=             -0.0401    Z=              0.0000  Tot=              0.3764
 Quadrupole moment (field-independent basis, Debye-Ang):
   XX=             -7.9241   YY=              2.5758   ZZ=            -14.7092
   XY=             -0.3779   XZ=              0.0000   YZ=              0.0000

 Normal termination of Gaussian 16 at Sat Aug 27 07:53:32 2022.
