 Gaussian 16, Revision A.03,
 Gaussian 16:  ES64L-G16RevA.03 25-Dec-2016

 ------------------
 #p CCSD(T)/cc-pVTZ
 ------------------

 ------------
 H2O_H2O_2885
 ------------
 Symbolic Z-matrix:
 Charge =  0 Multiplicity = 1

                         Standard orientation:
 ---------------------------------------------------------------------
 Center     Atomic      Atomic             Coordinates (Angstroms)
 Number     Number       Type             X           Y           Z
 ---------------------------------------------------------------------
      1          8           0        0.034783   -2.319857    0.000000
      2          1           0       -0.765520   -2.889962    0.000000
      3          1           0        0.833621   -2.892015    0.000000
      4          8           0        0.034783    2.343372    0.000000
      5          1           0        0.322650    3.282861    0.000000
      6          1           0       -0.947285    2.310994    0.000000
 ---------------------------------------------------------------------

 SCF Done:  E(RHF) =  -152.106320537     A.U. after   10 cycles
 E2 =    -0.5260437422D+00 EUMP2 =    -0.15263236427919D+03
 CCSD(T)
 CCSD(T)= -0.15265960215D+03

 The electronic state is 1-A'.
 Alpha  occ. eigenvalues --  -20.55052 -20.54798  -1.32345  -1.32087  -0.69756
 Alpha  occ. eigenvalues --   -0.69489  -0.55740  -0.55479  -0.49449  -0.49193
 Alpha virt. eigenvalues --    0.14158   0.15118   0.20453   0.20934   0.54582
 Alpha virt. eigenvalues --    0.55167   0.57629   0.57893   0.66506   0.71068
 Alpha virt. eigenvalues --    0.79415   0.79691   0.80789   0.81264   0.82644

 Mulliken charges:
               1
     1  O   -0.502375
     2  H    0.249365
     3  H    0.253067
     4  O   -0.501968
     5  H    0.248383
     6  H    0.253529
 Sum of Mulliken charges =  -0.00000

 Dipole moment (field-independent basis, Debye):
    X=             -1.1856    Y=             -0.4176    Z=              0.0000  Tot=              1.2570
 Quadrupole moment (field-independent basis, Debye-Ang):
   XX=             -8.5732   YY=              5.3868   ZZ=            -14.7105
   XY=             -1.9674   XZ=              0.0000   YZ=              0.0000

 Normal termination of Gaussian 16 at Fri Aug 26 17:08:22 2022.
