 Gaussian 16, Revision A.03,
 Gaussian 16:  ES64L-G16RevA.03 25-Dec-2016

 ------------------
 #p CCSD(T)/cc-pVTZ
 ------------------

 ------------
 H2O_H2O_2758
 ------------
 Symbolic Z-matrix:
 Charge =  0 Multiplicity = 1

                         Standard orientation:
 ---------------------------------------------------------------------
 Center     Atomic      Atomic             Coordinates (Angstroms)
 Number     Number       Type             X           Y           Z
 ---------------------------------------------------------------------
      1          8           0        0.028565   -2.257871    0.000000
      2          1           0       -0.771625   -2.828135    0.000000
      3          1           0        0.827516   -2.829870    0.000000
      4          8           0        0.028565    2.273113    0.000000
      5          1           0        0.436419    3.167071    0.000000
      6          1           0       -0.949347    2.369003    0.000000
 ---------------------------------------------------------------------

 SCF Done:  E(RHF) =  -152.106057641     A.U. after   10 cycles
 E2 =    -0.5260812798D+00 EUMP2 =    -0.15263213892051D+03
 CCSD(T)
 CCSD(T)= -0.15265938101D+03

 The electronic state is 1-A'.
 Alpha  occ. eigenvalues --  -20.54934 -20.54760  -1.32225  -1.32048  -0.69637
 Alpha  occ. eigenvalues --   -0.69454  -0.55614  -0.55418  -0.49328  -0.49152
 Alpha virt. eigenvalues --    0.14200   0.15193   0.20516   0.20945   0.54605
 Alpha virt. eigenvalues --    0.55296   0.57714   0.57929   0.65905   0.71748
 Alpha virt. eigenvalues --    0.79509   0.79757   0.80926   0.81242   0.82469

 Mulliken charges:
               1
     1  O   -0.500773
     2  H    0.248771
     3  H    0.252050
     4  O   -0.500428
     5  H    0.248023
     6  H    0.252357
 Sum of Mulliken charges =  -0.00000

 Dipole moment (field-independent basis, Debye):
    X=             -0.9724    Y=             -0.2713    Z=              0.0000  Tot=              1.0095
 Quadrupole moment (field-independent basis, Debye-Ang):
   XX=             -8.3297   YY=              5.3203   ZZ=            -14.7102
   XY=             -1.4779   XZ=              0.0000   YZ=              0.0000

 Normal termination of Gaussian 16 at Fri Aug 26 15:50:11 2022.
