 Gaussian 16, Revision A.03,
 Gaussian 16:  ES64L-G16RevA.03 25-Dec-2016

 ------------------
 #p CCSD(T)/cc-pVTZ
 ------------------

 -----------
 H2O_H2O_457
 -----------
 Symbolic Z-matrix:
 Charge =  0 Multiplicity = 1

                         Standard orientation:
 ---------------------------------------------------------------------
 Center     Atomic      Atomic             Coordinates (Angstroms)
 Number     Number       Type             X           Y           Z
 ---------------------------------------------------------------------
      1          8           0        0.025273   -1.036584    0.000000
      2          1           0       -0.775488   -1.606046    0.000000
      3          1           0        0.823651   -1.609382    0.000000
      4          8           0        0.025273    1.048258    0.000000
      5          1           0        0.491586    1.913161    0.000000
      6          1           0       -0.944113    1.208872    0.000000
 ---------------------------------------------------------------------

 SCF Done:  E(RHF) =  -152.064950144     A.U. after   10 cycles
 E2 =    -0.5335774264D+00 EUMP2 =    -0.15259852757059D+03
 CCSD(T)
 CCSD(T)= -0.15262549504D+03

 The electronic state is 1-A'.
 Alpha  occ. eigenvalues --  -20.52467 -20.52094  -1.31857  -1.28925  -0.68763
 Alpha  occ. eigenvalues --   -0.67015  -0.59534  -0.49095  -0.45743  -0.45472
 Alpha virt. eigenvalues --    0.14515   0.18075   0.20407   0.23008   0.51697
 Alpha virt. eigenvalues --    0.58520   0.58775   0.64645   0.70233   0.77215
 Alpha virt. eigenvalues --    0.78289   0.82211   0.84033   0.86387   0.87596

 Mulliken charges:
               1
     1  O   -0.444969
     2  H    0.213954
     3  H    0.228793
     4  O   -0.422534
     5  H    0.192035
     6  H    0.232720
 Sum of Mulliken charges =  -0.00000

 Dipole moment (field-independent basis, Debye):
    X=             -0.7459    Y=             -0.2394    Z=              0.0000  Tot=              0.7833
 Quadrupole moment (field-independent basis, Debye-Ang):
   XX=             -8.4712   YY=             -5.2021   ZZ=            -14.7399
   XY=             -0.3096   XZ=              0.0000   YZ=              0.0000

 Normal termination of Gaussian 16 at Fri Aug 26 16:38:37 2022.
