 Gaussian 16, Revision A.03,
 Gaussian 16:  ES64L-G16RevA.03 25-Dec-2016

 ------------------
 #p CCSD(T)/cc-pVTZ
 ------------------

 ------------
 H2O_H2O_4903
 ------------
 Symbolic Z-matrix:
 Charge =  0 Multiplicity = 1

                         Standard orientation:
 ---------------------------------------------------------------------
 Center     Atomic      Atomic             Coordinates (Angstroms)
 Number     Number       Type             X           Y           Z
 ---------------------------------------------------------------------
      1          8           0        0.011143   -3.408408    0.000000
      2          1           0       -0.788589   -3.979315    0.000000
      3          1           0        0.810553   -3.979765    0.000000
      4          8           0        0.011143    3.410597    0.000000
      5          1           0        0.684129    4.126555    0.000000
      6          1           0       -0.884374    3.815019    0.000000
 ---------------------------------------------------------------------

 SCF Done:  E(RHF) =  -152.106964469     A.U. after   10 cycles
 E2 =    -0.5259128136D+00 EUMP2 =    -0.15263287728250D+03
 CCSD(T)
 CCSD(T)= -0.15266010717D+03

 The electronic state is 1-A'.
 Alpha  occ. eigenvalues --  -20.55263 -20.55252  -1.32560  -1.32549  -0.69966
 Alpha  occ. eigenvalues --   -0.69955  -0.55987  -0.55976  -0.49668  -0.49657
 Alpha virt. eigenvalues --    0.14376   0.14389   0.20429   0.20441   0.54602
 Alpha virt. eigenvalues --    0.54613   0.57480   0.57491   0.68235   0.68250
 Alpha virt. eigenvalues --    0.79211   0.79222   0.80652   0.80664   0.82578

 Mulliken charges:
               1
     1  O   -0.506246
     2  H    0.252919
     3  H    0.253326
     4  O   -0.506236
     5  H    0.252827
     6  H    0.253410
 Sum of Mulliken charges =  -0.00000

 Dipole moment (field-independent basis, Debye):
    X=             -0.3832    Y=             -0.0381    Z=              0.0000  Tot=              0.3851
 Quadrupole moment (field-independent basis, Debye-Ang):
   XX=             -7.8789   YY=             15.0535   ZZ=            -14.7109
   XY=             -0.9630   XZ=              0.0000   YZ=              0.0000

 Normal termination of Gaussian 16 at Sat Aug 27 09:59:35 2022.
