 Gaussian 16, Revision A.03,
 Gaussian 16:  ES64L-G16RevA.03 25-Dec-2016

 ------------------
 #p CCSD(T)/cc-pVTZ
 ------------------

 ------------
 H2O_H2O_1336
 ------------
 Symbolic Z-matrix:
 Charge =  0 Multiplicity = 1

                         Standard orientation:
 ---------------------------------------------------------------------
 Center     Atomic      Atomic             Coordinates (Angstroms)
 Number     Number       Type             X           Y           Z
 ---------------------------------------------------------------------
      1          8           0        0.037688   -1.492973    0.000000
      2          1           0       -0.763110   -2.062384    0.000000
      3          1           0        0.836029   -2.065824    0.000000
      4          8           0        0.037688    1.521158    0.000000
      5          1           0        0.264321    2.477266    0.000000
      6          1           0       -0.940244    1.425467    0.000000
 ---------------------------------------------------------------------

 SCF Done:  E(RHF) =  -152.103313254     A.U. after   10 cycles
 E2 =    -0.5273574093D+00 EUMP2 =    -0.15263067066284D+03
 CCSD(T)
 CCSD(T)= -0.15265791242D+03

 The electronic state is 1-A'.
 Alpha  occ. eigenvalues --  -20.54503 -20.53779  -1.31826  -1.31031  -0.69252
 Alpha  occ. eigenvalues --   -0.68451  -0.55755  -0.53561  -0.48965  -0.48080
 Alpha virt. eigenvalues --    0.14027   0.16733   0.20337   0.22360   0.53186
 Alpha virt. eigenvalues --    0.57613   0.58008   0.58815   0.66325   0.76420
 Alpha virt. eigenvalues --    0.77433   0.77858   0.79922   0.82502   0.85617

 Mulliken charges:
               1
     1  O   -0.479537
     2  H    0.234801
     3  H    0.246282
     4  O   -0.476567
     5  H    0.229816
     6  H    0.245204
 Sum of Mulliken charges =   0.00000

 Dipole moment (field-independent basis, Debye):
    X=             -1.2298    Y=             -0.5356    Z=              0.0000  Tot=              1.3413
 Quadrupole moment (field-independent basis, Debye-Ang):
   XX=             -8.7610   YY=             -0.9472   ZZ=            -14.7140
   XY=             -1.1529   XZ=              0.0000   YZ=              0.0000

 Normal termination of Gaussian 16 at Sat Aug 27 04:03:20 2022.
