 Gaussian 16, Revision A.03,
 Gaussian 16:  ES64L-G16RevA.03 25-Dec-2016

 ------------------
 #p CCSD(T)/cc-pVTZ
 ------------------

 ------------
 H2O_H2O_1498
 ------------
 Symbolic Z-matrix:
 Charge =  0 Multiplicity = 1

                         Standard orientation:
 ---------------------------------------------------------------------
 Center     Atomic      Atomic             Coordinates (Angstroms)
 Number     Number       Type             X           Y           Z
 ---------------------------------------------------------------------
      1          8           0        0.057156   -1.530269    0.000000
      2          1           0       -0.744181   -2.098921    0.000000
      3          1           0        0.854954   -2.103876    0.000000
      4          8           0        0.057156    1.636671    0.000000
      5          1           0       -0.457869    2.473484    0.000000
      6          1           0       -0.567401    0.878097    0.000000
 ---------------------------------------------------------------------

 SCF Done:  E(RHF) =  -152.109525862     A.U. after   10 cycles
 E2 =    -0.5270966141D+00 EUMP2 =    -0.15263662247652D+03
 CCSD(T)
 CCSD(T)= -0.15266371242D+03

 The electronic state is 1-A'.
 Alpha  occ. eigenvalues --  -20.56505 -20.53410  -1.33798  -1.30732  -0.71194
 Alpha  occ. eigenvalues --   -0.68203  -0.57219  -0.54228  -0.50917  -0.47867
 Alpha virt. eigenvalues --    0.12971   0.17117   0.19596   0.25301   0.52365
 Alpha virt. eigenvalues --    0.55606   0.56680   0.58407   0.68179   0.75164
 Alpha virt. eigenvalues --    0.75932   0.76848   0.81065   0.81601   0.84102

 Mulliken charges:
               1
     1  O   -0.494328
     2  H    0.246160
     3  H    0.260070
     4  O   -0.515742
     5  H    0.238837
     6  H    0.265004
 Sum of Mulliken charges =  -0.00000

 Dipole moment (field-independent basis, Debye):
    X=             -1.8839    Y=             -2.0760    Z=              0.0000  Tot=              2.8033
 Quadrupole moment (field-independent basis, Debye-Ang):
   XX=             -9.8529   YY=             -3.4726   ZZ=            -14.7255
   XY=             -3.2944   XZ=              0.0000   YZ=              0.0000

 Normal termination of Gaussian 16 at Sat Aug 27 05:07:24 2022.
