 Gaussian 16, Revision A.03,
 Gaussian 16:  ES64L-G16RevA.03 25-Dec-2016

 ------------------
 #p CCSD(T)/cc-pVTZ
 ------------------

 ----------
 H2O_H2O_71
 ----------
 Symbolic Z-matrix:
 Charge =  0 Multiplicity = 1

                         Standard orientation:
 ---------------------------------------------------------------------
 Center     Atomic      Atomic             Coordinates (Angstroms)
 Number     Number       Type             X           Y           Z
 ---------------------------------------------------------------------
      1          8           0        0.056283   -0.780604    0.000000
      2          1           0       -0.746607   -1.347060    0.000000
      3          1           0        0.852507   -1.356393    0.000000
      4          8           0        0.056283    0.871891    0.000000
      5          1           0       -0.342652    1.769864    0.000000
      6          1           0       -0.663778    0.203296    0.000000
 ---------------------------------------------------------------------

 SCF Done:  E(RHF) =  -151.896803475     A.U. after   12 cycles
 E2 =    -0.5522916773D+00 EUMP2 =    -0.15244909515222D+03
 CCSD(T)
 CCSD(T)= -0.15247332290D+03

 The electronic state is 1-A'.
 Alpha  occ. eigenvalues --  -20.56099 -20.48004  -1.42883  -1.25521  -0.79698
 Alpha  occ. eigenvalues --   -0.73270  -0.56162  -0.51239  -0.42519  -0.40701
 Alpha virt. eigenvalues --    0.12926   0.18124   0.20536   0.25908   0.49524
 Alpha virt. eigenvalues --    0.53624   0.62318   0.69424   0.73369   0.75919
 Alpha virt. eigenvalues --    0.77324   0.79888   0.84455   0.84894   0.89020

 Mulliken charges:
               1
     1  O   -0.270736
     2  H    0.150282
     3  H    0.204851
     4  O   -0.464605
     5  H    0.115502
     6  H    0.264706
 Sum of Mulliken charges =  -0.00000

 Dipole moment (field-independent basis, Debye):
    X=             -1.4319    Y=             -2.3474    Z=              0.0000  Tot=              2.7496
 Quadrupole moment (field-independent basis, Debye-Ang):
   XX=             -9.8447   YY=             -9.1936   ZZ=            -14.5293
   XY=             -1.4361   XZ=              0.0000   YZ=              0.0000

 Normal termination of Gaussian 16 at Fri Aug 26 12:28:33 2022.
