 Gaussian 16, Revision A.03,
 Gaussian 16:  ES64L-G16RevA.03 25-Dec-2016

 ------------------
 #p CCSD(T)/cc-pVTZ
 ------------------

 ------------
 H2O_H2O_4198
 ------------
 Symbolic Z-matrix:
 Charge =  0 Multiplicity = 1

                         Standard orientation:
 ---------------------------------------------------------------------
 Center     Atomic      Atomic             Coordinates (Angstroms)
 Number     Number       Type             X           Y           Z
 ---------------------------------------------------------------------
      1          8           0        0.057078   -2.966140    0.000000
      2          1           0       -0.743420   -3.535972    0.000000
      3          1           0        0.855720   -3.538570    0.000000
      4          8           0        0.057078    3.072710    0.000000
      5          1           0       -0.459180    3.908763    0.000000
      6          1           0       -0.566361    2.313216    0.000000
 ---------------------------------------------------------------------

 SCF Done:  E(RHF) =  -152.107689607     A.U. after   10 cycles
 E2 =    -0.5258605961D+00 EUMP2 =    -0.15263355020356D+03
 CCSD(T)
 CCSD(T)= -0.15266076386D+03

 The electronic state is 1-A'.
 Alpha  occ. eigenvalues --  -20.55761 -20.55085  -1.33061  -1.32385  -0.70467
 Alpha  occ. eigenvalues --   -0.69782  -0.56522  -0.55839  -0.50175  -0.49501
 Alpha virt. eigenvalues --    0.13890   0.14643   0.20024   0.20762   0.54089
 Alpha virt. eigenvalues --    0.54784   0.57034   0.57703   0.67552   0.68436
 Alpha virt. eigenvalues --    0.78706   0.79368   0.80129   0.80767   0.82183

 Mulliken charges:
               1
     1  O   -0.510566
     2  H    0.253938
     3  H    0.256637
     4  O   -0.510113
     5  H    0.252125
     6  H    0.257979
 Sum of Mulliken charges =  -0.00000

 Dipole moment (field-independent basis, Debye):
    X=             -1.9607    Y=             -1.8663    Z=              0.0000  Tot=              2.7069
 Quadrupole moment (field-independent basis, Debye-Ang):
   XX=             -9.8547   YY=              2.7544   ZZ=            -14.7128
   XY=             -6.0510   XZ=              0.0000   YZ=              0.0000

 Normal termination of Gaussian 16 at Sat Aug 27 05:56:32 2022.
