 Gaussian 16, Revision A.03,
 Gaussian 16:  ES64L-G16RevA.03 25-Dec-2016

 ------------------
 #p CCSD(T)/cc-pVTZ
 ------------------

 ------------
 H2O_H2O_2956
 ------------
 Symbolic Z-matrix:
 Charge =  0 Multiplicity = 1

                         Standard orientation:
 ---------------------------------------------------------------------
 Center     Atomic      Atomic             Coordinates (Angstroms)
 Number     Number       Type             X           Y           Z
 ---------------------------------------------------------------------
      1          8           0        0.021860   -2.367813    0.000000
      2          1           0       -0.778164   -2.938310    0.000000
      3          1           0        0.820977   -2.939579    0.000000
      4          8           0        0.021860    2.376473    0.000000
      5          1           0        0.542666    3.209700    0.000000
      6          1           0       -0.935234    2.598906    0.000000
 ---------------------------------------------------------------------

 SCF Done:  E(RHF) =  -152.106099242     A.U. after   10 cycles
 E2 =    -0.5260487641D+00 EUMP2 =    -0.15263214800590D+03
 CCSD(T)
 CCSD(T)= -0.15265939207D+03

 The electronic state is 1-A'.
 Alpha  occ. eigenvalues --  -20.54927 -20.54838  -1.32220  -1.32129  -0.69631
 Alpha  occ. eigenvalues --   -0.69537  -0.55610  -0.55505  -0.49322  -0.49232
 Alpha virt. eigenvalues --    0.14333   0.15017   0.20562   0.20827   0.54762
 Alpha virt. eigenvalues --    0.55183   0.57723   0.57861   0.66738   0.70732
 Alpha virt. eigenvalues --    0.79533   0.79661   0.80964   0.81157   0.82570

 Mulliken charges:
               1
     1  O   -0.501148
     2  H    0.249474
     3  H    0.251685
     4  O   -0.500954
     5  H    0.249027
     6  H    0.251916
 Sum of Mulliken charges =   0.00000

 Dipole moment (field-independent basis, Debye):
    X=             -0.7456    Y=             -0.1534    Z=              0.0000  Tot=              0.7612
 Quadrupole moment (field-independent basis, Debye-Ang):
   XX=             -8.1161   YY=              6.4701   ZZ=            -14.7100
   XY=             -1.1642   XZ=              0.0000   YZ=              0.0000

 8832\MP4DQ=-152.6412633\MP4SDQ=-152.6443312\CCSD=-152.6437397\CCSD(T)=
 Normal termination of Gaussian 16 at Fri Aug 26 17:47:44 2022.
