 Gaussian 16, Revision A.03,
 Gaussian 16:  ES64L-G16RevA.03 25-Dec-2016

 ------------------
 #p CCSD(T)/cc-pVTZ
 ------------------

 ------------
 H2O_H2O_4622
 ------------
 Symbolic Z-matrix:
 Charge =  0 Multiplicity = 1

                         Standard orientation:
 ---------------------------------------------------------------------
 Center     Atomic      Atomic             Coordinates (Angstroms)
 Number     Number       Type             X           Y           Z
 ---------------------------------------------------------------------
      1          8           0        0.056699   -3.196202    0.000000
      2          1           0       -0.743729   -3.766132    0.000000
      3          1           0        0.855411   -3.768534    0.000000
      4          8           0        0.056699    3.295348    0.000000
      5          1           0       -0.403879    4.163320    0.000000
      6          1           0       -0.614990    2.578173    0.000000
 ---------------------------------------------------------------------

 SCF Done:  E(RHF) =  -152.107587016     A.U. after   10 cycles
 E2 =    -0.5258617479D+00 EUMP2 =    -0.15263344876387D+03
 CCSD(T)
 CCSD(T)= -0.15266066517D+03

 The electronic state is 1-A'.
 Alpha  occ. eigenvalues --  -20.55708 -20.55169  -1.33008  -1.32468  -0.70414
 Alpha  occ. eigenvalues --   -0.69867  -0.56463  -0.55919  -0.50121  -0.49582
 Alpha virt. eigenvalues --    0.13975   0.14527   0.20066   0.20642   0.54145
 Alpha virt. eigenvalues --    0.54704   0.57080   0.57619   0.67697   0.68283
 Alpha virt. eigenvalues --    0.78759   0.79289   0.80187   0.80752   0.82121

 Mulliken charges:
               1
     1  O   -0.509950
     2  H    0.253874
     3  H    0.256077
     4  O   -0.509638
     5  H    0.252516
     6  H    0.257121
 Sum of Mulliken charges =  -0.00000

 Dipole moment (field-independent basis, Debye):
    X=             -1.9497    Y=             -1.7311    Z=              0.0000  Tot=              2.6073
 Quadrupole moment (field-independent basis, Debye-Ang):
   XX=             -9.8283   YY=              4.5471   ZZ=            -14.7125
   XY=             -6.3175   XZ=              0.0000   YZ=              0.0000

 Normal termination of Gaussian 16 at Sat Aug 27 08:23:20 2022.
