 Gaussian 16, Revision A.03,
 Gaussian 16:  ES64L-G16RevA.03 25-Dec-2016

 ------------------
 #p CCSD(T)/cc-pVTZ
 ------------------

 ------------
 H2O_H2O_1379
 ------------
 Symbolic Z-matrix:
 Charge =  0 Multiplicity = 1

                         Standard orientation:
 ---------------------------------------------------------------------
 Center     Atomic      Atomic             Coordinates (Angstroms)
 Number     Number       Type             X           Y           Z
 ---------------------------------------------------------------------
      1          8           0        0.014784   -1.532773    0.000000
      2          1           0       -0.785261   -2.103242    0.000000
      3          1           0        0.813881   -2.104568    0.000000
      4          8           0        0.014784    1.536641    0.000000
      5          1           0        0.639919    2.294738    0.000000
      6          1           0       -0.905077    1.882131    0.000000
 ---------------------------------------------------------------------

 SCF Done:  E(RHF) =  -152.102013181     A.U. after   11 cycles
 E2 =    -0.5272622916D+00 EUMP2 =    -0.15262927547304D+03
 CCSD(T)
 CCSD(T)= -0.15265656158D+03

 The electronic state is 1-A'.
 Alpha  occ. eigenvalues --  -20.53982 -20.53891  -1.31343  -1.31127  -0.68758
 Alpha  occ. eigenvalues --   -0.68578  -0.55569  -0.53233  -0.48529  -0.48104
 Alpha virt. eigenvalues --    0.14328   0.16631   0.20549   0.21836   0.52026
 Alpha virt. eigenvalues --    0.58282   0.58589   0.59345   0.65231   0.76459
 Alpha virt. eigenvalues --    0.77918   0.78221   0.79265   0.82502   0.86033

 Mulliken charges:
               1
     1  O   -0.474939
     2  H    0.235161
     3  H    0.239883
     4  O   -0.473828
     5  H    0.234661
     6  H    0.239061
 Sum of Mulliken charges =  -0.00000

 Dipole moment (field-independent basis, Debye):
    X=             -0.4852    Y=             -0.0729    Z=              0.0000  Tot=              0.4907
 Quadrupole moment (field-independent basis, Debye-Ang):
   XX=             -8.0255   YY=             -0.1938   ZZ=            -14.7102
   XY=             -0.3549   XZ=              0.0000   YZ=              0.0000

 Normal termination of Gaussian 16 at Sat Aug 27 04:22:16 2022.
