 Gaussian 16, Revision A.03,
 Gaussian 16:  ES64L-G16RevA.03 25-Dec-2016

 ------------------
 #p CCSD(T)/cc-pVTZ
 ------------------

 -----------
 H2O_H2O_815
 -----------
 Symbolic Z-matrix:
 Charge =  0 Multiplicity = 1

                         Standard orientation:
 ---------------------------------------------------------------------
 Center     Atomic      Atomic             Coordinates (Angstroms)
 Number     Number       Type             X           Y           Z
 ---------------------------------------------------------------------
      1          8           0        0.047572   -1.201665    0.000000
      2          1           0       -0.753897   -1.770130    0.000000
      3          1           0        0.845236   -1.775458    0.000000
      4          8           0        0.047572    1.252114    0.000000
      5          1           0        0.020184    2.234334    0.000000
      6          1           0       -0.872678    0.907664    0.000000
 ---------------------------------------------------------------------

 SCF Done:  E(RHF) =  -152.096214972     A.U. after   11 cycles
 E2 =    -0.5296149699D+00 EUMP2 =    -0.15262582994225D+03
 CCSD(T)
 CCSD(T)= -0.15265299537D+03

 The electronic state is 1-A'.
 Alpha  occ. eigenvalues --  -20.54627 -20.52817  -1.32390  -1.30029  -0.69765
 Alpha  occ. eigenvalues --   -0.67923  -0.56424  -0.51821  -0.49544  -0.46978
 Alpha virt. eigenvalues --    0.13857   0.17563   0.20067   0.23653   0.53114
 Alpha virt. eigenvalues --    0.57598   0.58508   0.60356   0.70959   0.75256
 Alpha virt. eigenvalues --    0.77910   0.80445   0.83172   0.85216   0.85760

 Mulliken charges:
               1
     1  O   -0.468007
     2  H    0.227457
     3  H    0.246075
     4  O   -0.463073
     5  H    0.210482
     6  H    0.247066
 Sum of Mulliken charges =  -0.00000

 Dipole moment (field-independent basis, Debye):
    X=             -1.4782    Y=             -0.9986    Z=              0.0000  Tot=              1.7839
 Quadrupole moment (field-independent basis, Debye-Ang):
   XX=             -9.3153   YY=             -3.7183   ZZ=            -14.7245
   XY=             -1.3584   XZ=              0.0000   YZ=              0.0000

 Normal termination of Gaussian 16 at Fri Aug 26 20:15:57 2022.
