 Gaussian 16, Revision A.03,
 Gaussian 16:  ES64L-G16RevA.03 25-Dec-2016

 ------------------
 #p CCSD(T)/cc-pVTZ
 ------------------

 ------------
 H2O_H2O_2115
 ------------
 Symbolic Z-matrix:
 Charge =  0 Multiplicity = 1

                         Standard orientation:
 ---------------------------------------------------------------------
 Center     Atomic      Atomic             Coordinates (Angstroms)
 Number     Number       Type             X           Y           Z
 ---------------------------------------------------------------------
      1          8           0        0.047542   -1.892993    0.000000
      2          1           0       -0.753244   -2.462420    0.000000
      3          1           0        0.845894   -2.465828    0.000000
      4          8           0        0.047542    1.943556    0.000000
      5          1           0        0.018974    2.925743    0.000000
      6          1           0       -0.872294    1.598000    0.000000
 ---------------------------------------------------------------------

 SCF Done:  E(RHF) =  -152.106581090     A.U. after   10 cycles
 E2 =    -0.5263144679D+00 EUMP2 =    -0.15263289555743D+03
 CCSD(T)
 CCSD(T)= -0.15266009966D+03

 The electronic state is 1-A'.
 Alpha  occ. eigenvalues --  -20.55248 -20.54371  -1.32526  -1.31648  -0.69942
 Alpha  occ. eigenvalues --   -0.69030  -0.55928  -0.55020  -0.49634  -0.48761
 Alpha virt. eigenvalues --    0.13566   0.15973   0.20197   0.21888   0.53570
 Alpha virt. eigenvalues --    0.54877   0.57499   0.58397   0.64423   0.75655
 Alpha virt. eigenvalues --    0.78941   0.79282   0.80374   0.81105   0.84258

 Mulliken charges:
               1
     1  O   -0.498632
     2  H    0.245915
     3  H    0.254133
     4  O   -0.500724
     5  H    0.243393
     6  H    0.255915
 Sum of Mulliken charges =  -0.00000

 Dipole moment (field-independent basis, Debye):
    X=             -1.6003    Y=             -0.9268    Z=              0.0000  Tot=              1.8493
 Quadrupole moment (field-independent basis, Debye-Ang):
   XX=             -9.2356   YY=              1.1870   ZZ=            -14.7130
   XY=             -2.4327   XZ=              0.0000   YZ=              0.0000

 Normal termination of Gaussian 16 at Sat Aug 27 08:40:30 2022.
