 Gaussian 16, Revision A.03,
 Gaussian 16:  ES64L-G16RevA.03 25-Dec-2016

 ------------------
 #p CCSD(T)/cc-pVTZ
 ------------------

 -----------
 H2O_H2O_986
 -----------
 Symbolic Z-matrix:
 Charge =  0 Multiplicity = 1

                         Standard orientation:
 ---------------------------------------------------------------------
 Center     Atomic      Atomic             Coordinates (Angstroms)
 Number     Number       Type             X           Y           Z
 ---------------------------------------------------------------------
      1          8           0        0.037692   -1.306842    0.000000
      2          1           0       -0.763278   -1.876010    0.000000
      3          1           0        0.835859   -1.879935    0.000000
      4          8           0        0.037692    1.335004    0.000000
      5          1           0        0.264615    2.291044    0.000000
      6          1           0       -0.940269    1.239609    0.000000
 ---------------------------------------------------------------------

 SCF Done:  E(RHF) =  -152.099004766     A.U. after   11 cycles
 E2 =    -0.5284977976D+00 EUMP2 =    -0.15262750256365D+03
 CCSD(T)
 CCSD(T)= -0.15265475217D+03

 The electronic state is 1-A'.
 Alpha  occ. eigenvalues --  -20.54142 -20.53288  -1.31666  -1.30512  -0.69058
 Alpha  occ. eigenvalues --   -0.68042  -0.56313  -0.52050  -0.48867  -0.47449
 Alpha virt. eigenvalues --    0.14132   0.17179   0.20324   0.22802   0.52965
 Alpha virt. eigenvalues --    0.58143   0.58365   0.60209   0.69870   0.76325
 Alpha virt. eigenvalues --    0.76885   0.77660   0.83097   0.83351   0.85785

 Mulliken charges:
               1
     1  O   -0.472155
     2  H    0.229190
     3  H    0.243873
     4  O   -0.461593
     5  H    0.219102
     6  H    0.241583
 Sum of Mulliken charges =   0.00000

 Dipole moment (field-independent basis, Debye):
    X=             -1.1956    Y=             -0.5448    Z=              0.0000  Tot=              1.3139
 Quadrupole moment (field-independent basis, Debye-Ang):
   XX=             -8.8021   YY=             -2.4917   ZZ=            -14.7203
   XY=             -0.9288   XZ=              0.0000   YZ=              0.0000

 Normal termination of Gaussian 16 at Sat Aug 27 01:11:20 2022.
