 Gaussian 16, Revision A.03,
 Gaussian 16:  ES64L-G16RevA.03 25-Dec-2016

 ------------------
 #p CCSD(T)/cc-pVTZ
 ------------------

 ------------
 H2O_H2O_3877
 ------------
 Symbolic Z-matrix:
 Charge =  0 Multiplicity = 1

                         Standard orientation:
 ---------------------------------------------------------------------
 Center     Atomic      Atomic             Coordinates (Angstroms)
 Number     Number       Type             X           Y           Z
 ---------------------------------------------------------------------
      1          8           0        0.007455   -2.863936    0.000000
      2          1           0       -0.792244   -3.434889    0.000000
      3          1           0        0.806898   -3.435247    0.000000
      4          8           0        0.007455    2.864910    0.000000
      5          1           0        0.725788    3.535360    0.000000
      6          1           0       -0.859721    3.326985    0.000000
 ---------------------------------------------------------------------

 SCF Done:  E(RHF) =  -152.106597005     A.U. after   10 cycles
 E2 =    -0.5259588626D+00 EUMP2 =    -0.15263255586761D+03
 CCSD(T)
 CCSD(T)= -0.15265979273D+03

 The electronic state is 1-A'.
 Alpha  occ. eigenvalues --  -20.55095 -20.55088  -1.32390  -1.32383  -0.69798
 Alpha  occ. eigenvalues --   -0.69791  -0.55799  -0.55792  -0.49495  -0.49488
 Alpha virt. eigenvalues --    0.14468   0.14568   0.20532   0.20571   0.54761
 Alpha virt. eigenvalues --    0.54794   0.57615   0.57635   0.68290   0.68627
 Alpha virt. eigenvalues --    0.79383   0.79390   0.80826   0.80843   0.82755

 Mulliken charges:
               1
     1  O   -0.504086
     2  H    0.251820
     3  H    0.252266
     4  O   -0.504077
     5  H    0.251736
     6  H    0.252341
 Sum of Mulliken charges =  -0.00000

 Dipole moment (field-independent basis, Debye):
    X=             -0.2557    Y=             -0.0171    Z=              0.0000  Tot=              0.2562
 Quadrupole moment (field-independent basis, Debye-Ang):
   XX=             -7.8417   YY=             10.8112   ZZ=            -14.7103
   XY=             -0.5030   XZ=              0.0000   YZ=              0.0000

 Normal termination of Gaussian 16 at Sat Aug 27 03:58:44 2022.
