 Gaussian 16, Revision A.03,
 Gaussian 16:  ES64L-G16RevA.03 25-Dec-2016

 ------------------
 #p CCSD(T)/cc-pVTZ
 ------------------

 ------------
 H2O_H2O_2660
 ------------
 Symbolic Z-matrix:
 Charge =  0 Multiplicity = 1

                         Standard orientation:
 ---------------------------------------------------------------------
 Center     Atomic      Atomic             Coordinates (Angstroms)
 Number     Number       Type             X           Y           Z
 ---------------------------------------------------------------------
      1          8           0        0.034784   -2.200196    0.000000
      2          1           0       -0.765559   -2.770246    0.000000
      3          1           0        0.833582   -2.772410    0.000000
      4          8           0        0.034784    2.223707    0.000000
      5          1           0        0.322716    3.163176    0.000000
      6          1           0       -0.947286    2.191397    0.000000
 ---------------------------------------------------------------------

 SCF Done:  E(RHF) =  -152.106157389     A.U. after   10 cycles
 E2 =    -0.5260962609D+00 EUMP2 =    -0.15263225364969D+03
 CCSD(T)
 CCSD(T)= -0.15265949103D+03

 The electronic state is 1-A'.
 Alpha  occ. eigenvalues --  -20.54996 -20.54710  -1.32287  -1.31997  -0.69699
 Alpha  occ. eigenvalues --   -0.69398  -0.55677  -0.55372  -0.49390  -0.49102
 Alpha virt. eigenvalues --    0.14064   0.15309   0.20449   0.21052   0.54416
 Alpha virt. eigenvalues --    0.55289   0.57672   0.57967   0.65558   0.72354
 Alpha virt. eigenvalues --    0.79440   0.79812   0.80785   0.81324   0.82562

 Mulliken charges:
               1
     1  O   -0.501133
     2  H    0.248495
     3  H    0.252756
     4  O   -0.500716
     5  H    0.247393
     6  H    0.253204
 Sum of Mulliken charges =   0.00000

 Dipole moment (field-independent basis, Debye):
    X=             -1.1827    Y=             -0.4200    Z=              0.0000  Tot=              1.2551
 Quadrupole moment (field-independent basis, Debye-Ang):
   XX=             -8.5761   YY=              4.5139   ZZ=            -14.7105
   XY=             -1.8274   XZ=              0.0000   YZ=              0.0000

 Normal termination of Gaussian 16 at Fri Aug 26 14:49:08 2022.
