 Gaussian 16, Revision A.03,
 Gaussian 16:  ES64L-G16RevA.03 25-Dec-2016

 ------------------
 #p CCSD(T)/cc-pVTZ
 ------------------

 ------------
 H2O_H2O_3659
 ------------
 Symbolic Z-matrix:
 Charge =  0 Multiplicity = 1

                         Standard orientation:
 ---------------------------------------------------------------------
 Center     Atomic      Atomic             Coordinates (Angstroms)
 Number     Number       Type             X           Y           Z
 ---------------------------------------------------------------------
      1          8           0        0.031740   -2.734381    0.000000
      2          1           0       -0.768399   -3.304716    0.000000
      3          1           0        0.830742   -3.306308    0.000000
      4          8           0        0.031740    2.753568    0.000000
      5          1           0        0.380170    3.672319    0.000000
      6          1           0       -0.950352    2.785207    0.000000
 ---------------------------------------------------------------------

 SCF Done:  E(RHF) =  -152.106691726     A.U. after   10 cycles
 E2 =    -0.5259582219D+00 EUMP2 =    -0.15263264994743D+03
 CCSD(T)
 CCSD(T)= -0.15265988434D+03

 The electronic state is 1-A'.
 Alpha  occ. eigenvalues --  -20.55176 -20.55029  -1.32472  -1.32322  -0.69880
 Alpha  occ. eigenvalues --   -0.69727  -0.55885  -0.55737  -0.49578  -0.49430
 Alpha virt. eigenvalues --    0.14370   0.14654   0.20460   0.20652   0.54676
 Alpha virt. eigenvalues --    0.54862   0.57543   0.57698   0.68073   0.68808
 Alpha virt. eigenvalues --    0.79300   0.79446   0.80743   0.80910   0.82690

 Mulliken charges:
               1
     1  O   -0.504667
     2  H    0.251260
     3  H    0.253408
     4  O   -0.504475
     5  H    0.250688
     6  H    0.253785
 Sum of Mulliken charges =  -0.00000

 Dipole moment (field-independent basis, Debye):
    X=             -1.0876    Y=             -0.3368    Z=              0.0000  Tot=              1.1385
 Quadrupole moment (field-independent basis, Debye-Ang):
   XX=             -8.4403   YY=              8.6724   ZZ=            -14.7107
   XY=             -2.1942   XZ=              0.0000   YZ=              0.0000

 Normal termination of Gaussian 16 at Sat Aug 27 02:16:36 2022.
