 Gaussian 16, Revision A.03,
 Gaussian 16:  ES64L-G16RevA.03 25-Dec-2016

 ------------------
 #p CCSD(T)/cc-pVTZ
 ------------------

 ----------
 H2O_H2O_84
 ----------
 Symbolic Z-matrix:
 Charge =  0 Multiplicity = 1

                         Standard orientation:
 ---------------------------------------------------------------------
 Center     Atomic      Atomic             Coordinates (Angstroms)
 Number     Number       Type             X           Y           Z
 ---------------------------------------------------------------------
      1          8           0        0.031761   -0.833140    0.000000
      2          1           0       -0.769657   -1.401677    0.000000
      3          1           0        0.829477   -1.406861    0.000000
      4          8           0        0.031761    0.852185    0.000000
      5          1           0        0.382254    1.770151    0.000000
      6          1           0       -0.950257    0.886029    0.000000
 ---------------------------------------------------------------------

 SCF Done:  E(RHF) =  -151.959055633     A.U. after   12 cycles
 E2 =    -0.5469000740D+00 EUMP2 =    -0.15250595570725D+03
 CCSD(T)
 CCSD(T)= -0.15253115217D+03

 The electronic state is 1-A'.
 Alpha  occ. eigenvalues --  -20.51996 -20.51410  -1.36222  -1.27011  -0.71959
 Alpha  occ. eigenvalues --   -0.68656  -0.62005  -0.52390  -0.43468  -0.36613
 Alpha virt. eigenvalues --    0.14249   0.19112   0.19861   0.23489   0.53328
 Alpha virt. eigenvalues --    0.56161   0.58781   0.65561   0.71497   0.78274
 Alpha virt. eigenvalues --    0.79698   0.82834   0.83215   0.84966   0.88791

 Mulliken charges:
               1
     1  O   -0.367475
     2  H    0.172996
     3  H    0.195656
     4  O   -0.346300
     5  H    0.120816
     6  H    0.224307
 Sum of Mulliken charges =  -0.00000

 Dipole moment (field-independent basis, Debye):
    X=             -0.8758    Y=             -0.4701    Z=              0.0000  Tot=              0.9940
 Quadrupole moment (field-independent basis, Debye-Ang):
   XX=             -8.8608   YY=             -8.4187   ZZ=            -14.7117
   XY=             -0.4192   XZ=              0.0000   YZ=              0.0000

 88464\MP4DQ=-152.510111\MP4SDQ=-152.5142321\CCSD=-152.5130467\CCSD(T)=
 Normal termination of Gaussian 16 at Fri Aug 26 12:36:34 2022.
