 Gaussian 16, Revision A.03,
 Gaussian 16:  ES64L-G16RevA.03 25-Dec-2016

 ------------------
 #p CCSD(T)/cc-pVTZ
 ------------------

 -----------
 H2O_H2O_776
 -----------
 Symbolic Z-matrix:
 Charge =  0 Multiplicity = 1

                         Standard orientation:
 ---------------------------------------------------------------------
 Center     Atomic      Atomic             Coordinates (Angstroms)
 Number     Number       Type             X           Y           Z
 ---------------------------------------------------------------------
      1          8           0        0.003735   -1.215640    0.000000
      2          1           0       -0.795987   -1.786561    0.000000
      3          1           0        0.803155   -1.786984    0.000000
      4          8           0        0.003735    1.215883    0.000000
      5          1           0        0.764406    1.837886    0.000000
      6          1           0       -0.831341    1.733719    0.000000
 ---------------------------------------------------------------------

 SCF Done:  E(RHF) =  -152.089451871     A.U. after   10 cycles
 E2 =    -0.5296566879D+00 EUMP2 =    -0.15261910855897D+03
 CCSD(T)
 CCSD(T)= -0.15264639254D+03

 The electronic state is 1-A'.
 Alpha  occ. eigenvalues --  -20.52914 -20.52907  -1.31017  -1.29950  -0.68254
 Alpha  occ. eigenvalues --   -0.67552  -0.57352  -0.49398  -0.48324  -0.46667
 Alpha virt. eigenvalues --    0.14528   0.17629   0.20578   0.22391   0.50283
 Alpha virt. eigenvalues --    0.58893   0.58939   0.63643   0.73119   0.76702
 Alpha virt. eigenvalues --    0.77273   0.79793   0.84109   0.86547   0.86554

 Mulliken charges:
               1
     1  O   -0.456923
     2  H    0.227524
     3  H    0.229337
     4  O   -0.456534
     5  H    0.226988
     6  H    0.229607
 Sum of Mulliken charges =   0.00000

 Dipole moment (field-independent basis, Debye):
    X=             -0.1162    Y=             -0.0047    Z=              0.0000  Tot=              0.1163
 Quadrupole moment (field-independent basis, Debye-Ang):
   XX=             -8.0079   YY=             -3.2065   ZZ=            -14.7286
   XY=             -0.0495   XZ=              0.0000   YZ=              0.0000

 Normal termination of Gaussian 16 at Fri Aug 26 19:52:57 2022.
