 Gaussian 16, Revision A.03,
 Gaussian 16:  ES64L-G16RevA.03 25-Dec-2016

 ------------------
 #p CCSD(T)/cc-pVTZ
 ------------------

 ------------
 H2O_H2O_4697
 ------------
 Symbolic Z-matrix:
 Charge =  0 Multiplicity = 1

                         Standard orientation:
 ---------------------------------------------------------------------
 Center     Atomic      Atomic             Coordinates (Angstroms)
 Number     Number       Type             X           Y           Z
 ---------------------------------------------------------------------
      1          8           0        0.056698   -3.236088    0.000000
      2          1           0       -0.743719   -3.806033    0.000000
      3          1           0        0.855421   -3.808406    0.000000
      4          8           0        0.056698    3.335237    0.000000
      5          1           0       -0.403896    4.203200    0.000000
      6          1           0       -0.614978    2.618050    0.000000
 ---------------------------------------------------------------------

 SCF Done:  E(RHF) =  -152.107582211     A.U. after   10 cycles
 E2 =    -0.5258611783D+00 EUMP2 =    -0.15263344338962D+03
 CCSD(T)
 CCSD(T)= -0.15266065997D+03

 The electronic state is 1-A'.
 Alpha  occ. eigenvalues --  -20.55706 -20.55181  -1.33006  -1.32480  -0.70412
 Alpha  occ. eigenvalues --   -0.69880  -0.56461  -0.55931  -0.50119  -0.49595
 Alpha virt. eigenvalues --    0.13979   0.14513   0.20067   0.20627   0.54147
 Alpha virt. eigenvalues --    0.54691   0.57082   0.57607   0.67704   0.68266
 Alpha virt. eigenvalues --    0.78761   0.79277   0.80188   0.80740   0.82119

 Mulliken charges:
               1
     1  O   -0.509919
     2  H    0.253897
     3  H    0.256023
     4  O   -0.509622
     5  H    0.252589
     6  H    0.257032
 Sum of Mulliken charges =  -0.00000

 Dipole moment (field-independent basis, Debye):
    X=             -1.9499    Y=             -1.7304    Z=              0.0000  Tot=              2.6070
 Quadrupole moment (field-independent basis, Debye-Ang):
   XX=             -9.8284   YY=              4.7271   ZZ=            -14.7124
   XY=             -6.3948   XZ=              0.0000   YZ=              0.0000

 Normal termination of Gaussian 16 at Sat Aug 27 08:48:43 2022.
