 Gaussian 16, Revision A.03,
 Gaussian 16:  ES64L-G16RevA.03 25-Dec-2016

 ------------------
 #p CCSD(T)/cc-pVTZ
 ------------------

 ------------
 H2O_H2O_1427
 ------------
 Symbolic Z-matrix:
 Charge =  0 Multiplicity = 1

                         Standard orientation:
 ---------------------------------------------------------------------
 Center     Atomic      Atomic             Coordinates (Angstroms)
 Number     Number       Type             X           Y           Z
 ---------------------------------------------------------------------
      1          8           0        0.007455   -1.560938    0.000000
      2          1           0       -0.792351   -2.131742    0.000000
      3          1           0        0.806791   -2.132399    0.000000
      4          8           0        0.007455    1.561909    0.000000
      5          1           0        0.725913    2.232225    0.000000
      6          1           0       -0.859634    2.024146    0.000000
 ---------------------------------------------------------------------

 SCF Done:  E(RHF) =  -152.102197626     A.U. after   10 cycles
 E2 =    -0.5271683249D+00 EUMP2 =    -0.15262936595091D+03
 CCSD(T)
 CCSD(T)= -0.15265665237D+03

 The electronic state is 1-A'.
 Alpha  occ. eigenvalues --  -20.53972 -20.53950  -1.31340  -1.31173  -0.68755
 Alpha  occ. eigenvalues --   -0.68625  -0.55503  -0.53348  -0.48522  -0.48154
 Alpha virt. eigenvalues --    0.14354   0.16562   0.20572   0.21749   0.52076
 Alpha virt. eigenvalues --    0.58236   0.58598   0.59340   0.64275   0.76178
 Alpha virt. eigenvalues --    0.78103   0.78163   0.79451   0.82355   0.86049

 Mulliken charges:
               1
     1  O   -0.475378
     2  H    0.236565
     3  H    0.238845
     4  O   -0.475145
     5  H    0.236534
     6  H    0.238581
 Sum of Mulliken charges =  -0.00000

 Dipole moment (field-independent basis, Debye):
    X=             -0.2454    Y=             -0.0183    Z=              0.0000  Tot=              0.2461
 Quadrupole moment (field-independent basis, Debye-Ang):
   XX=             -7.9209   YY=              0.0965   ZZ=            -14.7095
   XY=             -0.1787   XZ=              0.0000   YZ=              0.0000

 Normal termination of Gaussian 16 at Sat Aug 27 04:42:10 2022.
