 Gaussian 16, Revision A.03,
 Gaussian 16:  ES64L-G16RevA.03 25-Dec-2016

 ------------------
 #p CCSD(T)/cc-pVTZ
 ------------------

 -----------
 H2O_H2O_953
 -----------
 Symbolic Z-matrix:
 Charge =  0 Multiplicity = 1

                         Standard orientation:
 ---------------------------------------------------------------------
 Center     Atomic      Atomic             Coordinates (Angstroms)
 Number     Number       Type             X           Y           Z
 ---------------------------------------------------------------------
      1          8           0        0.011143   -1.307660    0.000000
      2          1           0       -0.788846   -1.878206    0.000000
      3          1           0        0.810295   -1.879378    0.000000
      4          8           0        0.011143    1.309839    0.000000
      5          1           0        0.684453    2.025491    0.000000
      6          1           0       -0.884191    1.714664    0.000000
 ---------------------------------------------------------------------

 SCF Done:  E(RHF) =  -152.095710938     A.U. after   11 cycles
 E2 =    -0.5285954958D+00 EUMP2 =    -0.15262430643363D+03
 CCSD(T)
 CCSD(T)= -0.15265161963D+03

 The electronic state is 1-A'.
 Alpha  occ. eigenvalues --  -20.53333 -20.53272  -1.31058  -1.30403  -0.68393
 Alpha  occ. eigenvalues --   -0.67939  -0.56511  -0.50971  -0.48331  -0.47220
 Alpha virt. eigenvalues --    0.14461   0.17292   0.20561   0.22246   0.50763
 Alpha virt. eigenvalues --    0.58681   0.58838   0.62245   0.72382   0.76641
 Alpha virt. eigenvalues --    0.76779   0.78855   0.81463   0.83742   0.86389

 Mulliken charges:
               1
     1  O   -0.463550
     2  H    0.229150
     3  H    0.234105
     4  O   -0.461077
     5  H    0.228049
     6  H    0.233324
 Sum of Mulliken charges =  -0.00000

 Dipole moment (field-independent basis, Debye):
    X=             -0.3537    Y=             -0.0418    Z=              0.0000  Tot=              0.3562
 Quadrupole moment (field-independent basis, Debye-Ang):
   XX=             -8.0322   YY=             -2.2714   ZZ=            -14.7196
   XY=             -0.1835   XZ=              0.0000   YZ=              0.0000

 Normal termination of Gaussian 16 at Fri Aug 26 21:28:39 2022.
