 Gaussian 16, Revision A.03,
 Gaussian 16:  ES64L-G16RevA.03 25-Dec-2016

 ------------------
 #p CCSD(T)/cc-pVTZ
 ------------------

 -----------
 H2O_H2O_819
 -----------
 Symbolic Z-matrix:
 Charge =  0 Multiplicity = 1

                         Standard orientation:
 ---------------------------------------------------------------------
 Center     Atomic      Atomic             Coordinates (Angstroms)
 Number     Number       Type             X           Y           Z
 ---------------------------------------------------------------------
      1          8           0        0.054229   -1.187192    0.000000
      2          1           0       -0.747505   -1.755283    0.000000
      3          1           0        0.851625   -1.761356    0.000000
      4          8           0        0.054229    1.264290    0.000000
      5          1           0       -0.226005    2.206083    0.000000
      6          1           0       -0.745780    0.693770    0.000000
 ---------------------------------------------------------------------

 SCF Done:  E(RHF) =  -152.097944251     A.U. after   11 cycles
 E2 =    -0.5300349996D+00 EUMP2 =    -0.15262797925082D+03
 CCSD(T)
 CCSD(T)= -0.15265502884D+03

 The electronic state is 1-A'.
 Alpha  occ. eigenvalues --  -20.55621 -20.52404  -1.33440  -1.29713  -0.70824
 Alpha  occ. eigenvalues --   -0.68107  -0.55950  -0.52757  -0.50501  -0.46738
 Alpha virt. eigenvalues --    0.13442   0.17892   0.19743   0.24774   0.51961
 Alpha virt. eigenvalues --    0.56845   0.59829   0.60386   0.71363   0.74283
 Alpha virt. eigenvalues --    0.77240   0.82877   0.83548   0.84362   0.85518

 Mulliken charges:
               1
     1  O   -0.463369
     2  H    0.229588
     3  H    0.248409
     4  O   -0.483939
     5  H    0.213881
     6  H    0.255430
 Sum of Mulliken charges =  -0.00000

 Dipole moment (field-independent basis, Debye):
    X=             -1.6864    Y=             -1.5763    Z=              0.0000  Tot=              2.3084
 Quadrupole moment (field-independent basis, Debye-Ang):
   XX=             -9.6898   YY=             -4.4045   ZZ=            -14.7215
   XY=             -1.9968   XZ=              0.0000   YZ=              0.0000

 Normal termination of Gaussian 16 at Fri Aug 26 20:18:03 2022.
