 Gaussian 16, Revision A.03,
 Gaussian 16:  ES64L-G16RevA.03 25-Dec-2016

 ------------------
 #p CCSD(T)/cc-pVTZ
 ------------------

 ------------
 H2O_H2O_4873
 ------------
 Symbolic Z-matrix:
 Charge =  0 Multiplicity = 1

                         Standard orientation:
 ---------------------------------------------------------------------
 Center     Atomic      Atomic             Coordinates (Angstroms)
 Number     Number       Type             X           Y           Z
 ---------------------------------------------------------------------
      1          8           0        0.057068   -3.325119    0.000000
      2          1           0       -0.743331   -3.895089    0.000000
      3          1           0        0.855809   -3.897412    0.000000
      4          8           0        0.057068    3.431709    0.000000
      5          1           0       -0.459333    4.267673    0.000000
      6          1           0       -0.566239    2.672107    0.000000
 ---------------------------------------------------------------------

 SCF Done:  E(RHF) =  -152.107618260     A.U. after   10 cycles
 E2 =    -0.5258557360D+00 EUMP2 =    -0.15263347399598D+03
 CCSD(T)
 CCSD(T)= -0.15266068997D+03

 The electronic state is 1-A'.
 Alpha  occ. eigenvalues --  -20.55735 -20.55205  -1.33035  -1.32504  -0.70440
 Alpha  occ. eigenvalues --   -0.69905  -0.56491  -0.55957  -0.50148  -0.49619
 Alpha virt. eigenvalues --    0.13957   0.14490   0.20044   0.20606   0.54119
 Alpha virt. eigenvalues --    0.54665   0.57056   0.57585   0.67677   0.68233
 Alpha virt. eigenvalues --    0.78732   0.79253   0.80159   0.80716   0.82085

 Mulliken charges:
               1
     1  O   -0.510128
     2  H    0.254095
     3  H    0.256033
     4  O   -0.509842
     5  H    0.252819
     6  H    0.257023
 Sum of Mulliken charges =  -0.00000

 Dipole moment (field-independent basis, Debye):
    X=             -1.9633    Y=             -1.8587    Z=              0.0000  Tot=              2.7035
 Quadrupole moment (field-independent basis, Debye-Ang):
   XX=             -9.8555   YY=              4.2806   ZZ=            -14.7125
   XY=             -6.7516   XZ=              0.0000   YZ=              0.0000

 Normal termination of Gaussian 16 at Sat Aug 27 09:49:04 2022.
