 Gaussian 16, Revision A.03,
 Gaussian 16:  ES64L-G16RevA.03 25-Dec-2016

 ------------------
 #p CCSD(T)/cc-pVTZ
 ------------------

 -----------
 H2O_H2O_937
 -----------
 Symbolic Z-matrix:
 Charge =  0 Multiplicity = 1

                         Standard orientation:
 ---------------------------------------------------------------------
 Center     Atomic      Atomic             Coordinates (Angstroms)
 Number     Number       Type             X           Y           Z
 ---------------------------------------------------------------------
      1          8           0        0.040430   -1.277493    0.000000
      2          1           0       -0.760672   -1.846475    0.000000
      3          1           0        0.838464   -1.850771    0.000000
      4          8           0        0.040430    1.310732    0.000000
      5          1           0        0.204564    2.279528    0.000000
      6          1           0       -0.929234    1.151805    0.000000
 ---------------------------------------------------------------------

 SCF Done:  E(RHF) =  -152.098386023     A.U. after   11 cycles
 E2 =    -0.5287481303D+00 EUMP2 =    -0.15262713415325D+03
 CCSD(T)
 CCSD(T)= -0.15265436817D+03

 The electronic state is 1-A'.
 Alpha  occ. eigenvalues --  -20.54230 -20.53180  -1.31803  -1.30399  -0.69189
 Alpha  occ. eigenvalues --   -0.67980  -0.56402  -0.51933  -0.48999  -0.47335
 Alpha virt. eigenvalues --    0.14078   0.17264   0.20267   0.22997   0.53177
 Alpha virt. eigenvalues --    0.58031   0.58233   0.60213   0.70193   0.76073
 Alpha virt. eigenvalues --    0.77073   0.78026   0.83342   0.83842   0.85683

 Mulliken charges:
               1
     1  O   -0.471657
     2  H    0.228654
     3  H    0.244702
     4  O   -0.461056
     5  H    0.216631
     6  H    0.242726
 Sum of Mulliken charges =  -0.00000

 Dipole moment (field-independent basis, Debye):
    X=             -1.2754    Y=             -0.6463    Z=              0.0000  Tot=              1.4298
 Quadrupole moment (field-independent basis, Debye-Ang):
   XX=             -8.9355   YY=             -2.8129   ZZ=            -14.7220
   XY=             -1.0253   XZ=              0.0000   YZ=              0.0000

 Normal termination of Gaussian 16 at Fri Aug 26 21:20:30 2022.
