 Gaussian 16, Revision A.03,
 Gaussian 16:  ES64L-G16RevA.03 25-Dec-2016

 ------------------
 #p CCSD(T)/cc-pVTZ
 ------------------

 ------------
 H2O_H2O_2649
 ------------
 Symbolic Z-matrix:
 Charge =  0 Multiplicity = 1

                         Standard orientation:
 ---------------------------------------------------------------------
 Center     Atomic      Atomic             Coordinates (Angstroms)
 Number     Number       Type             X           Y           Z
 ---------------------------------------------------------------------
      1          8           0        0.057241   -2.137773    0.000000
      2          1           0       -0.743607   -2.707112    0.000000
      3          1           0        0.855531   -2.710695    0.000000
      4          8           0        0.057241    2.251743    0.000000
      5          1           0       -0.512098    3.052592    0.000000
      6          1           0       -0.515681    1.453453    0.000000
 ---------------------------------------------------------------------

 SCF Done:  E(RHF) =  -152.108569728     A.U. after   10 cycles
 E2 =    -0.5260125315D+00 EUMP2 =    -0.15263458225995D+03
 CCSD(T)
 CCSD(T)= -0.15266175325D+03

 The electronic state is 1-A'.
 Alpha  occ. eigenvalues --  -20.56061 -20.54525  -1.33343  -1.31828  -0.70748
 Alpha  occ. eigenvalues --   -0.69205  -0.56827  -0.55296  -0.50463  -0.48953
 Alpha virt. eigenvalues --    0.12995   0.15709   0.19823   0.22180   0.53859
 Alpha virt. eigenvalues --    0.54893   0.56850   0.58342   0.66687   0.71455
 Alpha virt. eigenvalues --    0.78425   0.79363   0.79900   0.80402   0.82630

 Mulliken charges:
               1
     1  O   -0.509702
     2  H    0.252699
     3  H    0.258992
     4  O   -0.513194
     5  H    0.248757
     6  H    0.262447
 Sum of Mulliken charges =  -0.00000

 Dipole moment (field-independent basis, Debye):
    X=             -1.9470    Y=             -2.0613    Z=              0.0000  Tot=              2.8354
 Quadrupole moment (field-independent basis, Debye-Ang):
   XX=             -9.8615   YY=             -1.3243   ZZ=            -14.7164
   XY=             -4.5974   XZ=              0.0000   YZ=              0.0000

 Normal termination of Gaussian 16 at Fri Aug 26 14:43:21 2022.
