 Gaussian 16, Revision A.03,
 Gaussian 16:  ES64L-G16RevA.03 25-Dec-2016

 ------------------
 #p CCSD(T)/cc-pVTZ
 ------------------

 ------------
 H2O_H2O_3930
 ------------
 Symbolic Z-matrix:
 Charge =  0 Multiplicity = 1

                         Standard orientation:
 ---------------------------------------------------------------------
 Center     Atomic      Atomic             Coordinates (Angstroms)
 Number     Number       Type             X           Y           Z
 ---------------------------------------------------------------------
      1          8           0        0.018360   -2.887775    0.000000
      2          1           0       -0.781523   -3.458470    0.000000
      3          1           0        0.817619   -3.459344    0.000000
      4          8           0        0.018360    2.893817    0.000000
      5          1           0        0.592350    3.691339    0.000000
      6          1           0       -0.922207    3.178140    0.000000
 ---------------------------------------------------------------------

 SCF Done:  E(RHF) =  -152.106671412     A.U. after   10 cycles
 E2 =    -0.5259515835D+00 EUMP2 =    -0.15263262299515D+03
 CCSD(T)
 CCSD(T)= -0.15265985833D+03

 The electronic state is 1-A'.
 Alpha  occ. eigenvalues --  -20.55137 -20.55096  -1.32432  -1.32390  -0.69840
 Alpha  occ. eigenvalues --   -0.69797  -0.55845  -0.55803  -0.49538  -0.49497
 Alpha virt. eigenvalues --    0.14444   0.14554   0.20506   0.20568   0.54725
 Alpha virt. eigenvalues --    0.54781   0.57582   0.57629   0.68274   0.68575
 Alpha virt. eigenvalues --    0.79340   0.79381   0.80786   0.80833   0.82718

 Mulliken charges:
               1
     1  O   -0.504528
     2  H    0.251728
     3  H    0.252799
     4  O   -0.504473
     5  H    0.251493
     6  H    0.252980
 Sum of Mulliken charges =  -0.00000

 Dipole moment (field-independent basis, Debye):
    X=             -0.6298    Y=             -0.1058    Z=              0.0000  Tot=              0.6386
 Quadrupole moment (field-independent basis, Debye-Ang):
   XX=             -8.0180   YY=             10.6800   ZZ=            -14.7105
   XY=             -1.2847   XZ=              0.0000   YZ=              0.0000

 Normal termination of Gaussian 16 at Sat Aug 27 04:22:46 2022.
