 Gaussian 16, Revision A.03,
 Gaussian 16:  ES64L-G16RevA.03 25-Dec-2016

 ------------------
 #p CCSD(T)/cc-pVTZ
 ------------------

 ------------
 H2O_H2O_3833
 ------------
 Symbolic Z-matrix:
 Charge =  0 Multiplicity = 1

                         Standard orientation:
 ---------------------------------------------------------------------
 Center     Atomic      Atomic             Coordinates (Angstroms)
 Number     Number       Type             X           Y           Z
 ---------------------------------------------------------------------
      1          8           0        0.028563   -2.829589    0.000000
      2          1           0       -0.771502   -3.400028    0.000000
      3          1           0        0.827639   -3.401413    0.000000
      4          8           0        0.028563    2.844843    0.000000
      5          1           0        0.436222    3.738890    0.000000
      6          1           0       -0.949369    2.940519    0.000000
 ---------------------------------------------------------------------

 SCF Done:  E(RHF) =  -152.106723320     A.U. after   10 cycles
 E2 =    -0.5259500985D+00 EUMP2 =    -0.15263267341891D+03
 CCSD(T)
 CCSD(T)= -0.15265990747D+03

 The electronic state is 1-A'.
 Alpha  occ. eigenvalues --  -20.55180 -20.55070  -1.32475  -1.32364  -0.69883
 Alpha  occ. eigenvalues --   -0.69770  -0.55890  -0.55780  -0.49581  -0.49472
 Alpha virt. eigenvalues --    0.14399   0.14590   0.20469   0.20605   0.54680
 Alpha virt. eigenvalues --    0.54812   0.57543   0.57658   0.68189   0.68632
 Alpha virt. eigenvalues --    0.79297   0.79405   0.80741   0.80863   0.82678

 Mulliken charges:
               1
     1  O   -0.504844
     2  H    0.251543
     3  H    0.253301
     4  O   -0.504708
     5  H    0.251095
     6  H    0.253613
 Sum of Mulliken charges =  -0.00000

 Dipole moment (field-independent basis, Debye):
    X=             -0.9795    Y=             -0.2673    Z=              0.0000  Tot=              1.0153
 Quadrupole moment (field-independent basis, Debye-Ang):
   XX=             -8.3191   YY=              9.6350   ZZ=            -14.7106
   XY=             -2.0296   XZ=              0.0000   YZ=              0.0000

 Normal termination of Gaussian 16 at Sat Aug 27 03:39:44 2022.
