 Gaussian 16, Revision A.03,
 Gaussian 16:  ES64L-G16RevA.03 25-Dec-2016

 ------------------
 #p CCSD(T)/cc-pVTZ
 ------------------

 ------------
 H2O_H2O_4242
 ------------
 Symbolic Z-matrix:
 Charge =  0 Multiplicity = 1

                         Standard orientation:
 ---------------------------------------------------------------------
 Center     Atomic      Atomic             Coordinates (Angstroms)
 Number     Number       Type             X           Y           Z
 ---------------------------------------------------------------------
      1          8           0        0.051269   -3.016090    0.000000
      2          1           0       -0.749127   -3.586065    0.000000
      3          1           0        0.850013   -3.588378    0.000000
      4          8           0        0.051269    3.079647    0.000000
      5          1           0       -0.105919    4.049595    0.000000
      6          1           0       -0.815276    2.616392    0.000000
 ---------------------------------------------------------------------

 SCF Done:  E(RHF) =  -152.107297474     A.U. after   10 cycles
 E2 =    -0.5258934645D+00 EUMP2 =    -0.15263319093867D+03
 CCSD(T)
 CCSD(T)= -0.15266041309D+03

 The electronic state is 1-A'.
 Alpha  occ. eigenvalues --  -20.55520 -20.55122  -1.32818  -1.32419  -0.70224
 Alpha  occ. eigenvalues --   -0.69818  -0.56260  -0.55860  -0.49929  -0.49531
 Alpha virt. eigenvalues --    0.14128   0.14560   0.20213   0.20644   0.54336
 Alpha virt. eigenvalues --    0.54759   0.57247   0.57646   0.67897   0.68386
 Alpha virt. eigenvalues --    0.78951   0.79343   0.80384   0.80803   0.82326

 Mulliken charges:
               1
     1  O   -0.508245
     2  H    0.252860
     3  H    0.255386
     4  O   -0.507972
     5  H    0.251749
     6  H    0.256221
 Sum of Mulliken charges =  -0.00000

 Dipole moment (field-independent basis, Debye):
    X=             -1.7611    Y=             -1.1119    Z=              0.0000  Tot=              2.0827
 Quadrupole moment (field-independent basis, Debye-Ang):
   XX=             -9.4577   YY=              7.1332   ZZ=            -14.7118
   XY=             -4.7911   XZ=              0.0000   YZ=              0.0000

 Normal termination of Gaussian 16 at Sat Aug 27 06:12:54 2022.
