 Gaussian 16, Revision A.03,
 Gaussian 16:  ES64L-G16RevA.03 25-Dec-2016

 ------------------
 #p CCSD(T)/cc-pVTZ
 ------------------

 -----------
 H2O_H2O_490
 -----------
 Symbolic Z-matrix:
 Charge =  0 Multiplicity = 1

                         Standard orientation:
 ---------------------------------------------------------------------
 Center     Atomic      Atomic             Coordinates (Angstroms)
 Number     Number       Type             X           Y           Z
 ---------------------------------------------------------------------
      1          8           0        0.047586   -1.028845    0.000000
      2          1           0       -0.754194   -1.596872    0.000000
      3          1           0        0.844936   -1.603074    0.000000
      4          8           0        0.047586    1.079242    0.000000
      5          1           0        0.020734    2.061477    0.000000
      6          1           0       -0.872852    0.735295    0.000000
 ---------------------------------------------------------------------

 SCF Done:  E(RHF) =  -152.072520848     A.U. after   11 cycles
 E2 =    -0.5334877911D+00 EUMP2 =    -0.15260600863950D+03
 CCSD(T)
 CCSD(T)= -0.15263294371D+03

 The electronic state is 1-A'.
 Alpha  occ. eigenvalues --  -20.54020 -20.52005  -1.33083  -1.29005  -0.70358
 Alpha  occ. eigenvalues --   -0.68129  -0.56949  -0.50092  -0.48742  -0.45806
 Alpha virt. eigenvalues --    0.13940   0.18111   0.19974   0.23985   0.52773
 Alpha virt. eigenvalues --    0.57335   0.58959   0.62697   0.71730   0.75578
 Alpha virt. eigenvalues --    0.79678   0.82693   0.83087   0.84847   0.88029

 Mulliken charges:
               1
     1  O   -0.440255
     2  H    0.212067
     3  H    0.232988
     4  O   -0.431598
     5  H    0.183991
     6  H    0.242806
 Sum of Mulliken charges =  -0.00000

 Dipole moment (field-independent basis, Debye):
    X=             -1.4030    Y=             -1.0265    Z=              0.0000  Tot=              1.7384
 Quadrupole moment (field-independent basis, Debye-Ang):
   XX=             -9.3580   YY=             -5.3509   ZZ=            -14.7153
   XY=             -1.0963   XZ=              0.0000   YZ=              0.0000

 Normal termination of Gaussian 16 at Fri Aug 26 16:56:31 2022.
