 Gaussian 16, Revision A.03,
 Gaussian 16:  ES64L-G16RevA.03 25-Dec-2016

 ------------------
 #p CCSD(T)/cc-pVTZ
 ------------------

 ------------
 H2O_H2O_2591
 ------------
 Symbolic Z-matrix:
 Charge =  0 Multiplicity = 1

                         Standard orientation:
 ---------------------------------------------------------------------
 Center     Atomic      Atomic             Coordinates (Angstroms)
 Number     Number       Type             X           Y           Z
 ---------------------------------------------------------------------
      1          8           0        0.049517   -2.142164    0.000000
      2          1           0       -0.751172   -2.711727    0.000000
      3          1           0        0.847966   -2.714863    0.000000
      4          8           0        0.049517    2.199083    0.000000
      5          1           0       -0.043393    3.177282    0.000000
      6          1           0       -0.845679    1.793955    0.000000
 ---------------------------------------------------------------------

 SCF Done:  E(RHF) =  -152.106954290     A.U. after   10 cycles
 E2 =    -0.5260777274D+00 EUMP2 =    -0.15263303201787D+03
 CCSD(T)
 CCSD(T)= -0.15266024620D+03

 The electronic state is 1-A'.
 Alpha  occ. eigenvalues --  -20.55375 -20.54624  -1.32663  -1.31911  -0.70074
 Alpha  occ. eigenvalues --   -0.69298  -0.56080  -0.55329  -0.49772  -0.49025
 Alpha virt. eigenvalues --    0.13612   0.15517   0.20190   0.21430   0.54048
 Alpha virt. eigenvalues --    0.54921   0.57394   0.58063   0.65848   0.72956
 Alpha virt. eigenvalues --    0.79081   0.79867   0.80091   0.81868   0.83024

 Mulliken charges:
               1
     1  O   -0.504420
     2  H    0.249360
     3  H    0.255656
     4  O   -0.504872
     5  H    0.247092
     6  H    0.257184
 Sum of Mulliken charges =  -0.00000

 Dipole moment (field-independent basis, Debye):
    X=             -1.6821    Y=             -1.0234    Z=              0.0000  Tot=              1.9690
 Quadrupole moment (field-independent basis, Debye-Ang):
   XX=             -9.3487   YY=              2.4314   ZZ=            -14.7125
   XY=             -3.0522   XZ=              0.0000   YZ=              0.0000

 Normal termination of Gaussian 16 at Fri Aug 26 14:08:27 2022.
