 Gaussian 16, Revision A.03,
 Gaussian 16:  ES64L-G16RevA.03 25-Dec-2016

 ------------------
 #p CCSD(T)/cc-pVTZ
 ------------------

 ------------
 H2O_H2O_2310
 ------------
 Symbolic Z-matrix:
 Charge =  0 Multiplicity = 1

                         Standard orientation:
 ---------------------------------------------------------------------
 Center     Atomic      Atomic             Coordinates (Angstroms)
 Number     Number       Type             X           Y           Z
 ---------------------------------------------------------------------
      1          8           0        0.034786   -2.014058    0.000000
      2          1           0       -0.765628   -2.584008    0.000000
      3          1           0        0.833512   -2.586371    0.000000
      4          8           0        0.034786    2.037560    0.000000
      5          1           0        0.322834    2.976993    0.000000
      6          1           0       -0.947289    2.005371    0.000000
 ---------------------------------------------------------------------

 SCF Done:  E(RHF) =  -152.105847889     A.U. after   10 cycles
 E2 =    -0.5262326455D+00 EUMP2 =    -0.15263208053433D+03
 CCSD(T)
 CCSD(T)= -0.15265931330D+03

 The electronic state is 1-A'.
 Alpha  occ. eigenvalues --  -20.54898 -20.54549  -1.32182  -1.31829  -0.69597
 Alpha  occ. eigenvalues --   -0.69230  -0.55581  -0.55147  -0.49284  -0.48933
 Alpha virt. eigenvalues --    0.13936   0.15645   0.20435   0.21282   0.53891
 Alpha virt. eigenvalues --    0.55488   0.57752   0.58124   0.63912   0.74492
 Alpha virt. eigenvalues --    0.79378   0.80135   0.80410   0.81170   0.82729

 Mulliken charges:
               1
     1  O   -0.497983
     2  H    0.246485
     3  H    0.251823
     4  O   -0.497800
     5  H    0.245168
     6  H    0.252307
 Sum of Mulliken charges =  -0.00000

 Dipole moment (field-independent basis, Debye):
    X=             -1.1764    Y=             -0.4253    Z=              0.0000  Tot=              1.2509
 Quadrupole moment (field-independent basis, Debye-Ang):
   XX=             -8.5827   YY=              3.1484   ZZ=            -14.7107
   XY=             -1.6102   XZ=              0.0000   YZ=              0.0000

 Normal termination of Gaussian 16 at Sat Aug 27 09:47:42 2022.
