 Gaussian 16, Revision A.03,
 Gaussian 16:  ES64L-G16RevA.03 25-Dec-2016

 ------------------
 #p CCSD(T)/cc-pVTZ
 ------------------

 -----------
 H2O_H2O_200
 -----------
 Symbolic Z-matrix:
 Charge =  0 Multiplicity = 1

                         Standard orientation:
 ---------------------------------------------------------------------
 Center     Atomic      Atomic             Coordinates (Angstroms)
 Number     Number       Type             X           Y           Z
 ---------------------------------------------------------------------
      1          8           0        0.000000   -0.000000    0.909966
      2          1           0        0.000000    0.799571    1.481098
      3          1           0       -0.000000   -0.799571    1.481098
      4          8           0        0.000000   -0.000000   -0.909966
      5          1           0       -0.000000   -0.799571   -1.481098
      6          1           0        0.000000    0.799571   -1.481098
 ---------------------------------------------------------------------

 SCF Done:  E(RHF) =  -152.004413755     A.U. after   11 cycles
 E2 =    -0.5410381050D+00 EUMP2 =    -0.15254545186013D+03
 CCSD(T)
 CCSD(T)= -0.15257153612D+03

 The electronic state is 1-AG.
 Alpha  occ. eigenvalues --  -20.51256 -20.51255  -1.33379  -1.27637  -0.69144
 Alpha  occ. eigenvalues --   -0.65799  -0.64182  -0.50302  -0.43918  -0.38931
 Alpha virt. eigenvalues --    0.14665   0.19025   0.20250   0.22955   0.50326
 Alpha virt. eigenvalues --    0.59252   0.59254   0.67329   0.68282   0.79037
 Alpha virt. eigenvalues --    0.80295   0.83813   0.84462   0.86481   0.87594

 Mulliken charges:
               1
     1  O   -0.396848
     2  H    0.198424
     3  H    0.198424
     4  O   -0.396848
     5  H    0.198424
     6  H    0.198424
 Sum of Mulliken charges =  -0.00000

 Dipole moment (field-independent basis, Debye):
    X=             -0.0000    Y=              0.0000    Z=             -0.0000  Tot=              0.0000
 Quadrupole moment (field-independent basis, Debye-Ang):
   XX=            -14.7605   YY=             -8.2930   ZZ=             -7.1721
   XY=              0.0000   XZ=             -0.0000   YZ=             -0.0000

 \MP4DQ=-152.5511241\MP4SDQ=-152.5549803\CCSD=-152.5540162\CCSD(T)=-152
 Normal termination of Gaussian 16 at Fri Aug 26 13:56:08 2022.
