 Gaussian 16, Revision A.03,
 Gaussian 16:  ES64L-G16RevA.03 25-Dec-2016

 ------------------
 #p CCSD(T)/cc-pVTZ
 ------------------

 ------------
 H2O_H2O_2753
 ------------
 Symbolic Z-matrix:
 Charge =  0 Multiplicity = 1

                         Standard orientation:
 ---------------------------------------------------------------------
 Center     Atomic      Atomic             Coordinates (Angstroms)
 Number     Number       Type             X           Y           Z
 ---------------------------------------------------------------------
      1          8           0        0.011143   -2.264962    0.000000
      2          1           0       -0.788670   -2.835756    0.000000
      3          1           0        0.810472   -2.836432    0.000000
      4          8           0        0.011143    2.267147    0.000000
      5          1           0        0.684231    2.983010    0.000000
      6          1           0       -0.884316    2.671695    0.000000
 ---------------------------------------------------------------------

 SCF Done:  E(RHF) =  -152.105789475     A.U. after   10 cycles
 E2 =    -0.5260989473D+00 EUMP2 =    -0.15263188842258D+03
 CCSD(T)
 CCSD(T)= -0.15265913685D+03

 The electronic state is 1-A'.
 Alpha  occ. eigenvalues --  -20.54798 -20.54773  -1.32088  -1.32063  -0.69500
 Alpha  occ. eigenvalues --   -0.69474  -0.55493  -0.55387  -0.49189  -0.49162
 Alpha virt. eigenvalues --    0.14337   0.15155   0.20615   0.20878   0.54770
 Alpha virt. eigenvalues --    0.55387   0.57799   0.57931   0.65739   0.71808
 Alpha virt. eigenvalues --    0.79607   0.79786   0.81130   0.81183   0.82291

 Mulliken charges:
               1
     1  O   -0.499233
     2  H    0.248983
     3  H    0.250256
     4  O   -0.499166
     5  H    0.248789
     6  H    0.250372
 Sum of Mulliken charges =  -0.00000

 Dipole moment (field-independent basis, Debye):
    X=             -0.3793    Y=             -0.0389    Z=              0.0000  Tot=              0.3813
 Quadrupole moment (field-independent basis, Debye-Ang):
   XX=             -7.8995   YY=              5.9373   ZZ=            -14.7096
   XY=             -0.5311   XZ=              0.0000   YZ=              0.0000

 Normal termination of Gaussian 16 at Fri Aug 26 15:47:01 2022.
