 Gaussian 16, Revision A.03,
 Gaussian 16:  ES64L-G16RevA.03 25-Dec-2016

 ------------------
 #p CCSD(T)/cc-pVTZ
 ------------------

 ------------
 H2O_H2O_3163
 ------------
 Symbolic Z-matrix:
 Charge =  0 Multiplicity = 1

                         Standard orientation:
 ---------------------------------------------------------------------
 Center     Atomic      Atomic             Coordinates (Angstroms)
 Number     Number       Type             X           Y           Z
 ---------------------------------------------------------------------
      1          8           0        0.042969   -2.457820    0.000000
      2          1           0       -0.757453   -3.027758    0.000000
      3          1           0        0.841687   -3.030144    0.000000
      4          8           0        0.042969    2.496603    0.000000
      5          1           0        0.142222    3.474179    0.000000
      6          1           0       -0.913959    2.273455    0.000000
 ---------------------------------------------------------------------

 SCF Done:  E(RHF) =  -152.106748795     A.U. after   10 cycles
 E2 =    -0.5259834011D+00 EUMP2 =    -0.15263273219656D+03
 CCSD(T)
 CCSD(T)= -0.15265996286D+03

 The electronic state is 1-A'.
 Alpha  occ. eigenvalues --  -20.55249 -20.54876  -1.32544  -1.32167  -0.69953
 Alpha  occ. eigenvalues --   -0.69565  -0.55959  -0.55584  -0.49651  -0.49277
 Alpha virt. eigenvalues --    0.14106   0.14965   0.20350   0.20890   0.54520
 Alpha virt. eigenvalues --    0.55016   0.57473   0.57833   0.67260   0.69898
 Alpha virt. eigenvalues --    0.79227   0.79595   0.80605   0.81096   0.82790

 Mulliken charges:
               1
     1  O   -0.504956
     2  H    0.250563
     3  H    0.254442
     4  O   -0.504526
     5  H    0.249284
     6  H    0.255194
 Sum of Mulliken charges =  -0.00000

 Dipole moment (field-independent basis, Debye):
    X=             -1.4683    Y=             -0.6858    Z=              0.0000  Tot=              1.6206
 Quadrupole moment (field-independent basis, Debye-Ang):
   XX=             -8.9680   YY=              5.5058   ZZ=            -14.7111
   XY=             -2.8476   XZ=              0.0000   YZ=              0.0000

 Normal termination of Gaussian 16 at Fri Aug 26 19:57:33 2022.
