 Gaussian 16, Revision A.03,
 Gaussian 16:  ES64L-G16RevA.03 25-Dec-2016

 ------------------
 #p CCSD(T)/cc-pVTZ
 ------------------

 ----------
 H2O_H2O_73
 ----------
 Symbolic Z-matrix:
 Charge =  0 Multiplicity = 1

                         Standard orientation:
 ---------------------------------------------------------------------
 Center     Atomic      Atomic             Coordinates (Angstroms)
 Number     Number       Type             X           Y           Z
 ---------------------------------------------------------------------
      1          8           0        0.057307   -0.772572    0.000000
      2          1           0       -0.745644   -1.338943    0.000000
      3          1           0        0.853470   -1.348445    0.000000
      4          8           0        0.057307    0.878648    0.000000
      5          1           0       -0.455336    1.716923    0.000000
      6          1           0       -0.569405    0.121854    0.000000
 ---------------------------------------------------------------------

 SCF Done:  E(RHF) =  -151.869975635     A.U. after   12 cycles
 E2 =    -0.5533167022D+00 EUMP2 =    -0.15242329233731D+03
 CCSD(T)
 CCSD(T)= -0.15244698988D+03

 The electronic state is 1-A'.
 Alpha  occ. eigenvalues --  -20.57716 -20.45806  -1.45571  -1.24732  -0.82252
 Alpha  occ. eigenvalues --   -0.74604  -0.57719  -0.49471  -0.41532  -0.40215
 Alpha virt. eigenvalues --    0.12346   0.17323   0.21149   0.27009   0.48338
 Alpha virt. eigenvalues --    0.52453   0.63462   0.70578   0.73941   0.74400
 Alpha virt. eigenvalues --    0.77195   0.78432   0.84905   0.85173   0.89360

 Mulliken charges:
               1
     1  O   -0.236986
     2  H    0.158710
     3  H    0.217030
     4  O   -0.537943
     5  H    0.122955
     6  H    0.276233
 Sum of Mulliken charges =  -0.00000

 Dipole moment (field-independent basis, Debye):
    X=             -1.4295    Y=             -2.9810    Z=              0.0000  Tot=              3.3060
 Quadrupole moment (field-independent basis, Debye-Ang):
   XX=             -9.8413   YY=             -9.4992   ZZ=            -14.4866
   XY=             -1.7442   XZ=              0.0000   YZ=              0.0000

 Normal termination of Gaussian 16 at Fri Aug 26 12:29:58 2022.
