 Gaussian 16, Revision A.03,
 Gaussian 16:  ES64L-G16RevA.03 25-Dec-2016

 ------------------
 #p CCSD(T)/cc-pVTZ
 ------------------

 ------------
 H2O_H2O_3151
 ------------
 Symbolic Z-matrix:
 Charge =  0 Multiplicity = 1

                         Standard orientation:
 ---------------------------------------------------------------------
 Center     Atomic      Atomic             Coordinates (Angstroms)
 Number     Number       Type             X           Y           Z
 ---------------------------------------------------------------------
      1          8           0        0.003735   -2.478751    0.000000
      2          1           0       -0.795910   -3.049780    0.000000
      3          1           0        0.803232   -3.049987    0.000000
      4          8           0        0.003735    2.478995    0.000000
      5          1           0        0.764322    3.101100    0.000000
      6          1           0       -0.831410    2.996718    0.000000
 ---------------------------------------------------------------------

 SCF Done:  E(RHF) =  -152.106124872     A.U. after   10 cycles
 E2 =    -0.5260279643D+00 EUMP2 =    -0.15263215283665D+03
 CCSD(T)
 CCSD(T)= -0.15265939793D+03

 The electronic state is 1-A'.
 Alpha  occ. eigenvalues --  -20.54911 -20.54908  -1.32204  -1.32201  -0.69614
 Alpha  occ. eigenvalues --   -0.69611  -0.55603  -0.55571  -0.49307  -0.49303
 Alpha virt. eigenvalues --    0.14445   0.14871   0.20602   0.20736   0.54849
 Alpha virt. eigenvalues --    0.55074   0.57737   0.57802   0.67410   0.69974
 Alpha virt. eigenvalues --    0.79548   0.79593   0.80981   0.81075   0.82685

 Mulliken charges:
               1
     1  O   -0.501315
     2  H    0.250490
     3  H    0.250824
     4  O   -0.501310
     5  H    0.250441
     6  H    0.250869
 Sum of Mulliken charges =  -0.00000

 Dipole moment (field-independent basis, Debye):
    X=             -0.1276    Y=             -0.0043    Z=              0.0000  Tot=              0.1277
 Quadrupole moment (field-independent basis, Debye-Ang):
   XX=             -7.8238   YY=              7.7512   ZZ=            -14.7098
   XY=             -0.2025   XZ=              0.0000   YZ=              0.0000

 Normal termination of Gaussian 16 at Fri Aug 26 19:50:54 2022.
