 Gaussian 16, Revision A.03,
 Gaussian 16:  ES64L-G16RevA.03 25-Dec-2016

 ------------------
 #p CCSD(T)/cc-pVTZ
 ------------------

 ------------
 H2O_H2O_1697
 ------------
 Symbolic Z-matrix:
 Charge =  0 Multiplicity = 1

                         Standard orientation:
 ---------------------------------------------------------------------
 Center     Atomic      Atomic             Coordinates (Angstroms)
 Number     Number       Type             X           Y           Z
 ---------------------------------------------------------------------
      1          8           0        0.056768   -1.640662    0.000000
      2          1           0       -0.744447   -2.209486    0.000000
      3          1           0        0.854688   -2.214098    0.000000
      4          8           0        0.056768    1.739652    0.000000
      5          1           0       -0.402610    2.608259    0.000000
      6          1           0       -0.615912    1.023406    0.000000
 ---------------------------------------------------------------------

 SCF Done:  E(RHF) =  -152.108983272     A.U. after   10 cycles
 E2 =    -0.5267049650D+00 EUMP2 =    -0.15263568823725D+03
 CCSD(T)
 CCSD(T)= -0.15266281111D+03

 The electronic state is 1-A'.
 Alpha  occ. eigenvalues --  -20.56215 -20.53761  -1.33487  -1.31061  -0.70893
 Alpha  occ. eigenvalues --   -0.68451  -0.56937  -0.54538  -0.50608  -0.48195
 Alpha virt. eigenvalues --    0.13059   0.16764   0.19718   0.24346   0.53105
 Alpha virt. eigenvalues --    0.55450   0.56691   0.58172   0.66900   0.75389
 Alpha virt. eigenvalues --    0.76960   0.77095   0.79626   0.81158   0.84320

 Mulliken charges:
               1
     1  O   -0.496400
     2  H    0.246274
     3  H    0.258255
     4  O   -0.512396
     5  H    0.241025
     6  H    0.263243
 Sum of Mulliken charges =  -0.00000

 Dipole moment (field-independent basis, Debye):
    X=             -1.8870    Y=             -1.8892    Z=              0.0000  Tot=              2.6702
 Quadrupole moment (field-independent basis, Debye-Ang):
   XX=             -9.8276   YY=             -2.5571   ZZ=            -14.7216
   XY=             -3.3390   XZ=              0.0000   YZ=              0.0000

 Normal termination of Gaussian 16 at Sat Aug 27 06:16:37 2022.
