 Gaussian 16, Revision A.03,
 Gaussian 16:  ES64L-G16RevA.03 25-Dec-2016

 ------------------
 #p CCSD(T)/cc-pVTZ
 ------------------

 -----------
 H2O_H2O_289
 -----------
 Symbolic Z-matrix:
 Charge =  0 Multiplicity = 1

                         Standard orientation:
 ---------------------------------------------------------------------
 Center     Atomic      Atomic             Coordinates (Angstroms)
 Number     Number       Type             X           Y           Z
 ---------------------------------------------------------------------
      1          8           0        0.045403   -0.925780    0.000000
      2          1           0       -0.756512   -1.493617    0.000000
      3          1           0        0.842617   -1.500197    0.000000
      4          8           0        0.045403    0.970097    0.000000
      5          1           0        0.083082    1.951975    0.000000
      6          1           0       -0.895627    0.687307    0.000000
 ---------------------------------------------------------------------

 SCF Done:  E(RHF) =  -152.035516838     A.U. after   11 cycles
 E2 =    -0.5381415893D+00 EUMP2 =    -0.15257365842699D+03
 CCSD(T)
 CCSD(T)= -0.15260015738D+03

 The electronic state is 1-A'.
 Alpha  occ. eigenvalues --  -20.53256 -20.51528  -1.34212  -1.28060  -0.71317
 Alpha  occ. eigenvalues --   -0.68424  -0.57908  -0.50883  -0.44788  -0.44767
 Alpha virt. eigenvalues --    0.14050   0.18489   0.19905   0.23936   0.52987
 Alpha virt. eigenvalues --    0.57043   0.58793   0.64165   0.72376   0.76629
 Alpha virt. eigenvalues --    0.80620   0.82422   0.82845   0.84595   0.88473

 Mulliken charges:
               1
     1  O   -0.410236
     2  H    0.194377
     3  H    0.219082
     4  O   -0.398026
     5  H    0.158364
     6  H    0.236439
 Sum of Mulliken charges =  -0.00000

 Dipole moment (field-independent basis, Debye):
    X=             -1.2795    Y=             -0.9335    Z=              0.0000  Tot=              1.5838
 Quadrupole moment (field-independent basis, Debye-Ang):
   XX=             -9.2870   YY=             -6.5829   ZZ=            -14.6963
   XY=             -0.8256   XZ=              0.0000   YZ=              0.0000

 Normal termination of Gaussian 16 at Fri Aug 26 14:53:52 2022.
