 Gaussian 16, Revision A.03,
 Gaussian 16:  ES64L-G16RevA.03 25-Dec-2016

 ------------------
 #p CCSD(T)/cc-pVTZ
 ------------------

 ------------
 H2O_H2O_1172
 ------------
 Symbolic Z-matrix:
 Charge =  0 Multiplicity = 1

                         Standard orientation:
 ---------------------------------------------------------------------
 Center     Atomic      Atomic             Coordinates (Angstroms)
 Number     Number       Type             X           Y           Z
 ---------------------------------------------------------------------
      1          8           0        0.056796   -1.361482    0.000000
      2          1           0       -0.744744   -1.929848    0.000000
      3          1           0        0.854389   -1.935373    0.000000
      4          8           0        0.056796    1.460407    0.000000
      5          1           0       -0.402086    2.329276    0.000000
      6          1           0       -0.616292    0.744545    0.000000
 ---------------------------------------------------------------------

 SCF Done:  E(RHF) =  -152.107500382     A.U. after   10 cycles
 E2 =    -0.5281365772D+00 EUMP2 =    -0.15263563695917D+03
 CCSD(T)
 CCSD(T)= -0.15266269280D+03

 The electronic state is 1-A'.
 Alpha  occ. eigenvalues --  -20.56468 -20.52870  -1.33881  -1.30215  -0.71268
 Alpha  occ. eigenvalues --   -0.68004  -0.56950  -0.53728  -0.50979  -0.47330
 Alpha virt. eigenvalues --    0.13084   0.17573   0.19575   0.25524   0.51851
 Alpha virt. eigenvalues --    0.56409   0.57353   0.59455   0.70018   0.74559
 Alpha virt. eigenvalues --    0.74676   0.79147   0.82351   0.83329   0.84058

 Mulliken charges:
               1
     1  O   -0.484643
     2  H    0.241864
     3  H    0.258322
     4  O   -0.511219
     5  H    0.231137
     6  H    0.264539
 Sum of Mulliken charges =  -0.00000

 Dipole moment (field-independent basis, Debye):
    X=             -1.8321    Y=             -1.9931    Z=              0.0000  Tot=              2.7072
 Quadrupole moment (field-independent basis, Debye-Ang):
   XX=             -9.8317   YY=             -4.0091   ZZ=            -14.7266
   XY=             -2.8227   XZ=              0.0000   YZ=              0.0000

 Normal termination of Gaussian 16 at Sat Aug 27 02:43:07 2022.
