 Gaussian 16, Revision A.03,
 Gaussian 16:  ES64L-G16RevA.03 25-Dec-2016

 ------------------
 #p CCSD(T)/cc-pVTZ
 ------------------

 -----------
 H2O_H2O_357
 -----------
 Symbolic Z-matrix:
 Charge =  0 Multiplicity = 1

                         Standard orientation:
 ---------------------------------------------------------------------
 Center     Atomic      Atomic             Coordinates (Angstroms)
 Number     Number       Type             X           Y           Z
 ---------------------------------------------------------------------
      1          8           0        0.025273   -0.983402    0.000000
      2          1           0       -0.775551   -1.552776    0.000000
      3          1           0        0.823587   -1.556291    0.000000
      4          8           0        0.025273    0.995071    0.000000
      5          1           0        0.491684    1.859922    0.000000
      6          1           0       -0.944095    1.155794    0.000000
 ---------------------------------------------------------------------

 SCF Done:  E(RHF) =  -152.048524377     A.U. after   11 cycles
 E2 =    -0.5357615559D+00 EUMP2 =    -0.15258428593301D+03
 CCSD(T)
 CCSD(T)= -0.15261102854D+03

 The electronic state is 1-A'.
 Alpha  occ. eigenvalues --  -20.52166 -20.51799  -1.32376  -1.28464  -0.69059
 Alpha  occ. eigenvalues --   -0.66873  -0.60547  -0.49516  -0.44945  -0.43815
 Alpha virt. eigenvalues --    0.14529   0.18302   0.20336   0.23117   0.51846
 Alpha virt. eigenvalues --    0.58313   0.58821   0.65145   0.70026   0.77686
 Alpha virt. eigenvalues --    0.78773   0.82680   0.83993   0.86310   0.87839

 Mulliken charges:
               1
     1  O   -0.434331
     2  H    0.208170
     3  H    0.223973
     4  O   -0.409454
     5  H    0.181378
     6  H    0.230264
 Sum of Mulliken charges =  -0.00000

 Dipole moment (field-independent basis, Debye):
    X=             -0.7325    Y=             -0.2470    Z=              0.0000  Tot=              0.7730
 Quadrupole moment (field-independent basis, Debye-Ang):
   XX=             -8.5121   YY=             -5.9001   ZZ=            -14.7408
   XY=             -0.2893   XZ=              0.0000   YZ=              0.0000

 Normal termination of Gaussian 16 at Fri Aug 26 15:37:11 2022.
