 Gaussian 16, Revision A.03,
 Gaussian 16:  ES64L-G16RevA.03 25-Dec-2016

 ------------------
 #p CCSD(T)/cc-pVTZ
 ------------------

 -----------
 H2O_H2O_455
 -----------
 Symbolic Z-matrix:
 Charge =  0 Multiplicity = 1

                         Standard orientation:
 ---------------------------------------------------------------------
 Center     Atomic      Atomic             Coordinates (Angstroms)
 Number     Number       Type             X           Y           Z
 ---------------------------------------------------------------------
      1          8           0        0.018363   -1.039663    0.000000
      2          1           0       -0.782073   -1.609582    0.000000
      3          1           0        0.817067   -1.612006    0.000000
      4          8           0        0.018363    1.045669    0.000000
      5          1           0        0.593126    1.842635    0.000000
      6          1           0       -0.921928    1.330903    0.000000
 ---------------------------------------------------------------------

 SCF Done:  E(RHF) =  -152.063594363     A.U. after   10 cycles
 E2 =    -0.5336145796D+00 EUMP2 =    -0.15259720894294D+03
 CCSD(T)
 CCSD(T)= -0.15262418141D+03

 The electronic state is 1-A'.
 Alpha  occ. eigenvalues --  -20.52245 -20.52057  -1.31705  -1.28880  -0.68548
 Alpha  occ. eigenvalues --   -0.66839  -0.59850  -0.48964  -0.45395  -0.45353
 Alpha virt. eigenvalues --    0.14584   0.18162   0.20466   0.22871   0.50981
 Alpha virt. eigenvalues --    0.58892   0.58972   0.65254   0.70202   0.77436
 Alpha virt. eigenvalues --    0.78381   0.82382   0.84233   0.86575   0.87365

 Mulliken charges:
               1
     1  O   -0.441560
     2  H    0.214585
     3  H    0.225457
     4  O   -0.427817
     5  H    0.199428
     6  H    0.229908
 Sum of Mulliken charges =  -0.00000

 Dipole moment (field-independent basis, Debye):
    X=             -0.5429    Y=             -0.1241    Z=              0.0000  Tot=              0.5569
 Quadrupole moment (field-independent basis, Debye-Ang):
   XX=             -8.3042   YY=             -5.1986   ZZ=            -14.7441
   XY=             -0.1996   XZ=              0.0000   YZ=              0.0000

 Normal termination of Gaussian 16 at Fri Aug 26 16:37:20 2022.
