 Gaussian 16, Revision A.03,
 Gaussian 16:  ES64L-G16RevA.03 25-Dec-2016

 ------------------
 #p CCSD(T)/cc-pVTZ
 ------------------

 ------------
 H2O_H2O_1868
 ------------
 Symbolic Z-matrix:
 Charge =  0 Multiplicity = 1

                         Standard orientation:
 ---------------------------------------------------------------------
 Center     Atomic      Atomic             Coordinates (Angstroms)
 Number     Number       Type             X           Y           Z
 ---------------------------------------------------------------------
      1          8           0        0.052855   -1.749344    0.000000
      2          1           0       -0.748167   -2.318439    0.000000
      3          1           0        0.850970   -2.322510    0.000000
      4          8           0        0.052855    1.819589    0.000000
      5          1           0       -0.166381    2.777421    0.000000
      6          1           0       -0.782106    1.301569    0.000000
 ---------------------------------------------------------------------

 SCF Done:  E(RHF) =  -152.107315301     A.U. after   10 cycles
 E2 =    -0.5265004930D+00 EUMP2 =    -0.15263381579440D+03
 CCSD(T)
 CCSD(T)= -0.15266098881D+03

 The electronic state is 1-A'.
 Alpha  occ. eigenvalues --  -20.55579 -20.54111  -1.32852  -1.31387  -0.70267
 Alpha  occ. eigenvalues --   -0.68759  -0.56264  -0.54793  -0.49965  -0.48509
 Alpha virt. eigenvalues --    0.13372   0.16351   0.20003   0.22786   0.54127
 Alpha virt. eigenvalues --    0.54391   0.57219   0.58534   0.64946   0.75951
 Alpha virt. eigenvalues --    0.78276   0.78585   0.79163   0.80825   0.84806

 Mulliken charges:
               1
     1  O   -0.496509
     2  H    0.244834
     3  H    0.255254
     4  O   -0.503375
     5  H    0.241229
     6  H    0.258566
 Sum of Mulliken charges =  -0.00000

 Dipole moment (field-independent basis, Debye):
    X=             -1.7661    Y=             -1.3110    Z=              0.0000  Tot=              2.1995
 Quadrupole moment (field-independent basis, Debye-Ang):
   XX=             -9.5674   YY=             -0.5765   ZZ=            -14.7161
   XY=             -2.7959   XZ=              0.0000   YZ=              0.0000

 Normal termination of Gaussian 16 at Sat Aug 27 07:15:53 2022.
