 Gaussian 16, Revision A.03,
 Gaussian 16:  ES64L-G16RevA.03 25-Dec-2016

 ------------------
 #p CCSD(T)/cc-pVTZ
 ------------------

 ------------
 H2O_H2O_4020
 ------------
 Symbolic Z-matrix:
 Charge =  0 Multiplicity = 1

                         Standard orientation:
 ---------------------------------------------------------------------
 Center     Atomic      Atomic             Coordinates (Angstroms)
 Number     Number       Type             X           Y           Z
 ---------------------------------------------------------------------
      1          8           0        0.055236   -2.885063    0.000000
      2          1           0       -0.745261   -3.454897    0.000000
      3          1           0        0.853879   -3.457491    0.000000
      4          8           0        0.055236    2.969546    0.000000
      5          1           0       -0.287998    3.890250    0.000000
      6          1           0       -0.704391    2.346271    0.000000
 ---------------------------------------------------------------------

 SCF Done:  E(RHF) =  -152.107492198     A.U. after   10 cycles
 E2 =    -0.5258823812D+00 EUMP2 =    -0.15263337457916D+03
 CCSD(T)
 CCSD(T)= -0.15266059210D+03

 The electronic state is 1-A'.
 Alpha  occ. eigenvalues --  -20.55639 -20.55063  -1.32938  -1.32361  -0.70344
 Alpha  occ. eigenvalues --   -0.69758  -0.56389  -0.55808  -0.50050  -0.49475
 Alpha virt. eigenvalues --    0.13984   0.14661   0.20115   0.20755   0.54211
 Alpha virt. eigenvalues --    0.54814   0.57141   0.57712   0.67668   0.68516
 Alpha virt. eigenvalues --    0.78831   0.79395   0.80257   0.80802   0.82306

 Mulliken charges:
               1
     1  O   -0.509403
     2  H    0.253212
     3  H    0.256201
     4  O   -0.509000
     5  H    0.251600
     6  H    0.257390
 Sum of Mulliken charges =  -0.00000

 Dipole moment (field-independent basis, Debye):
    X=             -1.8963    Y=             -1.4812    Z=              0.0000  Tot=              2.4062
 Quadrupole moment (field-independent basis, Debye-Ang):
   XX=             -9.7236   YY=              4.5274   ZZ=            -14.7123
   XY=             -5.2986   XZ=              0.0000   YZ=              0.0000

 Normal termination of Gaussian 16 at Sat Aug 27 04:55:22 2022.
