 Gaussian 16, Revision A.03,
 Gaussian 16:  ES64L-G16RevA.03 25-Dec-2016

 ------------------
 #p CCSD(T)/cc-pVTZ
 ------------------

 ------------
 H2O_H2O_4721
 ------------
 Symbolic Z-matrix:
 Charge =  0 Multiplicity = 1

                         Standard orientation:
 ---------------------------------------------------------------------
 Center     Atomic      Atomic             Coordinates (Angstroms)
 Number     Number       Type             X           Y           Z
 ---------------------------------------------------------------------
      1          8           0        0.056083   -3.253387    0.000000
      2          1           0       -0.744322   -3.823350    0.000000
      3          1           0        0.854818   -3.825687    0.000000
      4          8           0        0.056083    3.345165    0.000000
      5          1           0       -0.346777    4.241385    0.000000
      6          1           0       -0.661047    2.673427    0.000000
 ---------------------------------------------------------------------

 SCF Done:  E(RHF) =  -152.107530538     A.U. after   10 cycles
 E2 =    -0.5258655956D+00 EUMP2 =    -0.15263339613329D+03
 CCSD(T)
 CCSD(T)= -0.15266061381D+03

 The electronic state is 1-A'.
 Alpha  occ. eigenvalues --  -20.55672 -20.55188  -1.32971  -1.32487  -0.70377
 Alpha  occ. eigenvalues --   -0.69887  -0.56424  -0.55937  -0.50084  -0.49601
 Alpha virt. eigenvalues --    0.14011   0.14500   0.20095   0.20609   0.54183
 Alpha virt. eigenvalues --    0.54684   0.57112   0.57596   0.67748   0.68261
 Alpha virt. eigenvalues --    0.78796   0.79272   0.80225   0.80735   0.82152

 Mulliken charges:
               1
     1  O   -0.509612
     2  H    0.253752
     3  H    0.255860
     4  O   -0.509341
     5  H    0.252544
     6  H    0.256797
 Sum of Mulliken charges =   0.00000

 Dipole moment (field-independent basis, Debye):
    X=             -1.9288    Y=             -1.6015    Z=              0.0000  Tot=              2.5070
 Quadrupole moment (field-independent basis, Debye-Ang):
   XX=             -9.7845   YY=              5.6076   ZZ=            -14.7123
   XY=             -6.2214   XZ=              0.0000   YZ=              0.0000

 Normal termination of Gaussian 16 at Sat Aug 27 08:57:08 2022.
