 Gaussian 16, Revision A.03,
 Gaussian 16:  ES64L-G16RevA.03 25-Dec-2016

 ------------------
 #p CCSD(T)/cc-pVTZ
 ------------------

 -----------
 H2O_H2O_402
 -----------
 Symbolic Z-matrix:
 Charge =  0 Multiplicity = 1

                         Standard orientation:
 ---------------------------------------------------------------------
 Center     Atomic      Atomic             Coordinates (Angstroms)
 Number     Number       Type             X           Y           Z
 ---------------------------------------------------------------------
      1          8           0        0.007455   -1.015808    0.000000
      2          1           0       -0.792476   -1.586435    0.000000
      3          1           0        0.806665   -1.587444    0.000000
      4          8           0        0.007455    1.016776    0.000000
      5          1           0        0.726061    1.686933    0.000000
      6          1           0       -0.859532    1.479204    0.000000
 ---------------------------------------------------------------------

 SCF Done:  E(RHF) =  -152.054485190     A.U. after   10 cycles
 E2 =    -0.5346904603D+00 EUMP2 =    -0.15258917565030D+03
 CCSD(T)
 CCSD(T)= -0.15261605031D+03

 The electronic state is 1-A'.
 Alpha  occ. eigenvalues --  -20.51883 -20.51853  -1.31792  -1.28611  -0.68445
 Alpha  occ. eigenvalues --   -0.66520  -0.60748  -0.49032  -0.45057  -0.44042
 Alpha virt. eigenvalues --    0.14653   0.18393   0.20484   0.22798   0.50309
 Alpha virt. eigenvalues --    0.59124   0.59228   0.66104   0.70079   0.77886
 Alpha virt. eigenvalues --    0.79051   0.82720   0.84453   0.86684   0.87241

 Mulliken charges:
               1
     1  O   -0.432102
     2  H    0.213669
     3  H    0.218131
     4  O   -0.429357
     5  H    0.207728
     6  H    0.221930
 Sum of Mulliken charges =  -0.00000

 Dipole moment (field-independent basis, Debye):
    X=             -0.2190    Y=             -0.0205    Z=              0.0000  Tot=              0.2200
 Quadrupole moment (field-independent basis, Debye-Ang):
   XX=             -8.1734   YY=             -5.5520   ZZ=            -14.7508
   XY=             -0.0699   XZ=              0.0000   YZ=              0.0000

 7244\MP4DQ=-152.5965094\MP4SDQ=-152.6000269\CCSD=-152.599256\CCSD(T)=-
 Normal termination of Gaussian 16 at Fri Aug 26 16:07:44 2022.
