 Gaussian 16, Revision A.03,
 Gaussian 16:  ES64L-G16RevA.03 25-Dec-2016

 ------------------
 #p CCSD(T)/cc-pVTZ
 ------------------

 ------------
 H2O_H2O_2070
 ------------
 Symbolic Z-matrix:
 Charge =  0 Multiplicity = 1

                         Standard orientation:
 ---------------------------------------------------------------------
 Center     Atomic      Atomic             Coordinates (Angstroms)
 Number     Number       Type             X           Y           Z
 ---------------------------------------------------------------------
      1          8           0        0.055273   -1.848033    0.000000
      2          1           0       -0.745730   -2.417154    0.000000
      3          1           0        0.853407   -2.421172    0.000000
      4          8           0        0.055273    1.932418    0.000000
      5          1           0       -0.287141    2.853427    0.000000
      6          1           0       -0.704908    1.309819    0.000000
 ---------------------------------------------------------------------

 SCF Done:  E(RHF) =  -152.107980338     A.U. after   10 cycles
 E2 =    -0.5263118684D+00 EUMP2 =    -0.15263429220691D+03
 CCSD(T)
 CCSD(T)= -0.15266145860D+03

 The electronic state is 1-A'.
 Alpha  occ. eigenvalues --  -20.55806 -20.54217  -1.33079  -1.31506  -0.70489
 Alpha  occ. eigenvalues --   -0.68874  -0.56517  -0.54952  -0.50195  -0.48631
 Alpha virt. eigenvalues --    0.13184   0.16199   0.19924   0.22835   0.54038
 Alpha virt. eigenvalues --    0.54555   0.57042   0.58553   0.65497   0.74901
 Alpha virt. eigenvalues --    0.78392   0.78993   0.80101   0.80437   0.84542

 Mulliken charges:
               1
     1  O   -0.501366
     2  H    0.247776
     3  H    0.257055
     4  O   -0.508684
     5  H    0.244148
     6  H    0.261071
 Sum of Mulliken charges =  -0.00000

 Dipole moment (field-independent basis, Debye):
    X=             -1.8586    Y=             -1.5620    Z=              0.0000  Tot=              2.4278
 Quadrupole moment (field-independent basis, Debye-Ang):
   XX=             -9.7248   YY=             -0.7357   ZZ=            -14.7165
   XY=             -3.3644   XZ=              0.0000   YZ=              0.0000

 Normal termination of Gaussian 16 at Sat Aug 27 08:24:59 2022.
