 Gaussian 16, Revision A.03,
 Gaussian 16:  ES64L-G16RevA.03 25-Dec-2016

 ------------------
 #p CCSD(T)/cc-pVTZ
 ------------------

 ------------
 H2O_H2O_3353
 ------------
 Symbolic Z-matrix:
 Charge =  0 Multiplicity = 1

                         Standard orientation:
 ---------------------------------------------------------------------
 Center     Atomic      Atomic             Coordinates (Angstroms)
 Number     Number       Type             X           Y           Z
 ---------------------------------------------------------------------
      1          8           0        0.011143   -2.584063    0.000000
      2          1           0       -0.788640   -3.154899    0.000000
      3          1           0        0.810502   -3.155492    0.000000
      4          8           0        0.011143    2.586250    0.000000
      5          1           0        0.684193    3.302146    0.000000
      6          1           0       -0.884337    2.990751    0.000000
 ---------------------------------------------------------------------

 SCF Done:  E(RHF) =  -152.106304542     A.U. after   10 cycles
 E2 =    -0.5260014935D+00 EUMP2 =    -0.15263230603523D+03
 CCSD(T)
 CCSD(T)= -0.15265954808D+03

 The electronic state is 1-A'.
 Alpha  occ. eigenvalues --  -20.54983 -20.54964  -1.32276  -1.32257  -0.69686
 Alpha  occ. eigenvalues --   -0.69666  -0.55674  -0.55649  -0.49380  -0.49361
 Alpha virt. eigenvalues --    0.14456   0.14764   0.20576   0.20684   0.54827
 Alpha virt. eigenvalues --    0.54967   0.57693   0.57747   0.67846   0.69385
 Alpha virt. eigenvalues --    0.79491   0.79520   0.80923   0.80999   0.82763

 Mulliken charges:
               1
     1  O   -0.502375
     2  H    0.250744
     3  H    0.251631
     4  O   -0.502339
     5  H    0.250585
     6  H    0.251754
 Sum of Mulliken charges =  -0.00000

 Dipole moment (field-independent basis, Debye):
    X=             -0.3811    Y=             -0.0385    Z=              0.0000  Tot=              0.3831
 Quadrupole moment (field-independent basis, Debye-Ang):
   XX=             -7.8900   YY=              8.5018   ZZ=            -14.7100
   XY=             -0.6508   XZ=              0.0000   YZ=              0.0000

 Normal termination of Gaussian 16 at Fri Aug 26 21:37:26 2022.
