 Gaussian 16, Revision A.03,
 Gaussian 16:  ES64L-G16RevA.03 25-Dec-2016

 ------------------
 #p CCSD(T)/cc-pVTZ
 ------------------

 -----------
 H2O_H2O_826
 -----------
 Symbolic Z-matrix:
 Charge =  0 Multiplicity = 1

                         Standard orientation:
 ---------------------------------------------------------------------
 Center     Atomic      Atomic             Coordinates (Angstroms)
 Number     Number       Type             X           Y           Z
 ---------------------------------------------------------------------
      1          8           0        0.003735   -1.242232    0.000000
      2          1           0       -0.795983   -1.813157    0.000000
      3          1           0        0.803159   -1.813571    0.000000
      4          8           0        0.003735    1.242475    0.000000
      5          1           0        0.764402    1.864481    0.000000
      6          1           0       -0.831344    1.760305    0.000000
 ---------------------------------------------------------------------

 SCF Done:  E(RHF) =  -152.091542877     A.U. after   10 cycles
 E2 =    -0.5293024466D+00 EUMP2 =    -0.15262084532383D+03
 CCSD(T)
 CCSD(T)= -0.15264814462D+03

 The electronic state is 1-A'.
 Alpha  occ. eigenvalues --  -20.53025 -20.53018  -1.31008  -1.30084  -0.68279
 Alpha  occ. eigenvalues --   -0.67664  -0.57077  -0.49875  -0.48306  -0.46831
 Alpha virt. eigenvalues --    0.14514   0.17536   0.20577   0.22340   0.50345
 Alpha virt. eigenvalues --    0.58833   0.58913   0.63292   0.73251   0.76694
 Alpha virt. eigenvalues --    0.77084   0.79439   0.84021   0.84680   0.86517

 Mulliken charges:
               1
     1  O   -0.458681
     2  H    0.228424
     3  H    0.230203
     4  O   -0.458321
     5  H    0.228047
     6  H    0.230329
 Sum of Mulliken charges =  -0.00000

 Dipole moment (field-independent basis, Debye):
    X=             -0.1169    Y=             -0.0047    Z=              0.0000  Tot=              0.1170
 Quadrupole moment (field-independent basis, Debye-Ang):
   XX=             -7.9948   YY=             -2.9282   ZZ=            -14.7258
   XY=             -0.0523   XZ=              0.0000   YZ=              0.0000

 Normal termination of Gaussian 16 at Fri Aug 26 20:21:43 2022.
