 Gaussian 16, Revision A.03,
 Gaussian 16:  ES64L-G16RevA.03 25-Dec-2016

 ------------------
 #p CCSD(T)/cc-pVTZ
 ------------------

 ------------
 H2O_H2O_3125
 ------------
 Symbolic Z-matrix:
 Charge =  0 Multiplicity = 1

                         Standard orientation:
 ---------------------------------------------------------------------
 Center     Atomic      Atomic             Coordinates (Angstroms)
 Number     Number       Type             X           Y           Z
 ---------------------------------------------------------------------
      1          8           0        0.000000   -0.000000    2.465588
      2          1           0        0.000000    0.799571    3.036720
      3          1           0       -0.000000   -0.799571    3.036720
      4          8           0        0.000000   -0.000000   -2.465588
      5          1           0       -0.000000   -0.799571   -3.036720
      6          1           0        0.000000    0.799571   -3.036720
 ---------------------------------------------------------------------

 SCF Done:  E(RHF) =  -152.106100499     A.U. after   10 cycles
 E2 =    -0.5260316969D+00 EUMP2 =    -0.15263213219548D+03
 CCSD(T)
 CCSD(T)= -0.15265937768D+03

 The electronic state is 1-AG.
 Alpha  occ. eigenvalues --  -20.54901 -20.54901  -1.32194  -1.32193  -0.69605
 Alpha  occ. eigenvalues --   -0.69603  -0.55595  -0.55560  -0.49298  -0.49294
 Alpha virt. eigenvalues --    0.14443   0.14886   0.20605   0.20743   0.54851
 Alpha virt. eigenvalues --    0.55089   0.57743   0.57810   0.67338   0.70064
 Alpha virt. eigenvalues --    0.79554   0.79604   0.80989   0.81085   0.82670

 Mulliken charges:
               1
     1  O   -0.501169
     2  H    0.250585
     3  H    0.250585
     4  O   -0.501169
     5  H    0.250585
     6  H    0.250585
 Sum of Mulliken charges =  -0.00000

 Dipole moment (field-independent basis, Debye):
    X=             -0.0000    Y=              0.0000    Z=             -0.0000  Tot=              0.0000
 Quadrupole moment (field-independent basis, Debye-Ang):
   XX=            -14.7098   YY=             -7.8155   ZZ=              7.6562
   XY=              0.0000   XZ=              0.0000   YZ=             -0.0000

 9\MP4DQ=-152.6412512\MP4SDQ=-152.6443183\CCSD=-152.6437273\CCSD(T)=-15
 Normal termination of Gaussian 16 at Fri Aug 26 19:38:27 2022.
