 Gaussian 16, Revision A.03,
 Gaussian 16:  ES64L-G16RevA.03 25-Dec-2016

 ------------------
 #p CCSD(T)/cc-pVTZ
 ------------------

 ------------
 H2O_H2O_1370
 ------------
 Symbolic Z-matrix:
 Charge =  0 Multiplicity = 1

                         Standard orientation:
 ---------------------------------------------------------------------
 Center     Atomic      Atomic             Coordinates (Angstroms)
 Number     Number       Type             X           Y           Z
 ---------------------------------------------------------------------
      1          8           0        0.055299   -1.475783    0.000000
      2          1           0       -0.746055   -2.044411    0.000000
      3          1           0        0.853080   -2.049414    0.000000
      4          8           0        0.055299    1.560100    0.000000
      5          1           0       -0.286547    2.481320    0.000000
      6          1           0       -0.705266    0.937969    0.000000
 ---------------------------------------------------------------------

 SCF Done:  E(RHF) =  -152.107514279     A.U. after   10 cycles
 E2 =    -0.5273413225D+00 EUMP2 =    -0.15263485560121D+03
 CCSD(T)
 CCSD(T)= -0.15266198213D+03

 The electronic state is 1-A'.
 Alpha  occ. eigenvalues --  -20.55960 -20.53437  -1.33276  -1.30723  -0.70687
 Alpha  occ. eigenvalues --   -0.68195  -0.56608  -0.54154  -0.50391  -0.47844
 Alpha virt. eigenvalues --    0.13292   0.17097   0.19780   0.24255   0.53241
 Alpha virt. eigenvalues --    0.55774   0.56959   0.58515   0.68149   0.75300
 Alpha virt. eigenvalues --    0.76095   0.77201   0.80419   0.81975   0.84496

 Mulliken charges:
               1
     1  O   -0.488233
     2  H    0.241285
     3  H    0.256633
     4  O   -0.503312
     5  H    0.234195
     6  H    0.259431
 Sum of Mulliken charges =  -0.00000

 Dipole moment (field-independent basis, Debye):
    X=             -1.8066    Y=             -1.6424    Z=              0.0000  Tot=              2.4416
 Quadrupole moment (field-independent basis, Debye-Ang):
   XX=             -9.7362   YY=             -2.7633   ZZ=            -14.7232
   XY=             -2.6862   XZ=              0.0000   YZ=              0.0000

 Normal termination of Gaussian 16 at Sat Aug 27 04:18:09 2022.
