 Gaussian 16, Revision A.03,
 Gaussian 16:  ES64L-G16RevA.03 25-Dec-2016

 ------------------
 #p CCSD(T)/cc-pVTZ
 ------------------

 ------------
 H2O_H2O_2647
 ------------
 Symbolic Z-matrix:
 Charge =  0 Multiplicity = 1

                         Standard orientation:
 ---------------------------------------------------------------------
 Center     Atomic      Atomic             Coordinates (Angstroms)
 Number     Number       Type             X           Y           Z
 ---------------------------------------------------------------------
      1          8           0        0.056735   -2.145867    0.000000
      2          1           0       -0.744102   -2.715223    0.000000
      3          1           0        0.855036   -2.718773    0.000000
      4          8           0        0.056735    2.244932    0.000000
      5          1           0       -0.403220    3.113235    0.000000
      6          1           0       -0.615469    1.528240    0.000000
 ---------------------------------------------------------------------

 SCF Done:  E(RHF) =  -152.108137971     A.U. after   10 cycles
 E2 =    -0.5260242202D+00 EUMP2 =    -0.15263416219147D+03
 CCSD(T)
 CCSD(T)= -0.15266134497D+03

 The electronic state is 1-A'.
 Alpha  occ. eigenvalues --  -20.55884 -20.54559  -1.33169  -1.31858  -0.70575
 Alpha  occ. eigenvalues --   -0.69235  -0.56634  -0.55316  -0.50286  -0.48980
 Alpha virt. eigenvalues --    0.13147   0.15647   0.19915   0.21948   0.53986
 Alpha virt. eigenvalues --    0.54756   0.56991   0.58246   0.66449   0.71915
 Alpha virt. eigenvalues --    0.78598   0.79486   0.79881   0.80830   0.82567

 Mulliken charges:
               1
     1  O   -0.508571
     2  H    0.251782
     3  H    0.258320
     4  O   -0.511181
     5  H    0.248299
     6  H    0.261350
 Sum of Mulliken charges =  -0.00000

 Dipole moment (field-independent basis, Debye):
    X=             -1.9293    Y=             -1.7887    Z=              0.0000  Tot=              2.6309
 Quadrupole moment (field-independent basis, Debye-Ang):
   XX=             -9.8257   YY=             -0.2015   ZZ=            -14.7153
   XY=             -4.2943   XZ=              0.0000   YZ=              0.0000

 Normal termination of Gaussian 16 at Fri Aug 26 14:42:23 2022.
