 Gaussian 16, Revision A.03,
 Gaussian 16:  ES64L-G16RevA.03 25-Dec-2016

 ------------------
 #p CCSD(T)/cc-pVTZ
 ------------------

 ------------
 H2O_H2O_1065
 ------------
 Symbolic Z-matrix:
 Charge =  0 Multiplicity = 1

                         Standard orientation:
 ---------------------------------------------------------------------
 Center     Atomic      Atomic             Coordinates (Angstroms)
 Number     Number       Type             X           Y           Z
 ---------------------------------------------------------------------
      1          8           0        0.047564   -1.334608    0.000000
      2          1           0       -0.753720   -1.903334    0.000000
      3          1           0        0.845414   -1.908141    0.000000
      4          8           0        0.047564    1.385088    0.000000
      5          1           0        0.019856    2.367299    0.000000
      6          1           0       -0.872574    1.040338    0.000000
 ---------------------------------------------------------------------

 SCF Done:  E(RHF) =  -152.102270737     A.U. after   11 cycles
 E2 =    -0.5282188307D+00 EUMP2 =    -0.15263048956766D+03
 CCSD(T)
 CCSD(T)= -0.15265768762D+03

 The electronic state is 1-A'.
 Alpha  occ. eigenvalues --  -20.54890 -20.53282  -1.32329  -1.30523  -0.69744
 Alpha  occ. eigenvalues --   -0.68073  -0.56131  -0.53082  -0.49470  -0.47560
 Alpha virt. eigenvalues --    0.13808   0.17203   0.20087   0.23334   0.53559
 Alpha virt. eigenvalues --    0.57625   0.58214   0.58608   0.69818   0.75917
 Alpha virt. eigenvalues --    0.76383   0.77340   0.82070   0.82907   0.85232

 Mulliken charges:
               1
     1  O   -0.476459
     2  H    0.232574
     3  H    0.249224
     4  O   -0.475700
     5  H    0.222014
     6  H    0.248347
 Sum of Mulliken charges =  -0.00000

 Dipole moment (field-independent basis, Debye):
    X=             -1.5182    Y=             -0.9839    Z=              0.0000  Tot=              1.8091
 Quadrupole moment (field-independent basis, Debye-Ang):
   XX=             -9.2892   YY=             -2.6545   ZZ=            -14.7215
   XY=             -1.5603   XZ=              0.0000   YZ=              0.0000

 Normal termination of Gaussian 16 at Sat Aug 27 01:48:05 2022.
