 Gaussian 16, Revision A.03,
 Gaussian 16:  ES64L-G16RevA.03 25-Dec-2016

 ------------------
 #p CCSD(T)/cc-pVTZ
 ------------------

 ------------
 H2O_H2O_3170
 ------------
 Symbolic Z-matrix:
 Charge =  0 Multiplicity = 1

                         Standard orientation:
 ---------------------------------------------------------------------
 Center     Atomic      Atomic             Coordinates (Angstroms)
 Number     Number       Type             X           Y           Z
 ---------------------------------------------------------------------
      1          8           0        0.055248   -2.433019    0.000000
      2          1           0       -0.745417   -3.002616    0.000000
      3          1           0        0.853722   -3.005684    0.000000
      4          8           0        0.055248    2.517469    0.000000
      5          1           0       -0.287713    3.438275    0.000000
      6          1           0       -0.704564    1.894419    0.000000
 ---------------------------------------------------------------------

 SCF Done:  E(RHF) =  -152.107570708     A.U. after   10 cycles
 E2 =    -0.5259343893D+00 EUMP2 =    -0.15263350509759D+03
 CCSD(T)
 CCSD(T)= -0.15266071470D+03

 The electronic state is 1-A'.
 Alpha  occ. eigenvalues --  -20.55661 -20.54822  -1.32956  -1.32118  -0.70363
 Alpha  occ. eigenvalues --   -0.69507  -0.56408  -0.55564  -0.50069  -0.49234
 Alpha virt. eigenvalues --    0.13628   0.15126   0.20065   0.21160   0.54123
 Alpha virt. eigenvalues --    0.54919   0.57139   0.57868   0.66934   0.69920
 Alpha virt. eigenvalues --    0.78817   0.79628   0.80029   0.80625   0.82783

 Mulliken charges:
               1
     1  O   -0.509227
     2  H    0.252328
     3  H    0.257166
     4  O   -0.508958
     5  H    0.249783
     6  H    0.258909
 Sum of Mulliken charges =  -0.00000

 Dipole moment (field-independent basis, Debye):
    X=             -1.8886    Y=             -1.4989    Z=              0.0000  Tot=              2.4111
 Quadrupole moment (field-independent basis, Debye-Ang):
   XX=             -9.7227   YY=              2.2459   ZZ=            -14.7131
   XY=             -4.4505   XZ=              0.0000   YZ=              0.0000

 Normal termination of Gaussian 16 at Fri Aug 26 20:04:33 2022.
