 Gaussian 16, Revision A.03,
 Gaussian 16:  ES64L-G16RevA.03 25-Dec-2016

 ------------------
 #p CCSD(T)/cc-pVTZ
 ------------------

 ------------
 H2O_H2O_1338
 ------------
 Symbolic Z-matrix:
 Charge =  0 Multiplicity = 1

                         Standard orientation:
 ---------------------------------------------------------------------
 Center     Atomic      Atomic             Coordinates (Angstroms)
 Number     Number       Type             X           Y           Z
 ---------------------------------------------------------------------
      1          8           0        0.042988   -1.487262    0.000000
      2          1           0       -0.757982   -2.056430    0.000000
      3          1           0        0.841155   -2.060354    0.000000
      4          8           0        0.042988    1.525963    0.000000
      5          1           0        0.143180    2.503443    0.000000
      6          1           0       -0.914155    1.303733    0.000000
 ---------------------------------------------------------------------

 SCF Done:  E(RHF) =  -152.104046238     A.U. after   10 cycles
 E2 =    -0.5273531639D+00 EUMP2 =    -0.15263139940214D+03
 CCSD(T)
 CCSD(T)= -0.15265862046D+03

 The electronic state is 1-A'.
 Alpha  occ. eigenvalues --  -20.54761 -20.53736  -1.32080  -1.30986  -0.69505
 Alpha  occ. eigenvalues --   -0.68403  -0.55834  -0.53752  -0.49208  -0.48056
 Alpha virt. eigenvalues --    0.13899   0.16778   0.20231   0.22623   0.53658
 Alpha virt. eigenvalues --    0.57085   0.57817   0.58576   0.66535   0.76161
 Alpha virt. eigenvalues --    0.77248   0.77393   0.80032   0.82415   0.85416

 Mulliken charges:
               1
     1  O   -0.481068
     2  H    0.235543
     3  H    0.248255
     4  O   -0.480319
     5  H    0.229668
     6  H    0.247920
 Sum of Mulliken charges =  -0.00000

 Dipole moment (field-independent basis, Debye):
    X=             -1.4017    Y=             -0.7381    Z=              0.0000  Tot=              1.5842
 Quadrupole moment (field-independent basis, Debye-Ang):
   XX=             -9.0190   YY=             -1.2266   ZZ=            -14.7156
   XY=             -1.4550   XZ=              0.0000   YZ=              0.0000

 Normal termination of Gaussian 16 at Sat Aug 27 04:04:13 2022.
