 Gaussian 16, Revision A.03,
 Gaussian 16:  ES64L-G16RevA.03 25-Dec-2016

 ------------------
 #p CCSD(T)/cc-pVTZ
 ------------------

 ------------
 H2O_H2O_4948
 ------------
 Symbolic Z-matrix:
 Charge =  0 Multiplicity = 1

                         Standard orientation:
 ---------------------------------------------------------------------
 Center     Atomic      Atomic             Coordinates (Angstroms)
 Number     Number       Type             X           Y           Z
 ---------------------------------------------------------------------
      1          8           0        0.057068   -3.365006    0.000000
      2          1           0       -0.743322   -3.934989    0.000000
      3          1           0        0.855818   -3.937284    0.000000
      4          8           0        0.057068    3.471598    0.000000
      5          1           0       -0.459348    4.307553    0.000000
      6          1           0       -0.566227    2.711985    0.000000
 ---------------------------------------------------------------------

 SCF Done:  E(RHF) =  -152.107612663     A.U. after   10 cycles
 E2 =    -0.5258554736D+00 EUMP2 =    -0.15263346813665D+03
 CCSD(T)
 CCSD(T)= -0.15266068428D+03

 The electronic state is 1-A'.
 Alpha  occ. eigenvalues --  -20.55733 -20.55216  -1.33032  -1.32515  -0.70438
 Alpha  occ. eigenvalues --   -0.69916  -0.56489  -0.55968  -0.50146  -0.49630
 Alpha virt. eigenvalues --    0.13960   0.14478   0.20046   0.20593   0.54121
 Alpha virt. eigenvalues --    0.54654   0.57058   0.57574   0.67682   0.68221
 Alpha virt. eigenvalues --    0.78734   0.79243   0.80161   0.80705   0.82086

 Mulliken charges:
               1
     1  O   -0.510093
     2  H    0.254111
     3  H    0.255983
     4  O   -0.509821
     5  H    0.252881
     6  H    0.256940
 Sum of Mulliken charges =  -0.00000

 Dipole moment (field-independent basis, Debye):
    X=             -1.9635    Y=             -1.8580    Z=              0.0000  Tot=              2.7033
 Quadrupole moment (field-independent basis, Debye-Ang):
   XX=             -9.8555   YY=              4.4499   ZZ=            -14.7125
   XY=             -6.8295   XZ=              0.0000   YZ=              0.0000

 Normal termination of Gaussian 16 at Sat Aug 27 10:17:01 2022.
