 Gaussian 16, Revision A.03,
 Gaussian 16:  ES64L-G16RevA.03 25-Dec-2016

 ------------------
 #p CCSD(T)/cc-pVTZ
 ------------------

 ------------
 H2O_H2O_4205
 ------------
 Symbolic Z-matrix:
 Charge =  0 Multiplicity = 1

                         Standard orientation:
 ---------------------------------------------------------------------
 Center     Atomic      Atomic             Coordinates (Angstroms)
 Number     Number       Type             X           Y           Z
 ---------------------------------------------------------------------
      1          8           0        0.018360   -3.034030    0.000000
      2          1           0       -0.781508   -3.604746    0.000000
      3          1           0        0.817634   -3.605578    0.000000
      4          8           0        0.018360    3.040073    0.000000
      5          1           0        0.592329    3.837610    0.000000
      6          1           0       -0.922214    3.324370    0.000000
 ---------------------------------------------------------------------

 SCF Done:  E(RHF) =  -152.106782096     A.U. after   10 cycles
 E2 =    -0.5259368308D+00 EUMP2 =    -0.15263271892711D+03
 CCSD(T)
 CCSD(T)= -0.15265995220D+03

 The electronic state is 1-A'.
 Alpha  occ. eigenvalues --  -20.55185 -20.55147  -1.32480  -1.32442  -0.69888
 Alpha  occ. eigenvalues --   -0.69849  -0.55899  -0.55861  -0.49587  -0.49549
 Alpha virt. eigenvalues --    0.14427   0.14492   0.20479   0.20526   0.54680
 Alpha virt. eigenvalues --    0.54724   0.57544   0.57584   0.68294   0.68425
 Alpha virt. eigenvalues --    0.79291   0.79329   0.80736   0.80778   0.82666

 Mulliken charges:
               1
     1  O   -0.505176
     2  H    0.252123
     3  H    0.253054
     4  O   -0.505133
     5  H    0.251911
     6  H    0.253223
 Sum of Mulliken charges =  -0.00000

 Dipole moment (field-independent basis, Debye):
    X=             -0.6304    Y=             -0.1056    Z=              0.0000  Tot=              0.6392
 Quadrupole moment (field-independent basis, Debye-Ang):
   XX=             -8.0163   YY=             11.8225   ZZ=            -14.7106
   XY=             -1.3760   XZ=              0.0000   YZ=              0.0000

 Normal termination of Gaussian 16 at Sat Aug 27 05:59:00 2022.
