 Gaussian 16, Revision A.03,
 Gaussian 16:  ES64L-G16RevA.03 25-Dec-2016

 ------------------
 #p CCSD(T)/cc-pVTZ
 ------------------

 -----------
 H2O_H2O_596
 -----------
 Symbolic Z-matrix:
 Charge =  0 Multiplicity = 1

                         Standard orientation:
 ---------------------------------------------------------------------
 Center     Atomic      Atomic             Coordinates (Angstroms)
 Number     Number       Type             X           Y           Z
 ---------------------------------------------------------------------
      1          8           0        0.056216   -1.059732    0.000000
      2          1           0       -0.745839   -1.627371    0.000000
      3          1           0        0.853288   -1.634346    0.000000
      4          8           0        0.056216    1.151184    0.000000
      5          1           0       -0.344043    2.048569    0.000000
      6          1           0       -0.662859    0.481528    0.000000
 ---------------------------------------------------------------------

 SCF Done:  E(RHF) =  -152.081949800     A.U. after   11 cycles
 E2 =    -0.5332802787D+00 EUMP2 =    -0.15261523007830D+03
 CCSD(T)
 CCSD(T)= -0.15264195805D+03

 The electronic state is 1-A'.
 Alpha  occ. eigenvalues --  -20.56117 -20.51126  -1.34861  -1.28640  -0.72255
 Alpha  occ. eigenvalues --   -0.69100  -0.54395  -0.52034  -0.51632  -0.45623
 Alpha virt. eigenvalues --    0.13187   0.18572   0.19405   0.25990   0.50602
 Alpha virt. eigenvalues --    0.55896   0.61249   0.63507   0.71918   0.74162
 Alpha virt. eigenvalues --    0.77934   0.82181   0.83753   0.84671   0.87339

 Mulliken charges:
               1
     1  O   -0.427718
     2  H    0.216996
     3  H    0.242916
     4  O   -0.490986
     5  H    0.200430
     6  H    0.258362
 Sum of Mulliken charges =  -0.00000

 Dipole moment (field-independent basis, Debye):
    X=             -1.6907    Y=             -2.0035    Z=              0.0000  Tot=              2.6215
 Quadrupole moment (field-independent basis, Debye-Ang):
   XX=             -9.8027   YY=             -5.7869   ZZ=            -14.6945
   XY=             -2.0912   XZ=              0.0000   YZ=              0.0000

 Normal termination of Gaussian 16 at Fri Aug 26 17:59:18 2022.
