 Gaussian 16, Revision A.03,
 Gaussian 16:  ES64L-G16RevA.03 25-Dec-2016

 ------------------
 #p CCSD(T)/cc-pVTZ
 ------------------

 ------------
 H2O_H2O_1566
 ------------
 Symbolic Z-matrix:
 Charge =  0 Multiplicity = 1

                         Standard orientation:
 ---------------------------------------------------------------------
 Center     Atomic      Atomic             Coordinates (Angstroms)
 Number     Number       Type             X           Y           Z
 ---------------------------------------------------------------------
      1          8           0        0.049536   -1.597066    0.000000
      2          1           0       -0.751528   -2.166101    0.000000
      3          1           0        0.847608   -2.170290    0.000000
      4          8           0        0.049536    1.653920    0.000000
      5          1           0       -0.042731    2.632180    0.000000
      6          1           0       -0.845927    1.249381    0.000000
 ---------------------------------------------------------------------

 SCF Done:  E(RHF) =  -152.106178609     A.U. after   10 cycles
 E2 =    -0.5269043034D+00 EUMP2 =    -0.15263308291274D+03
 CCSD(T)
 CCSD(T)= -0.15266026763D+03

 The electronic state is 1-A'.
 Alpha  occ. eigenvalues --  -20.55282 -20.53892  -1.32567  -1.31153  -0.69988
 Alpha  occ. eigenvalues --   -0.68540  -0.56010  -0.54412  -0.49681  -0.48263
 Alpha virt. eigenvalues --    0.13611   0.16618   0.20076   0.22838   0.54217
 Alpha virt. eigenvalues --    0.55075   0.57440   0.58453   0.65373   0.76348
 Alpha virt. eigenvalues --    0.77691   0.77764   0.78827   0.81638   0.85033

 Mulliken charges:
               1
     1  O   -0.488470
     2  H    0.240155
     3  H    0.252358
     4  O   -0.493979
     5  H    0.235630
     6  H    0.254306
 Sum of Mulliken charges =   0.00000

 Dipole moment (field-independent basis, Debye):
    X=             -1.6349    Y=             -1.0768    Z=              0.0000  Tot=              1.9576
 Quadrupole moment (field-independent basis, Debye-Ang):
   XX=             -9.3703   YY=             -0.9849   ZZ=            -14.7164
   XY=             -2.1510   XZ=              0.0000   YZ=              0.0000

 Normal termination of Gaussian 16 at Sat Aug 27 05:30:27 2022.
