 Gaussian 16, Revision A.03,
 Gaussian 16:  ES64L-G16RevA.03 25-Dec-2016

 ------------------
 #p CCSD(T)/cc-pVTZ
 ------------------

 ------------
 H2O_H2O_1136
 ------------
 Symbolic Z-matrix:
 Charge =  0 Multiplicity = 1

                         Standard orientation:
 ---------------------------------------------------------------------
 Center     Atomic      Atomic             Coordinates (Angstroms)
 Number     Number       Type             X           Y           Z
 ---------------------------------------------------------------------
      1          8           0        0.037690   -1.386613    0.000000
      2          1           0       -0.763200   -1.955893    0.000000
      3          1           0        0.835937   -1.959593    0.000000
      4          8           0        0.037690    1.414785    0.000000
      5          1           0        0.264479    2.370856    0.000000
      6          1           0       -0.940258    1.319253    0.000000
 ---------------------------------------------------------------------

 SCF Done:  E(RHF) =  -152.101423330     A.U. after   11 cycles
 E2 =    -0.5279107108D+00 EUMP2 =    -0.15262933404107D+03
 CCSD(T)
 CCSD(T)= -0.15265658471D+03

 The electronic state is 1-A'.
 Alpha  occ. eigenvalues --  -20.54319 -20.53520  -1.31721  -1.30762  -0.69136
 Alpha  occ. eigenvalues --   -0.68224  -0.56009  -0.52808  -0.48892  -0.47758
 Alpha virt. eigenvalues --    0.14088   0.16981   0.20329   0.22613   0.53068
 Alpha virt. eigenvalues --    0.58090   0.58357   0.59335   0.68559   0.76441
 Alpha virt. eigenvalues --    0.76756   0.77196   0.81404   0.83050   0.85712

 Mulliken charges:
               1
     1  O   -0.475383
     2  H    0.231735
     3  H    0.244928
     4  O   -0.468430
     5  H    0.224260
     6  H    0.242890
 Sum of Mulliken charges =  -0.00000

 Dipole moment (field-independent basis, Debye):
    X=             -1.2121    Y=             -0.5408    Z=              0.0000  Tot=              1.3273
 Quadrupole moment (field-independent basis, Debye-Ang):
   XX=             -8.7823   YY=             -1.8131   ZZ=            -14.7170
   XY=             -1.0240   XZ=              0.0000   YZ=              0.0000

 45834\MP4DQ=-152.6381183\MP4SDQ=-152.6412939\CCSD=-152.64066\CCSD(T)=-
 Normal termination of Gaussian 16 at Sat Aug 27 02:24:19 2022.
