 Gaussian 16, Revision A.03,
 Gaussian 16:  ES64L-G16RevA.03 25-Dec-2016

 ------------------
 #p CCSD(T)/cc-pVTZ
 ------------------

 ------------
 H2O_H2O_2570
 ------------
 Symbolic Z-matrix:
 Charge =  0 Multiplicity = 1

                         Standard orientation:
 ---------------------------------------------------------------------
 Center     Atomic      Atomic             Coordinates (Angstroms)
 Number     Number       Type             X           Y           Z
 ---------------------------------------------------------------------
      1          8           0        0.055260   -2.113933    0.000000
      2          1           0       -0.745567   -2.683303    0.000000
      3          1           0        0.853571   -2.686825    0.000000
      4          8           0        0.055260    2.198352    0.000000
      5          1           0       -0.287439    3.119256    0.000000
      6          1           0       -0.704728    1.575519    0.000000
 ---------------------------------------------------------------------

 SCF Done:  E(RHF) =  -152.107746633     A.U. after   10 cycles
 E2 =    -0.5260593828D+00 EUMP2 =    -0.15263380601572D+03
 CCSD(T)
 CCSD(T)= -0.15266099750D+03

 The electronic state is 1-A'.
 Alpha  occ. eigenvalues --  -20.55718 -20.54552  -1.33003  -1.31846  -0.70411
 Alpha  occ. eigenvalues --   -0.69224  -0.56450  -0.55292  -0.50117  -0.48965
 Alpha virt. eigenvalues --    0.13273   0.15660   0.19999   0.21847   0.54053
 Alpha virt. eigenvalues --    0.54679   0.57126   0.58225   0.66169   0.72705
 Alpha virt. eigenvalues --    0.78752   0.79609   0.79910   0.81529   0.82425

 Mulliken charges:
               1
     1  O   -0.506851
     2  H    0.250651
     3  H    0.257530
     4  O   -0.509101
     5  H    0.247547
     6  H    0.260224
 Sum of Mulliken charges =  -0.00000

 Dipole moment (field-independent basis, Debye):
    X=             -1.8768    Y=             -1.5256    Z=              0.0000  Tot=              2.4186
 Quadrupole moment (field-independent basis, Debye-Ang):
   XX=             -9.7229   YY=              0.6300   ZZ=            -14.7145
   XY=             -3.8564   XZ=              0.0000   YZ=              0.0000

 Normal termination of Gaussian 16 at Fri Aug 26 13:51:06 2022.
