 Gaussian 16, Revision A.03,
 Gaussian 16:  ES64L-G16RevA.03 25-Dec-2016

 ------------------
 #p CCSD(T)/cc-pVTZ
 ------------------

 ------------
 H2O_H2O_4832
 ------------
 Symbolic Z-matrix:
 Charge =  0 Multiplicity = 1

                         Standard orientation:
 ---------------------------------------------------------------------
 Center     Atomic      Atomic             Coordinates (Angstroms)
 Number     Number       Type             X           Y           Z
 ---------------------------------------------------------------------
      1          8           0        0.025264   -3.363330    0.000000
      2          1           0       -0.774675   -3.933945    0.000000
      3          1           0        0.824467   -3.934977    0.000000
      4          8           0        0.025264    3.375077    0.000000
      5          1           0        0.490331    4.240651    0.000000
      6          1           0       -0.944352    3.534294    0.000000
 ---------------------------------------------------------------------

 SCF Done:  E(RHF) =  -152.107006406     A.U. after   10 cycles
 E2 =    -0.5259099795D+00 EUMP2 =    -0.15263291638570D+03
 CCSD(T)
 CCSD(T)= -0.15266014533D+03

 The electronic state is 1-A'.
 Alpha  occ. eigenvalues --  -20.55299 -20.55240  -1.32596  -1.32536  -0.70002
 Alpha  occ. eigenvalues --   -0.69942  -0.56025  -0.55965  -0.49704  -0.49645
 Alpha virt. eigenvalues --    0.14344   0.14405   0.20399   0.20461   0.54565
 Alpha virt. eigenvalues --    0.54629   0.57447   0.57507   0.68195   0.68257
 Alpha virt. eigenvalues --    0.79175   0.79234   0.80615   0.80680   0.82540

 Mulliken charges:
               1
     1  O   -0.506496
     2  H    0.252772
     3  H    0.253725
     4  O   -0.506448
     5  H    0.252520
     6  H    0.253928
 Sum of Mulliken charges =  -0.00000

 Dipole moment (field-independent basis, Debye):
    X=             -0.8688    Y=             -0.2047    Z=              0.0000  Tot=              0.8926
 Quadrupole moment (field-independent basis, Debye-Ang):
   XX=             -8.2031   YY=             13.9182   ZZ=            -14.7110
   XY=             -2.2251   XZ=              0.0000   YZ=              0.0000

 Normal termination of Gaussian 16 at Sat Aug 27 09:35:11 2022.
