 Gaussian 16, Revision A.03,
 Gaussian 16:  ES64L-G16RevA.03 25-Dec-2016

 ------------------
 #p CCSD(T)/cc-pVTZ
 ------------------

 -----------
 H2O_H2O_187
 -----------
 Symbolic Z-matrix:
 Charge =  0 Multiplicity = 1

                         Standard orientation:
 ---------------------------------------------------------------------
 Center     Atomic      Atomic             Coordinates (Angstroms)
 Number     Number       Type             X           Y           Z
 ---------------------------------------------------------------------
      1          8           0        0.040450   -0.878666    0.000000
      2          1           0       -0.761333   -1.446688    0.000000
      3          1           0        0.837797   -1.452898    0.000000
      4          8           0        0.040450    0.911808    0.000000
      5          1           0        0.205743    1.880407    0.000000
      6          1           0       -0.929404    0.754042    0.000000
 ---------------------------------------------------------------------

 SCF Done:  E(RHF) =  -152.004777503     A.U. after   11 cycles
 E2 =    -0.5416043245D+00 EUMP2 =    -0.15254638182766D+03
 CCSD(T)
 CCSD(T)= -0.15257243583D+03

 The electronic state is 1-A'.
 Alpha  occ. eigenvalues --  -20.52586 -20.51430  -1.34964  -1.27524  -0.71631
 Alpha  occ. eigenvalues --   -0.68420  -0.59561  -0.51430  -0.44129  -0.41293
 Alpha virt. eigenvalues --    0.14176   0.18709   0.19898   0.23720   0.53483
 Alpha virt. eigenvalues --    0.56561   0.58585   0.64891   0.72408   0.77437
 Alpha virt. eigenvalues --    0.80373   0.82174   0.82981   0.84728   0.88710

 Mulliken charges:
               1
     1  O   -0.393349
     2  H    0.185068
     3  H    0.209106
     4  O   -0.372969
     5  H    0.140902
     6  H    0.231242
 Sum of Mulliken charges =  -0.00000

 Dipole moment (field-independent basis, Debye):
    X=             -1.1171    Y=             -0.7301    Z=              0.0000  Tot=              1.3345
 Quadrupole moment (field-independent basis, Debye-Ang):
   XX=             -9.0990   YY=             -7.3534   ZZ=            -14.6950
   XY=             -0.5916   XZ=              0.0000   YZ=              0.0000

 Normal termination of Gaussian 16 at Fri Aug 26 13:47:19 2022.
