 Gaussian 16, Revision A.03,
 Gaussian 16:  ES64L-G16RevA.03 25-Dec-2016

 ------------------
 #p CCSD(T)/cc-pVTZ
 ------------------

 ------------
 H2O_H2O_3894
 ------------
 Symbolic Z-matrix:
 Charge =  0 Multiplicity = 1

                         Standard orientation:
 ---------------------------------------------------------------------
 Center     Atomic      Atomic             Coordinates (Angstroms)
 Number     Number       Type             X           Y           Z
 ---------------------------------------------------------------------
      1          8           0        0.054145   -2.822466    0.000000
      2          1           0       -0.746354   -3.392296    0.000000
      3          1           0        0.852786   -3.394898    0.000000
      4          8           0        0.054145    2.899800    0.000000
      5          1           0       -0.228133    3.840982    0.000000
      6          1           0       -0.744623    2.327544    0.000000
 ---------------------------------------------------------------------

 SCF Done:  E(RHF) =  -152.107417091     A.U. after   10 cycles
 E2 =    -0.5258925964D+00 EUMP2 =    -0.15263330968707D+03
 CCSD(T)
 CCSD(T)= -0.15266052853D+03

 The electronic state is 1-A'.
 Alpha  occ. eigenvalues --  -20.55594 -20.55040  -1.32893  -1.32337  -0.70299
 Alpha  occ. eigenvalues --   -0.69734  -0.56340  -0.55781  -0.50004  -0.49451
 Alpha virt. eigenvalues --    0.14004   0.14691   0.20146   0.20772   0.54254
 Alpha virt. eigenvalues --    0.54838   0.57180   0.57728   0.67676   0.68600
 Alpha virt. eigenvalues --    0.78877   0.79420   0.80302   0.80812   0.82380

 Mulliken charges:
               1
     1  O   -0.508958
     2  H    0.252904
     3  H    0.256068
     4  O   -0.508553
     5  H    0.251313
     6  H    0.257225
 Sum of Mulliken charges =  -0.00000

 Dipole moment (field-independent basis, Debye):
    X=             -1.8580    Y=             -1.3572    Z=              0.0000  Tot=              2.3009
 Quadrupole moment (field-independent basis, Debye-Ang):
   XX=             -9.6482   YY=              4.8445   ZZ=            -14.7122
   XY=             -4.9501   XZ=              0.0000   YZ=              0.0000

 Normal termination of Gaussian 16 at Sat Aug 27 04:07:30 2022.
