 Gaussian 16, Revision A.03,
 Gaussian 16:  ES64L-G16RevA.03 25-Dec-2016

 ------------------
 #p CCSD(T)/cc-pVTZ
 ------------------

 ------------
 H2O_H2O_3790
 ------------
 Symbolic Z-matrix:
 Charge =  0 Multiplicity = 1

                         Standard orientation:
 ---------------------------------------------------------------------
 Center     Atomic      Atomic             Coordinates (Angstroms)
 Number     Number       Type             X           Y           Z
 ---------------------------------------------------------------------
      1          8           0        0.047525   -2.783785    0.000000
      2          1           0       -0.752877   -3.353753    0.000000
      3          1           0        0.846264   -3.356080    0.000000
      4          8           0        0.047525    2.834413    0.000000
      5          1           0        0.018293    3.816579    0.000000
      6          1           0       -0.872077    2.488236    0.000000
 ---------------------------------------------------------------------

 SCF Done:  E(RHF) =  -152.107101906     A.U. after   10 cycles
 E2 =    -0.5259213474D+00 EUMP2 =    -0.15263302325311D+03
 CCSD(T)
 CCSD(T)= -0.15266024886D+03

 The electronic state is 1-A'.
 Alpha  occ. eigenvalues --  -20.55412 -20.55036  -1.32709  -1.32331  -0.70116
 Alpha  occ. eigenvalues --   -0.69730  -0.56142  -0.55764  -0.49818  -0.49442
 Alpha virt. eigenvalues --    0.14168   0.14671   0.20283   0.20716   0.54438
 Alpha virt. eigenvalues --    0.54851   0.57339   0.57715   0.67880   0.68661
 Alpha virt. eigenvalues --    0.79061   0.79430   0.80494   0.80876   0.82485

 Mulliken charges:
               1
     1  O   -0.507100
     2  H    0.252057
     3  H    0.255050
     4  O   -0.506771
     5  H    0.250905
     6  H    0.255859
 Sum of Mulliken charges =  -0.00000

 Dipole moment (field-independent basis, Debye):
    X=             -1.6298    Y=             -0.8886    Z=              0.0000  Tot=              1.8563
 Quadrupole moment (field-independent basis, Debye-Ang):
   XX=             -9.2249   YY=              6.8071   ZZ=            -14.7115
   XY=             -3.8612   XZ=              0.0000   YZ=              0.0000

 Normal termination of Gaussian 16 at Sat Aug 27 03:20:44 2022.
