 Gaussian 16, Revision A.03,
 Gaussian 16:  ES64L-G16RevA.03 25-Dec-2016

 ------------------
 #p CCSD(T)/cc-pVTZ
 ------------------

 ------------
 H2O_H2O_4815
 ------------
 Symbolic Z-matrix:
 Charge =  0 Multiplicity = 1

                         Standard orientation:
 ---------------------------------------------------------------------
 Center     Atomic      Atomic             Coordinates (Angstroms)
 Number     Number       Type             X           Y           Z
 ---------------------------------------------------------------------
      1          8           0        0.047519   -3.328906    0.000000
      2          1           0       -0.752748   -3.899063    0.000000
      3          1           0        0.846393   -3.901012    0.000000
      4          8           0        0.047519    3.379556    0.000000
      5          1           0        0.018055    4.361716    0.000000
      6          1           0       -0.872001    3.033161    0.000000
 ---------------------------------------------------------------------

 SCF Done:  E(RHF) =  -152.107255702     A.U. after   10 cycles
 E2 =    -0.5258889544D+00 EUMP2 =    -0.15263314465620D+03
 CCSD(T)
 CCSD(T)= -0.15266036824D+03

 The electronic state is 1-A'.
 Alpha  occ. eigenvalues --  -20.55481 -20.55222  -1.32779  -1.32519  -0.70185
 Alpha  occ. eigenvalues --   -0.69921  -0.56219  -0.55959  -0.49889  -0.49630
 Alpha virt. eigenvalues --    0.14183   0.14443   0.20250   0.20522   0.54379
 Alpha virt. eigenvalues --    0.54653   0.57284   0.57543   0.67981   0.68247
 Alpha virt. eigenvalues --    0.78990   0.79246   0.80425   0.80702   0.82349

 Mulliken charges:
               1
     1  O   -0.507979
     2  H    0.253096
     3  H    0.254883
     4  O   -0.507821
     5  H    0.252390
     6  H    0.255431
 Sum of Mulliken charges =  -0.00000

 Dipole moment (field-independent basis, Debye):
    X=             -1.6344    Y=             -0.8830    Z=              0.0000  Tot=              1.8577
 Quadrupole moment (field-independent basis, Debye-Ang):
   XX=             -9.2243   YY=             10.2020   ZZ=            -14.7116
   XY=             -4.7444   XZ=              0.0000   YZ=              0.0000

 Normal termination of Gaussian 16 at Sat Aug 27 09:29:17 2022.
