 Gaussian 16, Revision A.03,
 Gaussian 16:  ES64L-G16RevA.03 25-Dec-2016

 ------------------
 #p CCSD(T)/cc-pVTZ
 ------------------

 ------------
 H2O_H2O_3925
 ------------
 Symbolic Z-matrix:
 Charge =  0 Multiplicity = 1

                         Standard orientation:
 ---------------------------------------------------------------------
 Center     Atomic      Atomic             Coordinates (Angstroms)
 Number     Number       Type             X           Y           Z
 ---------------------------------------------------------------------
      1          8           0        0.000000    0.000000   -2.891057
      2          1           0        0.000000    0.799571   -3.462189
      3          1           0       -0.000000   -0.799571   -3.462189
      4          8           0       -0.000000    0.000000    2.891057
      5          1           0       -0.000000   -0.799571    3.462189
      6          1           0       -0.000000    0.799571    3.462189
 ---------------------------------------------------------------------

 SCF Done:  E(RHF) =  -152.106611309     A.U. after   10 cycles
 E2 =    -0.5259564299D+00 EUMP2 =    -0.15263256773888D+03
 CCSD(T)
 CCSD(T)= -0.15265980437D+03

 The electronic state is 1-AG.
 Alpha  occ. eigenvalues --  -20.55099 -20.55099  -1.32393  -1.32393  -0.69801
 Alpha  occ. eigenvalues --   -0.69801  -0.55804  -0.55803  -0.49499  -0.49499
 Alpha virt. eigenvalues --    0.14469   0.14556   0.20530   0.20563   0.54756
 Alpha virt. eigenvalues --    0.54783   0.57611   0.57627   0.68306   0.68593
 Alpha virt. eigenvalues --    0.79378   0.79380   0.80821   0.80833   0.82750

 Mulliken charges:
               1
     1  O   -0.504169
     2  H    0.252084
     3  H    0.252084
     4  O   -0.504169
     5  H    0.252084
     6  H    0.252084
 Sum of Mulliken charges =  -0.00000

 Dipole moment (field-independent basis, Debye):
    X=              0.0000    Y=             -0.0000    Z=              0.0000  Tot=              0.0000
 Quadrupole moment (field-independent basis, Debye-Ang):
   XX=            -14.7104   YY=             -7.8065   ZZ=             11.0892
   XY=             -0.0000   XZ=              0.0000   YZ=             -0.0000

 \MP4DQ=-152.6416924\MP4SDQ=-152.6447544\CCSD=-152.6441653\CCSD(T)=-152
 Normal termination of Gaussian 16 at Sat Aug 27 04:20:36 2022.
