 Gaussian 16, Revision A.03,
 Gaussian 16:  ES64L-G16RevA.03 25-Dec-2016

 ------------------
 #p CCSD(T)/cc-pVTZ
 ------------------

 ------------
 H2O_H2O_1912
 ------------
 Symbolic Z-matrix:
 Charge =  0 Multiplicity = 1

                         Standard orientation:
 ---------------------------------------------------------------------
 Center     Atomic      Atomic             Coordinates (Angstroms)
 Number     Number       Type             X           Y           Z
 ---------------------------------------------------------------------
      1          8           0        0.040417   -1.796001    0.000000
      2          1           0       -0.760248   -2.365598    0.000000
      3          1           0        0.838891   -2.368665    0.000000
      4          8           0        0.040417    1.829302    0.000000
      5          1           0        0.203807    2.798224    0.000000
      6          1           0       -0.929125    1.669630    0.000000
 ---------------------------------------------------------------------

 SCF Done:  E(RHF) =  -152.105672742     A.U. after   10 cycles
 E2 =    -0.5265018295D+00 EUMP2 =    -0.15263217457167D+03
 CCSD(T)
 CCSD(T)= -0.15265939186D+03

 The electronic state is 1-A'.
 Alpha  occ. eigenvalues --  -20.54918 -20.54285  -1.32196  -1.31554  -0.69616
 Alpha  occ. eigenvalues --   -0.68947  -0.55638  -0.54784  -0.49302  -0.48658
 Alpha virt. eigenvalues --    0.13793   0.16106   0.20326   0.21790   0.53241
 Alpha virt. eigenvalues --    0.55422   0.57745   0.58455   0.63549   0.76453
 Alpha virt. eigenvalues --    0.78885   0.79013   0.80571   0.80809   0.84246

 Mulliken charges:
               1
     1  O   -0.492759
     2  H    0.242904
     3  H    0.251032
     4  O   -0.493924
     5  H    0.240735
     6  H    0.252012
 Sum of Mulliken charges =  -0.00000

 Dipole moment (field-independent basis, Debye):
    X=             -1.3532    Y=             -0.6152    Z=              0.0000  Tot=              1.4865
 Quadrupole moment (field-independent basis, Debye-Ang):
   XX=             -8.8557   YY=              1.2009   ZZ=            -14.7118
   XY=             -1.7068   XZ=              0.0000   YZ=              0.0000

 Normal termination of Gaussian 16 at Sat Aug 27 07:30:24 2022.
