 Gaussian 16, Revision A.03,
 Gaussian 16:  ES64L-G16RevA.03 25-Dec-2016

 ------------------
 #p CCSD(T)/cc-pVTZ
 ------------------

 ------------
 H2O_H2O_2896
 ------------
 Symbolic Z-matrix:
 Charge =  0 Multiplicity = 1

                         Standard orientation:
 ---------------------------------------------------------------------
 Center     Atomic      Atomic             Coordinates (Angstroms)
 Number     Number       Type             X           Y           Z
 ---------------------------------------------------------------------
      1          8           0        0.056111   -2.282821    0.000000
      2          1           0       -0.744641   -2.852296    0.000000
      3          1           0        0.854498   -2.855608    0.000000
      4          8           0        0.056111    2.374531    0.000000
      5          1           0       -0.346203    3.270996    0.000000
      6          1           0       -0.661428    1.703230    0.000000
 ---------------------------------------------------------------------

 SCF Done:  E(RHF) =  -152.107805078     A.U. after   10 cycles
 E2 =    -0.5259700884D+00 EUMP2 =    -0.15263377516654D+03
 CCSD(T)
 CCSD(T)= -0.15266097336D+03

 The electronic state is 1-A'.
 Alpha  occ. eigenvalues --  -20.55757 -20.54699  -1.33048  -1.31996  -0.70455
 Alpha  occ. eigenvalues --   -0.69380  -0.56506  -0.55447  -0.50162  -0.49115
 Alpha virt. eigenvalues --    0.13369   0.15381   0.19993   0.21483   0.54019
 Alpha virt. eigenvalues --    0.54842   0.57078   0.58000   0.66604   0.70911
 Alpha virt. eigenvalues --    0.78727   0.79728   0.79743   0.80647   0.82761

 Mulliken charges:
               1
     1  O   -0.509211
     2  H    0.252115
     3  H    0.257810
     4  O   -0.509856
     5  H    0.249066
     6  H    0.260077
 Sum of Mulliken charges =  -0.00000

 Dipole moment (field-independent basis, Debye):
    X=             -1.9135    Y=             -1.6404    Z=              0.0000  Tot=              2.5204
 Quadrupole moment (field-independent basis, Debye-Ang):
   XX=             -9.7823   YY=              0.9659   ZZ=            -14.7140
   XY=             -4.3698   XZ=              0.0000   YZ=              0.0000

 Normal termination of Gaussian 16 at Fri Aug 26 17:14:51 2022.
