 Gaussian 16, Revision A.03,
 Gaussian 16:  ES64L-G16RevA.03 25-Dec-2016

 ------------------
 #p CCSD(T)/cc-pVTZ
 ------------------

 -----------
 H2O_H2O_515
 -----------
 Symbolic Z-matrix:
 Charge =  0 Multiplicity = 1

                         Standard orientation:
 ---------------------------------------------------------------------
 Center     Atomic      Atomic             Coordinates (Angstroms)
 Number     Number       Type             X           Y           Z
 ---------------------------------------------------------------------
      1          8           0        0.047585   -1.042139    0.000000
      2          1           0       -0.754168   -1.610204    0.000000
      3          1           0        0.844962   -1.616329    0.000000
      4          8           0        0.047585    1.092541    0.000000
      5          1           0        0.020686    2.074774    0.000000
      6          1           0       -0.872836    0.748548    0.000000
 ---------------------------------------------------------------------

 SCF Done:  E(RHF) =  -152.075536270     A.U. after   11 cycles
 E2 =    -0.5330526659D+00 EUMP2 =    -0.15260858893633D+03
 CCSD(T)
 CCSD(T)= -0.15263555713D+03

 The electronic state is 1-A'.
 Alpha  occ. eigenvalues --  -20.54079 -20.52076  -1.32980  -1.29107  -0.70261
 Alpha  occ. eigenvalues --   -0.68089  -0.56908  -0.50015  -0.49069  -0.45918
 Alpha virt. eigenvalues --    0.13934   0.18064   0.19986   0.23964   0.52790
 Alpha virt. eigenvalues --    0.57370   0.58928   0.62513   0.71652   0.75497
 Alpha virt. eigenvalues --    0.79552   0.82621   0.83116   0.84897   0.87980

 Mulliken charges:
               1
     1  O   -0.443471
     2  H    0.213865
     3  H    0.234400
     4  O   -0.434696
     5  H    0.186552
     6  H    0.243349
 Sum of Mulliken charges =   0.00000

 Dipole moment (field-independent basis, Debye):
    X=             -1.4099    Y=             -1.0234    Z=              0.0000  Tot=              1.7422
 Quadrupole moment (field-independent basis, Debye-Ang):
   XX=             -9.3543   YY=             -5.2096   ZZ=            -14.7171
   XY=             -1.1164   XZ=              0.0000   YZ=              0.0000

 Normal termination of Gaussian 16 at Fri Aug 26 17:13:55 2022.
