 Gaussian 16, Revision A.03,
 Gaussian 16:  ES64L-G16RevA.03 25-Dec-2016

 ------------------
 #p CCSD(T)/cc-pVTZ
 ------------------

 ------------
 H2O_H2O_1904
 ------------
 Symbolic Z-matrix:
 Charge =  0 Multiplicity = 1

                         Standard orientation:
 ---------------------------------------------------------------------
 Center     Atomic      Atomic             Coordinates (Angstroms)
 Number     Number       Type             X           Y           Z
 ---------------------------------------------------------------------
      1          8           0        0.014783   -1.811985    0.000000
      2          1           0       -0.785188   -2.382556    0.000000
      3          1           0        0.813954   -2.383678    0.000000
      4          8           0        0.014783    1.815857    0.000000
      5          1           0        0.639822    2.574034    0.000000
      6          1           0       -0.905122    2.161229    0.000000
 ---------------------------------------------------------------------

 SCF Done:  E(RHF) =  -152.104485224     A.U. after   10 cycles
 E2 =    -0.5265446599D+00 EUMP2 =    -0.15263102988408D+03
 CCSD(T)
 CCSD(T)= -0.15265827946D+03

 The electronic state is 1-A'.
 Alpha  occ. eigenvalues --  -20.54423 -20.54352  -1.31707  -1.31623  -0.69129
 Alpha  occ. eigenvalues --   -0.69044  -0.55333  -0.54545  -0.48829  -0.48691
 Alpha virt. eigenvalues --    0.14176   0.15987   0.20588   0.21370   0.53547
 Alpha virt. eigenvalues --    0.56885   0.57985   0.58345   0.61433   0.75793
 Alpha virt. eigenvalues --    0.79170   0.79738   0.80647   0.80946   0.83268

 Mulliken charges:
               1
     1  O   -0.488186
     2  H    0.242665
     3  H    0.245642
     4  O   -0.488173
     5  H    0.242278
     6  H    0.245773
 Sum of Mulliken charges =  -0.00000

 Dipole moment (field-independent basis, Debye):
    X=             -0.4955    Y=             -0.0715    Z=              0.0000  Tot=              0.5006
 Quadrupole moment (field-independent basis, Debye-Ang):
   XX=             -7.9859   YY=              2.1942   ZZ=            -14.7092
   XY=             -0.4895   XZ=              0.0000   YZ=              0.0000

 Normal termination of Gaussian 16 at Sat Aug 27 07:27:45 2022.
