 Gaussian 16, Revision A.03,
 Gaussian 16:  ES64L-G16RevA.03 25-Dec-2016

 ------------------
 #p CCSD(T)/cc-pVTZ
 ------------------

 ------------
 H2O_H2O_2050
 ------------
 Symbolic Z-matrix:
 Charge =  0 Multiplicity = 1

                         Standard orientation:
 ---------------------------------------------------------------------
 Center     Atomic      Atomic             Coordinates (Angstroms)
 Number     Number       Type             X           Y           Z
 ---------------------------------------------------------------------
      1          8           0        0.000000   -0.000000    1.893864
      2          1           0        0.000000    0.799571    2.464996
      3          1           0       -0.000000   -0.799571    2.464996
      4          8           0        0.000000   -0.000000   -1.893864
      5          1           0       -0.000000   -0.799571   -2.464996
      6          1           0        0.000000    0.799571   -2.464996
 ---------------------------------------------------------------------

 SCF Done:  E(RHF) =  -152.104708424     A.U. after   10 cycles
 E2 =    -0.5264241166D+00 EUMP2 =    -0.15263113254020D+03
 CCSD(T)
 CCSD(T)= -0.15265838353D+03

 The electronic state is 1-AG.
 Alpha  occ. eigenvalues --  -20.54452 -20.54452  -1.31746  -1.31720  -0.69166
 Alpha  occ. eigenvalues --   -0.69141  -0.55314  -0.54730  -0.48868  -0.48787
 Alpha virt. eigenvalues --    0.14214   0.15811   0.20632   0.21228   0.54050
 Alpha virt. eigenvalues --    0.56775   0.57934   0.58263   0.61239   0.75359
 Alpha virt. eigenvalues --    0.79388   0.80432   0.80643   0.80808   0.82606

 Mulliken charges:
               1
     1  O   -0.490684
     2  H    0.245342
     3  H    0.245342
     4  O   -0.490684
     5  H    0.245342
     6  H    0.245342
 Sum of Mulliken charges =   0.00000

 Dipole moment (field-independent basis, Debye):
    X=             -0.0000    Y=              0.0000    Z=              0.0000  Tot=              0.0000
 Quadrupole moment (field-independent basis, Debye-Ang):
   XX=            -14.7091   YY=             -7.8442   ZZ=              2.9749
   XY=              0.0000   XZ=              0.0000   YZ=             -0.0000

 7\MP4DQ=-152.6401866\MP4SDQ=-152.6432788\CCSD=-152.6426761\CCSD(T)=-15
 Normal termination of Gaussian 16 at Sat Aug 27 08:18:23 2022.
