 Gaussian 16, Revision A.03,
 Gaussian 16:  ES64L-G16RevA.03 25-Dec-2016

 ------------------
 #p CCSD(T)/cc-pVTZ
 ------------------

 ------------
 H2O_H2O_2717
 ------------
 Symbolic Z-matrix:
 Charge =  0 Multiplicity = 1

                         Standard orientation:
 ---------------------------------------------------------------------
 Center     Atomic      Atomic             Coordinates (Angstroms)
 Number     Number       Type             X           Y           Z
 ---------------------------------------------------------------------
      1          8           0        0.051286   -2.205068    0.000000
      2          1           0       -0.749409   -2.774622    0.000000
      3          1           0        0.849730   -2.777775    0.000000
      4          8           0        0.051286    2.268571    0.000000
      5          1           0       -0.105393    3.238601    0.000000
      6          1           0       -0.815502    1.805771    0.000000
 ---------------------------------------------------------------------

 SCF Done:  E(RHF) =  -152.107143447     A.U. after   10 cycles
 E2 =    -0.5260355098D+00 EUMP2 =    -0.15263317895676D+03
 CCSD(T)
 CCSD(T)= -0.15266039152D+03

 The electronic state is 1-A'.
 Alpha  occ. eigenvalues --  -20.55458 -20.54670  -1.32748  -1.31960  -0.70157
 Alpha  occ. eigenvalues --   -0.69347  -0.56174  -0.55388  -0.49857  -0.49075
 Alpha virt. eigenvalues --    0.13594   0.15427   0.20155   0.21379   0.54114
 Alpha virt. eigenvalues --    0.54901   0.57324   0.58011   0.66230   0.72124
 Alpha virt. eigenvalues --    0.79015   0.79800   0.80068   0.81540   0.82796

 Mulliken charges:
               1
     1  O   -0.505827
     2  H    0.250173
     3  H    0.256184
     4  O   -0.506159
     5  H    0.247805
     6  H    0.257824
 Sum of Mulliken charges =   0.00000

 Dipole moment (field-independent basis, Debye):
    X=             -1.7452    Y=             -1.1381    Z=              0.0000  Tot=              2.0835
 Quadrupole moment (field-independent basis, Debye-Ang):
   XX=             -9.4590   YY=              2.4267   ZZ=            -14.7127
   XY=             -3.3815   XZ=              0.0000   YZ=              0.0000

 Normal termination of Gaussian 16 at Fri Aug 26 15:24:59 2022.
