 Gaussian 16, Revision A.03,
 Gaussian 16:  ES64L-G16RevA.03 25-Dec-2016

 ------------------
 #p CCSD(T)/cc-pVTZ
 ------------------

 ------------
 H2O_H2O_1387
 ------------
 Symbolic Z-matrix:
 Charge =  0 Multiplicity = 1

                         Standard orientation:
 ---------------------------------------------------------------------
 Center     Atomic      Atomic             Coordinates (Angstroms)
 Number     Number       Type             X           Y           Z
 ---------------------------------------------------------------------
      1          8           0        0.040423   -1.516801    0.000000
      2          1           0       -0.760441   -2.086119    0.000000
      3          1           0        0.838697   -2.089745    0.000000
      4          8           0        0.040423    1.550074    0.000000
      5          1           0        0.204151    2.518940    0.000000
      6          1           0       -0.929175    1.390741    0.000000
 ---------------------------------------------------------------------

 SCF Done:  E(RHF) =  -152.103978815     A.U. after   10 cycles
 E2 =    -0.5272451134D+00 EUMP2 =    -0.15263122392822D+03
 CCSD(T)
 CCSD(T)= -0.15265845334D+03

 The electronic state is 1-A'.
 Alpha  occ. eigenvalues --  -20.54662 -20.53817  -1.31972  -1.31069  -0.69398
 Alpha  occ. eigenvalues --   -0.68481  -0.55753  -0.53801  -0.49100  -0.48138
 Alpha virt. eigenvalues --    0.13949   0.16693   0.20290   0.22419   0.53435
 Alpha virt. eigenvalues --    0.57059   0.57900   0.58699   0.65919   0.76403
 Alpha virt. eigenvalues --    0.77522   0.77858   0.79713   0.82312   0.85501

 Mulliken charges:
               1
     1  O   -0.481380
     2  H    0.235863
     3  H    0.247577
     4  O   -0.480080
     5  H    0.230898
     6  H    0.247122
 Sum of Mulliken charges =  -0.00000

 Dipole moment (field-independent basis, Debye):
    X=             -1.3226    Y=             -0.6317    Z=              0.0000  Tot=              1.4657
 Quadrupole moment (field-independent basis, Debye-Ang):
   XX=             -8.8859   YY=             -0.8723   ZZ=            -14.7142
   XY=             -1.3350   XZ=              0.0000   YZ=              0.0000

 Normal termination of Gaussian 16 at Sat Aug 27 04:25:55 2022.
