 Gaussian 16, Revision A.03,
 Gaussian 16:  ES64L-G16RevA.03 25-Dec-2016

 ------------------
 #p CCSD(T)/cc-pVTZ
 ------------------

 ------------
 H2O_H2O_3400
 ------------
 Symbolic Z-matrix:
 Charge =  0 Multiplicity = 1

                         Standard orientation:
 ---------------------------------------------------------------------
 Center     Atomic      Atomic             Coordinates (Angstroms)
 Number     Number       Type             X           Y           Z
 ---------------------------------------------------------------------
      1          8           0        0.000000   -0.000000    2.611843
      2          1           0        0.000000    0.799571    3.182975
      3          1           0       -0.000000   -0.799571    3.182975
      4          8           0        0.000000   -0.000000   -2.611843
      5          1           0       -0.000000   -0.799571   -3.182975
      6          1           0        0.000000    0.799571   -3.182975
 ---------------------------------------------------------------------

 SCF Done:  E(RHF) =  -152.106309593     A.U. after   10 cycles
 E2 =    -0.5259985337D+00 EUMP2 =    -0.15263230812681D+03
 CCSD(T)
 CCSD(T)= -0.15265955023D+03

 The electronic state is 1-AG.
 Alpha  occ. eigenvalues --  -20.54979 -20.54979  -1.32272  -1.32272  -0.69682
 Alpha  occ. eigenvalues --   -0.69681  -0.55674  -0.55660  -0.49376  -0.49375
 Alpha virt. eigenvalues --    0.14473   0.14740   0.20581   0.20669   0.54834
 Alpha virt. eigenvalues --    0.54949   0.57695   0.57736   0.67936   0.69282
 Alpha virt. eigenvalues --    0.79492   0.79510   0.80923   0.80986   0.82775

 Mulliken charges:
               1
     1  O   -0.502401
     2  H    0.251200
     3  H    0.251200
     4  O   -0.502401
     5  H    0.251200
     6  H    0.251200
 Sum of Mulliken charges =  -0.00000

 Dipole moment (field-independent basis, Debye):
    X=             -0.0000    Y=              0.0000    Z=             -0.0000  Tot=              0.0000
 Quadrupole moment (field-independent basis, Debye-Ang):
   XX=            -14.7100   YY=             -7.8117   ZZ=              8.8398
   XY=              0.0000   XZ=              0.0000   YZ=             -0.0000

 9\MP4DQ=-152.64143\MP4SDQ=-152.644495\CCSD=-152.6439048\CCSD(T)=-152.6
 Normal termination of Gaussian 16 at Fri Aug 26 22:00:31 2022.
