 Gaussian 16, Revision A.03,
 Gaussian 16:  ES64L-G16RevA.03 25-Dec-2016

 ------------------
 #p CCSD(T)/cc-pVTZ
 ------------------

 -----------
 H2O_H2O_911
 -----------
 Symbolic Z-matrix:
 Charge =  0 Multiplicity = 1

                         Standard orientation:
 ---------------------------------------------------------------------
 Center     Atomic      Atomic             Coordinates (Angstroms)
 Number     Number       Type             X           Y           Z
 ---------------------------------------------------------------------
      1          8           0        0.037693   -1.266958    0.000000
      2          1           0       -0.763320   -1.836065    0.000000
      3          1           0        0.835816   -1.840111    0.000000
      4          8           0        0.037693    1.295113    0.000000
      5          1           0        0.264689    2.251136    0.000000
      6          1           0       -0.940275    1.199794    0.000000
 ---------------------------------------------------------------------

 SCF Done:  E(RHF) =  -152.097262486     A.U. after   11 cycles
 E2 =    -0.5288725164D+00 EUMP2 =    -0.15262613500213D+03
 CCSD(T)
 CCSD(T)= -0.15265337864D+03

 The electronic state is 1-A'.
 Alpha  occ. eigenvalues --  -20.54037 -20.53157  -1.31656  -1.30365  -0.69028
 Alpha  occ. eigenvalues --   -0.67948  -0.56512  -0.51588  -0.48873  -0.47268
 Alpha virt. eigenvalues --    0.14154   0.17281   0.20322   0.22895   0.52924
 Alpha virt. eigenvalues --    0.58162   0.58321   0.60672   0.70254   0.76164
 Alpha virt. eigenvalues --    0.77024   0.78414   0.83458   0.84306   0.85819

 Mulliken charges:
               1
     1  O   -0.470369
     2  H    0.227785
     3  H    0.243262
     4  O   -0.457788
     5  H    0.215969
     6  H    0.241141
 Sum of Mulliken charges =  -0.00000

 Dipole moment (field-independent basis, Debye):
    X=             -1.1862    Y=             -0.5470    Z=              0.0000  Tot=              1.3062
 Quadrupole moment (field-independent basis, Debye-Ang):
   XX=             -8.8133   YY=             -2.8435   ZZ=            -14.7223
   XY=             -0.8819   XZ=              0.0000   YZ=              0.0000

 25461\MP4DQ=-152.6347479\MP4SDQ=-152.6379714\CCSD=-152.637321\CCSD(T)=
 Normal termination of Gaussian 16 at Fri Aug 26 21:07:47 2022.
