 Gaussian 16, Revision A.03,
 Gaussian 16:  ES64L-G16RevA.03 25-Dec-2016

 ------------------
 #p CCSD(T)/cc-pVTZ
 ------------------

 ------------
 H2O_H2O_3290
 ------------
 Symbolic Z-matrix:
 Charge =  0 Multiplicity = 1

                         Standard orientation:
 ---------------------------------------------------------------------
 Center     Atomic      Atomic             Coordinates (Angstroms)
 Number     Number       Type             X           Y           Z
 ---------------------------------------------------------------------
      1          8           0        0.047529   -2.517875    0.000000
      2          1           0       -0.752959   -3.087721    0.000000
      3          1           0        0.846181   -3.090291    0.000000
      4          8           0        0.047529    2.568488    0.000000
      5          1           0        0.018446    3.550659    0.000000
      6          1           0       -0.872126    2.222451    0.000000
 ---------------------------------------------------------------------

 SCF Done:  E(RHF) =  -152.106986350     A.U. after   10 cycles
 E2 =    -0.5259566330D+00 EUMP2 =    -0.15263294298286D+03
 CCSD(T)
 CCSD(T)= -0.15266016892D+03

 The electronic state is 1-A'.
 Alpha  occ. eigenvalues --  -20.55367 -20.54903  -1.32663  -1.32196  -0.70071
 Alpha  occ. eigenvalues --   -0.69592  -0.56090  -0.55623  -0.49771  -0.49307
 Alpha virt. eigenvalues --    0.14038   0.14921   0.20277   0.20893   0.54431
 Alpha virt. eigenvalues --    0.54970   0.57375   0.57816   0.67395   0.69525
 Alpha virt. eigenvalues --    0.79109   0.79563   0.80489   0.80974   0.82725

 Mulliken charges:
               1
     1  O   -0.506352
     2  H    0.251214
     3  H    0.255191
     4  O   -0.505914
     5  H    0.249710
     6  H    0.256151
 Sum of Mulliken charges =  -0.00000

 Dipole moment (field-independent basis, Debye):
    X=             -1.6257    Y=             -0.8939    Z=              0.0000  Tot=              1.8553
 Quadrupole moment (field-independent basis, Debye-Ang):
   XX=             -9.2257   YY=              5.1416   ZZ=            -14.7115
   XY=             -3.4326   XZ=              0.0000   YZ=              0.0000

 Normal termination of Gaussian 16 at Fri Aug 26 21:05:50 2022.
