 Gaussian 16, Revision A.03,
 Gaussian 16:  ES64L-G16RevA.03 25-Dec-2016

 ------------------
 #p CCSD(T)/cc-pVTZ
 ------------------

 ------------
 H2O_H2O_1659
 ------------
 Symbolic Z-matrix:
 Charge =  0 Multiplicity = 1

                         Standard orientation:
 ---------------------------------------------------------------------
 Center     Atomic      Atomic             Coordinates (Angstroms)
 Number     Number       Type             X           Y           Z
 ---------------------------------------------------------------------
      1          8           0        0.031746   -1.670729    0.000000
      2          1           0       -0.768752   -2.240560    0.000000
      3          1           0        0.830388   -2.243160    0.000000
      4          8           0        0.031746    1.689876    0.000000
      5          1           0        0.380755    2.608407    0.000000
      6          1           0       -0.950326    1.722133    0.000000
 ---------------------------------------------------------------------

 SCF Done:  E(RHF) =  -152.104391806     A.U. after   10 cycles
 E2 =    -0.5268007157D+00 EUMP2 =    -0.15263119252206D+03
 CCSD(T)
 CCSD(T)= -0.15265843198D+03

 The electronic state is 1-A'.
 Alpha  occ. eigenvalues --  -20.54539 -20.54131  -1.31823  -1.31394  -0.69248
 Alpha  occ. eigenvalues --   -0.68803  -0.55494  -0.54260  -0.48940  -0.48472
 Alpha virt. eigenvalues --    0.14034   0.16322   0.20436   0.21800   0.52980
 Alpha virt. eigenvalues --    0.56579   0.58002   0.58585   0.63473   0.76938
 Alpha virt. eigenvalues --    0.78529   0.78734   0.79810   0.81540   0.85002

 Mulliken charges:
               1
     1  O   -0.485014
     2  H    0.239052
     3  H    0.246827
     4  O   -0.484865
     5  H    0.237176
     6  H    0.246824
 Sum of Mulliken charges =  -0.00000

 Dipole moment (field-independent basis, Debye):
    X=             -1.0542    Y=             -0.3577    Z=              0.0000  Tot=              1.1132
 Quadrupole moment (field-independent basis, Debye-Ang):
   XX=             -8.4846   YY=              0.6700   ZZ=            -14.7107
   XY=             -1.0616   XZ=              0.0000   YZ=              0.0000

 Normal termination of Gaussian 16 at Sat Aug 27 06:04:10 2022.
