 Gaussian 16, Revision A.03,
 Gaussian 16:  ES64L-G16RevA.03 25-Dec-2016

 ------------------
 #p CCSD(T)/cc-pVTZ
 ------------------

 ------------
 H2O_H2O_1993
 ------------
 Symbolic Z-matrix:
 Charge =  0 Multiplicity = 1

                         Standard orientation:
 ---------------------------------------------------------------------
 Center     Atomic      Atomic             Coordinates (Angstroms)
 Number     Number       Type             X           Y           Z
 ---------------------------------------------------------------------
      1          8           0        0.052852   -1.815819    0.000000
      2          1           0       -0.748118   -2.384987    0.000000
      3          1           0        0.851019   -2.388911    0.000000
      4          8           0        0.052852    1.886073    0.000000
      5          1           0       -0.166472    2.843885    0.000000
      6          1           0       -0.782062    1.367977    0.000000
 ---------------------------------------------------------------------

 SCF Done:  E(RHF) =  -152.107349383     A.U. after   10 cycles
 E2 =    -0.5263847926D+00 EUMP2 =    -0.15263373417609D+03
 CCSD(T)
 CCSD(T)= -0.15266091265D+03

 The electronic state is 1-A'.
 Alpha  occ. eigenvalues --  -20.55571 -20.54215  -1.32845  -1.31494  -0.70259
 Alpha  occ. eigenvalues --   -0.68866  -0.56261  -0.54909  -0.49959  -0.48615
 Alpha virt. eigenvalues --    0.13349   0.16208   0.20024   0.22560   0.54079
 Alpha virt. eigenvalues --    0.54364   0.57235   0.58549   0.64922   0.75655
 Alpha virt. eigenvalues --    0.78509   0.78784   0.80024   0.80571   0.84809

 Mulliken charges:
               1
     1  O   -0.498799
     2  H    0.246053
     3  H    0.255665
     4  O   -0.504497
     5  H    0.242719
     6  H    0.258860
 Sum of Mulliken charges =  -0.00000

 Dipole moment (field-independent basis, Debye):
    X=             -1.7730    Y=             -1.3015    Z=              0.0000  Tot=              2.1994
 Quadrupole moment (field-independent basis, Debye-Ang):
   XX=             -9.5653   YY=             -0.1905   ZZ=            -14.7154
   XY=             -2.9129   XZ=              0.0000   YZ=              0.0000

 Normal termination of Gaussian 16 at Sat Aug 27 07:58:36 2022.
