 Gaussian 16, Revision A.03,
 Gaussian 16:  ES64L-G16RevA.03 25-Dec-2016

 ------------------
 #p CCSD(T)/cc-pVTZ
 ------------------

 -----------
 H2O_H2O_943
 -----------
 Symbolic Z-matrix:
 Charge =  0 Multiplicity = 1

                         Standard orientation:
 ---------------------------------------------------------------------
 Center     Atomic      Atomic             Coordinates (Angstroms)
 Number     Number       Type             X           Y           Z
 ---------------------------------------------------------------------
      1          8           0        0.052889   -1.257449    0.000000
      2          1           0       -0.748684   -1.825768    0.000000
      3          1           0        0.850448   -1.831388    0.000000
      4          8           0        0.052889    1.327592    0.000000
      5          1           0       -0.165419    2.285635    0.000000
      6          1           0       -0.782574    0.810380    0.000000
 ---------------------------------------------------------------------

 SCF Done:  E(RHF) =  -152.101492951     A.U. after   11 cycles
 E2 =    -0.5289942391D+00 EUMP2 =    -0.15263048718964D+03
 CCSD(T)
 CCSD(T)= -0.15265760896D+03

 The electronic state is 1-A'.
 Alpha  occ. eigenvalues --  -20.55443 -20.52834  -1.33025  -1.30106  -0.70427
 Alpha  occ. eigenvalues --   -0.67994  -0.56167  -0.53082  -0.50132  -0.47153
 Alpha virt. eigenvalues --    0.13536   0.17588   0.19860   0.24247   0.52623
 Alpha virt. eigenvalues --    0.57131   0.59101   0.59214   0.70930   0.74786
 Alpha virt. eigenvalues --    0.76662   0.81331   0.82821   0.82846   0.84688

 Mulliken charges:
               1
     1  O   -0.472970
     2  H    0.232749
     3  H    0.251019
     4  O   -0.483728
     5  H    0.219177
     6  H    0.253753
 Sum of Mulliken charges =  -0.00000

 Dipole moment (field-independent basis, Debye):
    X=             -1.6680    Y=             -1.4027    Z=              0.0000  Tot=              2.1794
 Quadrupole moment (field-independent basis, Debye-Ang):
   XX=             -9.6052   YY=             -3.7037   ZZ=            -14.7243
   XY=             -1.9474   XZ=              0.0000   YZ=              0.0000

 Normal termination of Gaussian 16 at Fri Aug 26 21:23:28 2022.
