 Gaussian 16, Revision A.03,
 Gaussian 16:  ES64L-G16RevA.03 25-Dec-2016

 ------------------
 #p CCSD(T)/cc-pVTZ
 ------------------

 ------------
 H2O_H2O_3348
 ------------
 Symbolic Z-matrix:
 Charge =  0 Multiplicity = 1

                         Standard orientation:
 ---------------------------------------------------------------------
 Center     Atomic      Atomic             Coordinates (Angstroms)
 Number     Number       Type             X           Y           Z
 ---------------------------------------------------------------------
      1          8           0        0.057093   -2.514096    0.000000
      2          1           0       -0.743568   -3.083699    0.000000
      3          1           0        0.855571   -3.086755    0.000000
      4          8           0        0.057093    2.620634    0.000000
      5          1           0       -0.458925    3.456834    0.000000
      6          1           0       -0.566563    1.861318    0.000000
 ---------------------------------------------------------------------

 SCF Done:  E(RHF) =  -152.107906062     A.U. after   10 cycles
 E2 =    -0.5258945550D+00 EUMP2 =    -0.15263380061667D+03
 CCSD(T)
 CCSD(T)= -0.15266100381D+03

 The electronic state is 1-A'.
 Alpha  occ. eigenvalues --  -20.55832 -20.54856  -1.33129  -1.32156  -0.70534
 Alpha  occ. eigenvalues --   -0.69546  -0.56597  -0.55613  -0.50244  -0.49274
 Alpha virt. eigenvalues --    0.13525   0.15071   0.19962   0.21160   0.53990
 Alpha virt. eigenvalues --    0.54895   0.56990   0.57846   0.66929   0.69429
 Alpha virt. eigenvalues --    0.78644   0.79585   0.79898   0.80323   0.82776

 Mulliken charges:
               1
     1  O   -0.511219
     2  H    0.253584
     3  H    0.257899
     4  O   -0.510801
     5  H    0.250669
     6  H    0.259868
 Sum of Mulliken charges =  -0.00000

 Dipole moment (field-independent basis, Debye):
    X=             -1.9542    Y=             -1.8865    Z=              0.0000  Tot=              2.7163
 Quadrupole moment (field-independent basis, Debye-Ang):
   XX=             -9.8534   YY=              0.8308   ZZ=            -14.7138
   XY=             -5.1724   XZ=              0.0000   YZ=              0.0000

 Normal termination of Gaussian 16 at Fri Aug 26 21:34:50 2022.
