 Gaussian 16, Revision A.03,
 Gaussian 16:  ES64L-G16RevA.03 25-Dec-2016

 ------------------
 #p CCSD(T)/cc-pVTZ
 ------------------

 -----------
 H2O_H2O_155
 -----------
 Symbolic Z-matrix:
 Charge =  0 Multiplicity = 1

                         Standard orientation:
 ---------------------------------------------------------------------
 Center     Atomic      Atomic             Coordinates (Angstroms)
 Number     Number       Type             X           Y           Z
 ---------------------------------------------------------------------
      1          8           0        0.018364   -0.880117    0.000000
      2          1           0       -0.782228   -1.449817    0.000000
      3          1           0        0.816911   -1.452679    0.000000
      4          8           0        0.018364    0.886113    0.000000
      5          1           0        0.593345    1.682921    0.000000
      6          1           0       -0.921849    1.171604    0.000000
 ---------------------------------------------------------------------

 SCF Done:  E(RHF) =  -151.988580172     A.U. after   11 cycles
 E2 =    -0.5431566859D+00 EUMP2 =    -0.15253173685791D+03
 CCSD(T)
 CCSD(T)= -0.15255750026D+03

 The electronic state is 1-A'.
 Alpha  occ. eigenvalues --  -20.51448 -20.51274  -1.34284  -1.27413  -0.69969
 Alpha  occ. eigenvalues --   -0.66885  -0.63557  -0.50994  -0.43728  -0.37922
 Alpha virt. eigenvalues --    0.14537   0.19041   0.20098   0.23169   0.51410
 Alpha virt. eigenvalues --    0.58294   0.59072   0.66304   0.69131   0.78888
 Alpha virt. eigenvalues --    0.79889   0.83627   0.84011   0.86123   0.88073

 Mulliken charges:
               1
     1  O   -0.392191
     2  H    0.188243
     3  H    0.203512
     4  O   -0.375637
     5  H    0.158939
     6  H    0.217133
 Sum of Mulliken charges =  -0.00000

 Dipole moment (field-independent basis, Debye):
    X=             -0.5202    Y=             -0.1465    Z=              0.0000  Tot=              0.5404
 Quadrupole moment (field-independent basis, Debye-Ang):
   XX=             -8.4969   YY=             -7.6341   ZZ=            -14.7488
   XY=             -0.2072   XZ=              0.0000   YZ=              0.0000

 Normal termination of Gaussian 16 at Fri Aug 26 13:25:36 2022.
