 Gaussian 16, Revision A.03,
 Gaussian 16:  ES64L-G16RevA.03 25-Dec-2016

 ------------------
 #p CCSD(T)/cc-pVTZ
 ------------------

 ----------
 H2O_H2O_49
 ----------
 Symbolic Z-matrix:
 Charge =  0 Multiplicity = 1

                         Standard orientation:
 ---------------------------------------------------------------------
 Center     Atomic      Atomic             Coordinates (Angstroms)
 Number     Number       Type             X           Y           Z
 ---------------------------------------------------------------------
      1          8           0        0.057458   -0.755227    0.000000
      2          1           0       -0.745557   -1.321507    0.000000
      3          1           0        0.853556   -1.331189    0.000000
      4          8           0        0.057458    0.868759    0.000000
      5          1           0       -0.508822    1.671775    0.000000
      6          1           0       -0.518505    0.072661    0.000000
 ---------------------------------------------------------------------

 SCF Done:  E(RHF) =  -151.828857665     A.U. after   12 cycles
 E2 =    -0.5551362318D+00 EUMP2 =    -0.15238399389689D+03
 CCSD(T)
 CCSD(T)= -0.15240718377D+03

 The electronic state is 1-A'.
 Alpha  occ. eigenvalues --  -20.58825 -20.44284  -1.48375  -1.24116  -0.84486
 Alpha  occ. eigenvalues --   -0.75818  -0.59227  -0.48724  -0.40722  -0.38478
 Alpha virt. eigenvalues --    0.11946   0.16684   0.21637   0.27561   0.47568
 Alpha virt. eigenvalues --    0.51739   0.63958   0.70757   0.72297   0.75188
 Alpha virt. eigenvalues --    0.77023   0.77812   0.85225   0.85281   0.89839

 Mulliken charges:
               1
     1  O   -0.190055
     2  H    0.159364
     3  H    0.222562
     4  O   -0.583665
     5  H    0.119604
     6  H    0.272189
 Sum of Mulliken charges =  -0.00000

 Dipole moment (field-independent basis, Debye):
    X=             -1.3815    Y=             -3.3751    Z=              0.0000  Tot=              3.6469
 Quadrupole moment (field-independent basis, Debye-Ang):
   XX=             -9.8250   YY=             -9.9233   ZZ=            -14.4494
   XY=             -1.8788   XZ=              0.0000   YZ=              0.0000

 Normal termination of Gaussian 16 at Fri Aug 26 12:15:37 2022.
