 Gaussian 16, Revision A.03,
 Gaussian 16:  ES64L-G16RevA.03 25-Dec-2016

 ------------------
 #p CCSD(T)/cc-pVTZ
 ------------------

 ------------
 H2O_H2O_4877
 ------------
 Symbolic Z-matrix:
 Charge =  0 Multiplicity = 1

                         Standard orientation:
 ---------------------------------------------------------------------
 Center     Atomic      Atomic             Coordinates (Angstroms)
 Number     Number       Type             X           Y           Z
 ---------------------------------------------------------------------
      1          8           0        0.007455   -3.395772    0.000000
      2          1           0       -0.792224   -3.966753    0.000000
      3          1           0        0.806918   -3.967055    0.000000
      4          8           0        0.007455    3.396747    0.000000
      5          1           0        0.725765    4.067221    0.000000
      6          1           0       -0.859737    3.858791    0.000000
 ---------------------------------------------------------------------

 SCF Done:  E(RHF) =  -152.106950840     A.U. after   10 cycles
 E2 =    -0.5259141303D+00 EUMP2 =    -0.15263286497057D+03
 CCSD(T)
 CCSD(T)= -0.15266009514D+03

 The electronic state is 1-A'.
 Alpha  occ. eigenvalues --  -20.55254 -20.55250  -1.32551  -1.32546  -0.69958
 Alpha  occ. eigenvalues --   -0.69953  -0.55977  -0.55972  -0.49659  -0.49654
 Alpha virt. eigenvalues --    0.14383   0.14392   0.20435   0.20442   0.54610
 Alpha virt. eigenvalues --    0.54616   0.57487   0.57493   0.68244   0.68257
 Alpha virt. eigenvalues --    0.79220   0.79225   0.80662   0.80667   0.82587

 Mulliken charges:
               1
     1  O   -0.506165
     2  H    0.252945
     3  H    0.253220
     4  O   -0.506161
     5  H    0.252884
     6  H    0.253277
 Sum of Mulliken charges =  -0.00000

 Dipole moment (field-independent basis, Debye):
    X=             -0.2564    Y=             -0.0170    Z=              0.0000  Tot=              0.2569
 Quadrupole moment (field-independent basis, Debye-Ang):
   XX=             -7.8358   YY=             15.0516   ZZ=            -14.7109
   XY=             -0.6381   XZ=              0.0000   YZ=              0.0000

 Normal termination of Gaussian 16 at Sat Aug 27 09:50:28 2022.
