 Gaussian 16, Revision A.03,
 Gaussian 16:  ES64L-G16RevA.03 25-Dec-2016

 ------------------
 #p CCSD(T)/cc-pVTZ
 ------------------

 ------------
 H2O_H2O_3426
 ------------
 Symbolic Z-matrix:
 Charge =  0 Multiplicity = 1

                         Standard orientation:
 ---------------------------------------------------------------------
 Center     Atomic      Atomic             Coordinates (Angstroms)
 Number     Number       Type             X           Y           Z
 ---------------------------------------------------------------------
      1          8           0        0.003735   -2.625006    0.000000
      2          1           0       -0.795906   -3.196040    0.000000
      3          1           0        0.803236   -3.196236    0.000000
      4          8           0        0.003735    2.625250    0.000000
      5          1           0        0.764318    3.247361    0.000000
      6          1           0       -0.831414    3.142967    0.000000
 ---------------------------------------------------------------------

 SCF Done:  E(RHF) =  -152.106329772     A.U. after   10 cycles
 E2 =    -0.5259957931D+00 EUMP2 =    -0.15263232556541D+03
 CCSD(T)
 CCSD(T)= -0.15265956731D+03

 The electronic state is 1-A'.
 Alpha  occ. eigenvalues --  -20.54987 -20.54985  -1.32281  -1.32279  -0.69690
 Alpha  occ. eigenvalues --   -0.69688  -0.55682  -0.55669  -0.49385  -0.49382
 Alpha virt. eigenvalues --    0.14473   0.14728   0.20578   0.20663   0.54830
 Alpha virt. eigenvalues --    0.54938   0.57689   0.57730   0.67971   0.69228
 Alpha virt. eigenvalues --    0.79485   0.79501   0.80916   0.80977   0.82778

 Mulliken charges:
               1
     1  O   -0.502520
     2  H    0.251118
     3  H    0.251402
     4  O   -0.502516
     5  H    0.251071
     6  H    0.251445
 Sum of Mulliken charges =  -0.00000

 Dipole moment (field-independent basis, Debye):
    X=             -0.1278    Y=             -0.0043    Z=              0.0000  Tot=              0.1279
 Quadrupole moment (field-independent basis, Debye-Ang):
   XX=             -7.8202   YY=              8.9332   ZZ=            -14.7100
   XY=             -0.2209   XZ=              0.0000   YZ=              0.0000

 Normal termination of Gaussian 16 at Fri Aug 26 22:14:11 2022.
