 Gaussian 16, Revision A.03,
 Gaussian 16:  ES64L-G16RevA.03 25-Dec-2016

 ------------------
 #p CCSD(T)/cc-pVTZ
 ------------------

 -----------
 H2O_H2O_214
 -----------
 Symbolic Z-matrix:
 Charge =  0 Multiplicity = 1

                         Standard orientation:
 ---------------------------------------------------------------------
 Center     Atomic      Atomic             Coordinates (Angstroms)
 Number     Number       Type             X           Y           Z
 ---------------------------------------------------------------------
      1          8           0        0.045407   -0.885901    0.000000
      2          1           0       -0.756610   -1.453593    0.000000
      3          1           0        0.842517   -1.460462    0.000000
      4          8           0        0.045407    0.930201    0.000000
      5          1           0        0.083263    1.912073    0.000000
      6          1           0       -0.895674    0.647582    0.000000
 ---------------------------------------------------------------------

 SCF Done:  E(RHF) =  -152.012910178     A.U. after   11 cycles
 E2 =    -0.5408118300D+00 EUMP2 =    -0.15255372200752D+03
 CCSD(T)
 CCSD(T)= -0.15257990727D+03

 The electronic state is 1-A'.
 Alpha  occ. eigenvalues --  -20.53086 -20.51350  -1.35128  -1.27612  -0.72116
 Alpha  occ. eigenvalues --   -0.68801  -0.58079  -0.51516  -0.44321  -0.42956
 Alpha virt. eigenvalues --    0.14027   0.18693   0.19824   0.23968   0.52937
 Alpha virt. eigenvalues --    0.56844   0.58829   0.64724   0.72722   0.76949
 Alpha virt. eigenvalues --    0.80950   0.82396   0.82536   0.84377   0.88648

 Mulliken charges:
               1
     1  O   -0.391725
     2  H    0.184169
     3  H    0.212270
     4  O   -0.384325
     5  H    0.144554
     6  H    0.235056
 Sum of Mulliken charges =  -0.00000

 Dipole moment (field-independent basis, Debye):
    X=             -1.2542    Y=             -0.9567    Z=              0.0000  Tot=              1.5774
 Quadrupole moment (field-independent basis, Debye-Ang):
   XX=             -9.3058   YY=             -7.1816   ZZ=            -14.6811
   XY=             -0.7769   XZ=              0.0000   YZ=              0.0000

 Normal termination of Gaussian 16 at Fri Aug 26 14:08:22 2022.
