 Gaussian 16, Revision A.03,
 Gaussian 16:  ES64L-G16RevA.03 25-Dec-2016

 ------------------
 #p CCSD(T)/cc-pVTZ
 ------------------

 ------------
 H2O_H2O_1927
 ------------
 Symbolic Z-matrix:
 Charge =  0 Multiplicity = 1

                         Standard orientation:
 ---------------------------------------------------------------------
 Center     Atomic      Atomic             Coordinates (Angstroms)
 Number     Number       Type             X           Y           Z
 ---------------------------------------------------------------------
      1          8           0        0.007455   -1.826856    0.000000
      2          1           0       -0.792316   -2.397707    0.000000
      3          1           0        0.806825   -2.398269    0.000000
      4          8           0        0.007455    1.827828    0.000000
      5          1           0        0.725873    2.498187    0.000000
      6          1           0       -0.859662    2.290014    0.000000
 ---------------------------------------------------------------------

 SCF Done:  E(RHF) =  -152.104439349     A.U. after   10 cycles
 E2 =    -0.5265254081D+00 EUMP2 =    -0.15263096475681D+03
 CCSD(T)
 CCSD(T)= -0.15265821696D+03

 The electronic state is 1-A'.
 Alpha  occ. eigenvalues --  -20.54391 -20.54373  -1.31682  -1.31640  -0.69103
 Alpha  occ. eigenvalues --   -0.69064  -0.55313  -0.54552  -0.48811  -0.48699
 Alpha virt. eigenvalues --    0.14211   0.15950   0.20615   0.21323   0.53717
 Alpha virt. eigenvalues --    0.57081   0.57968   0.58333   0.61069   0.75671
 Alpha virt. eigenvalues --    0.79230   0.79962   0.80596   0.80905   0.83160

 Mulliken charges:
               1
     1  O   -0.488281
     2  H    0.243419
     3  H    0.244891
     4  O   -0.488275
     5  H    0.243270
     6  H    0.244976
 Sum of Mulliken charges =  -0.00000

 Dipole moment (field-independent basis, Debye):
    X=             -0.2501    Y=             -0.0179    Z=              0.0000  Tot=              0.2507
 Quadrupole moment (field-independent basis, Debye-Ang):
   XX=             -7.8844   YY=              2.3895   ZZ=            -14.7090
   XY=             -0.2435   XZ=              0.0000   YZ=              0.0000

 Normal termination of Gaussian 16 at Sat Aug 27 07:35:38 2022.
