 Gaussian 16, Revision A.03,
 Gaussian 16:  ES64L-G16RevA.03 25-Dec-2016

 ------------------
 #p CCSD(T)/cc-pVTZ
 ------------------

 ------------
 H2O_H2O_3473
 ------------
 Symbolic Z-matrix:
 Charge =  0 Multiplicity = 1

                         Standard orientation:
 ---------------------------------------------------------------------
 Center     Atomic      Atomic             Coordinates (Angstroms)
 Number     Number       Type             X           Y           Z
 ---------------------------------------------------------------------
      1          8           0        0.057090   -2.580572    0.000000
      2          1           0       -0.743543   -3.150214    0.000000
      3          1           0        0.855596   -3.153193    0.000000
      4          8           0        0.057090    2.687116    0.000000
      5          1           0       -0.458968    3.523291    0.000000
      6          1           0       -0.566529    1.927770    0.000000
 ---------------------------------------------------------------------

 SCF Done:  E(RHF) =  -152.107857763     A.U. after   10 cycles
 E2 =    -0.5258848100D+00 EUMP2 =    -0.15263374257262D+03
 CCSD(T)
 CCSD(T)= -0.15266094846D+03

 The electronic state is 1-A'.
 Alpha  occ. eigenvalues --  -20.55817 -20.54897  -1.33115  -1.32197  -0.70520
 Alpha  occ. eigenvalues --   -0.69589  -0.56582  -0.55654  -0.50229  -0.49315
 Alpha virt. eigenvalues --    0.13606   0.14986   0.19975   0.21074   0.54012
 Alpha virt. eigenvalues --    0.54892   0.56997   0.57823   0.67042   0.69191
 Alpha virt. eigenvalues --    0.78657   0.79546   0.79984   0.80379   0.82739

 Mulliken charges:
               1
     1  O   -0.511195
     2  H    0.253675
     3  H    0.257692
     4  O   -0.510660
     5  H    0.250943
     6  H    0.259545
 Sum of Mulliken charges =  -0.00000

 Dipole moment (field-independent basis, Debye):
    X=             -1.9556    Y=             -1.8822    Z=              0.0000  Tot=              2.7142
 Quadrupole moment (field-independent basis, Debye-Ang):
   XX=             -9.8536   YY=              1.1134   ZZ=            -14.7135
   XY=             -5.3012   XZ=              0.0000   YZ=              0.0000

 Normal termination of Gaussian 16 at Fri Aug 26 22:37:58 2022.
