 Gaussian 16, Revision A.03,
 Gaussian 16:  ES64L-G16RevA.03 25-Dec-2016

 ------------------
 #p CCSD(T)/cc-pVTZ
 ------------------

 ------------
 H2O_H2O_1057
 ------------
 Symbolic Z-matrix:
 Charge =  0 Multiplicity = 1

                         Standard orientation:
 ---------------------------------------------------------------------
 Center     Atomic      Atomic             Coordinates (Angstroms)
 Number     Number       Type             X           Y           Z
 ---------------------------------------------------------------------
      1          8           0        0.025270   -1.355672    0.000000
      2          1           0       -0.775212   -1.925526    0.000000
      3          1           0        0.823928   -1.928080    0.000000
      4          8           0        0.025270    1.367371    0.000000
      5          1           0        0.491160    2.232502    0.000000
      6          1           0       -0.944195    1.527511    0.000000
 ---------------------------------------------------------------------

 SCF Done:  E(RHF) =  -152.098834481     A.U. after   11 cycles
 E2 =    -0.5281727142D+00 EUMP2 =    -0.15262700719541D+03
 CCSD(T)
 CCSD(T)= -0.15265429839D+03

 The electronic state is 1-A'.
 Alpha  occ. eigenvalues --  -20.53770 -20.53446  -1.31281  -1.30660  -0.68665
 Alpha  occ. eigenvalues --   -0.68153  -0.56172  -0.51943  -0.48515  -0.47556
 Alpha virt. eigenvalues --    0.14316   0.17078   0.20488   0.22324   0.51834
 Alpha virt. eigenvalues --    0.58452   0.58735   0.60842   0.70009   0.76608
 Alpha virt. eigenvalues --    0.76840   0.78197   0.81230   0.83412   0.86108

 Mulliken charges:
               1
     1  O   -0.470096
     2  H    0.229836
     3  H    0.239844
     4  O   -0.462295
     5  H    0.225352
     6  H    0.237359
 Sum of Mulliken charges =  -0.00000

 Dipole moment (field-independent basis, Debye):
    X=             -0.8089    Y=             -0.2239    Z=              0.0000  Tot=              0.8393
 Quadrupole moment (field-independent basis, Debye-Ang):
   XX=             -8.3232   YY=             -1.8754   ZZ=            -14.7168
   XY=             -0.5285   XZ=              0.0000   YZ=              0.0000

 Normal termination of Gaussian 16 at Sat Aug 27 01:43:53 2022.
