 Gaussian 16, Revision A.03,
 Gaussian 16:  ES64L-G16RevA.03 25-Dec-2016

 ------------------
 #p CCSD(T)/cc-pVTZ
 ------------------

 -----------
 H2O_H2O_876
 -----------
 Symbolic Z-matrix:
 Charge =  0 Multiplicity = 1

                         Standard orientation:
 ---------------------------------------------------------------------
 Center     Atomic      Atomic             Coordinates (Angstroms)
 Number     Number       Type             X           Y           Z
 ---------------------------------------------------------------------
      1          8           0        0.003735   -1.268824    0.000000
      2          1           0       -0.795980   -1.839753    0.000000
      3          1           0        0.803162   -1.840158    0.000000
      4          8           0        0.003735    1.269066    0.000000
      5          1           0        0.764399    1.891078    0.000000
      6          1           0       -0.831346    1.786893    0.000000
 ---------------------------------------------------------------------

 SCF Done:  E(RHF) =  -152.093312947     A.U. after   10 cycles
 E2 =    -0.5289916676D+00 EUMP2 =    -0.15262230461481D+03
 CCSD(T)
 CCSD(T)= -0.15264961430D+03

 The electronic state is 1-A'.
 Alpha  occ. eigenvalues --  -20.53130 -20.53123  -1.31010  -1.30209  -0.68309
 Alpha  occ. eigenvalues --   -0.67770  -0.56832  -0.50312  -0.48298  -0.46984
 Alpha virt. eigenvalues --    0.14501   0.17445   0.20575   0.22289   0.50419
 Alpha virt. eigenvalues --    0.58773   0.58886   0.62941   0.73228   0.76718
 Alpha virt. eigenvalues --    0.76914   0.79113   0.83040   0.83924   0.86479

 Mulliken charges:
               1
     1  O   -0.460269
     2  H    0.229240
     3  H    0.230982
     4  O   -0.459937
     5  H    0.228990
     6  H    0.230994
 Sum of Mulliken charges =   0.00000

 Dipole moment (field-independent basis, Debye):
    X=             -0.1176    Y=             -0.0047    Z=              0.0000  Tot=              0.1177
 Quadrupole moment (field-independent basis, Debye-Ang):
   XX=             -7.9827   YY=             -2.6553   ZZ=            -14.7231
   XY=             -0.0551   XZ=              0.0000   YZ=              0.0000

 Normal termination of Gaussian 16 at Fri Aug 26 20:47:03 2022.
