 Gaussian 16, Revision A.03,
 Gaussian 16:  ES64L-G16RevA.03 25-Dec-2016

 ------------------
 #p CCSD(T)/cc-pVTZ
 ------------------

 ------------
 H2O_H2O_3834
 ------------
 Symbolic Z-matrix:
 Charge =  0 Multiplicity = 1

                         Standard orientation:
 ---------------------------------------------------------------------
 Center     Atomic      Atomic             Coordinates (Angstroms)
 Number     Number       Type             X           Y           Z
 ---------------------------------------------------------------------
      1          8           0        0.031740   -2.827451    0.000000
      2          1           0       -0.768381   -3.397813    0.000000
      3          1           0        0.830760   -3.399353    0.000000
      4          8           0        0.031740    2.846641    0.000000
      5          1           0        0.380139    3.765403    0.000000
      6          1           0       -0.950353    2.878247    0.000000
 ---------------------------------------------------------------------

 SCF Done:  E(RHF) =  -152.106765547     A.U. after   10 cycles
 E2 =    -0.5259467220D+00 EUMP2 =    -0.15263271226942D+03
 CCSD(T)
 CCSD(T)= -0.15265994540D+03

 The electronic state is 1-A'.
 Alpha  occ. eigenvalues --  -20.55206 -20.55068  -1.32502  -1.32362  -0.69909
 Alpha  occ. eigenvalues --   -0.69767  -0.55919  -0.55780  -0.49608  -0.49470
 Alpha virt. eigenvalues --    0.14375   0.14595   0.20448   0.20615   0.54653
 Alpha virt. eigenvalues --    0.54816   0.57520   0.57663   0.68161   0.68625
 Alpha virt. eigenvalues --    0.79270   0.79407   0.80713   0.80866   0.82652

 Mulliken charges:
               1
     1  O   -0.505096
     2  H    0.251571
     3  H    0.253526
     4  O   -0.504932
     5  H    0.251044
     6  H    0.253888
 Sum of Mulliken charges =  -0.00000

 Dipole moment (field-independent basis, Debye):
    X=             -1.0884    Y=             -0.3363    Z=              0.0000  Tot=              1.1392
 Quadrupole moment (field-independent basis, Debye-Ang):
   XX=             -8.4393   YY=              9.3583   ZZ=            -14.7107
   XY=             -2.2945   XZ=              0.0000   YZ=              0.0000

 Normal termination of Gaussian 16 at Sat Aug 27 03:40:09 2022.
