 Gaussian 16, Revision A.03,
 Gaussian 16:  ES64L-G16RevA.03 25-Dec-2016

 ------------------
 #p CCSD(T)/cc-pVTZ
 ------------------

 ------------
 H2O_H2O_2040
 ------------
 Symbolic Z-matrix:
 Charge =  0 Multiplicity = 1

                         Standard orientation:
 ---------------------------------------------------------------------
 Center     Atomic      Atomic             Coordinates (Angstroms)
 Number     Number       Type             X           Y           Z
 ---------------------------------------------------------------------
      1          8           0        0.047543   -1.853108    0.000000
      2          1           0       -0.753269   -2.422498    0.000000
      3          1           0        0.845869   -2.425978    0.000000
      4          8           0        0.047543    1.903666    0.000000
      5          1           0        0.019020    2.885854    0.000000
      6          1           0       -0.872308    1.558152    0.000000
 ---------------------------------------------------------------------

 SCF Done:  E(RHF) =  -152.106528938     A.U. after   10 cycles
 E2 =    -0.5263694399D+00 EUMP2 =    -0.15263289837749D+03
 CCSD(T)
 CCSD(T)= -0.15266010002D+03

 The electronic state is 1-A'.
 Alpha  occ. eigenvalues --  -20.55238 -20.54321  -1.32515  -1.31596  -0.69931
 Alpha  occ. eigenvalues --   -0.68977  -0.55918  -0.54956  -0.49624  -0.48709
 Alpha virt. eigenvalues --    0.13569   0.16053   0.20190   0.21986   0.53540
 Alpha virt. eigenvalues --    0.54863   0.57505   0.58454   0.64302   0.75950
 Alpha virt. eigenvalues --    0.78857   0.79051   0.80504   0.80821   0.84558

 Mulliken charges:
               1
     1  O   -0.497410
     2  H    0.245202
     3  H    0.253839
     4  O   -0.499899
     5  H    0.242568
     6  H    0.255699
 Sum of Mulliken charges =  -0.00000

 Dipole moment (field-independent basis, Debye):
    X=             -1.5971    Y=             -0.9302    Z=              0.0000  Tot=              1.8483
 Quadrupole moment (field-independent basis, Debye-Ang):
   XX=             -9.2372   YY=              0.9291   ZZ=            -14.7132
   XY=             -2.3693   XZ=              0.0000   YZ=              0.0000

 Normal termination of Gaussian 16 at Sat Aug 27 08:15:03 2022.
