 Gaussian 16, Revision A.03,
 Gaussian 16:  ES64L-G16RevA.03 25-Dec-2016

 ------------------
 #p CCSD(T)/cc-pVTZ
 ------------------

 ------------
 H2O_H2O_2222
 ------------
 Symbolic Z-matrix:
 Charge =  0 Multiplicity = 1

                         Standard orientation:
 ---------------------------------------------------------------------
 Center     Atomic      Atomic             Coordinates (Angstroms)
 Number     Number       Type             X           Y           Z
 ---------------------------------------------------------------------
      1          8           0        0.056747   -1.919852    0.000000
      2          1           0       -0.744235   -2.489003    0.000000
      3          1           0        0.854902   -2.492961    0.000000
      4          8           0        0.056747    2.018888    0.000000
      5          1           0       -0.402986    2.887308    0.000000
      6          1           0       -0.615639    1.302367    0.000000
 ---------------------------------------------------------------------

 SCF Done:  E(RHF) =  -152.108506154     A.U. after   10 cycles
 E2 =    -0.5262021828D+00 EUMP2 =    -0.15263470833643D+03
 CCSD(T)
 CCSD(T)= -0.15266186777D+03

 The electronic state is 1-A'.
 Alpha  occ. eigenvalues --  -20.56004 -20.54279  -1.33276  -1.31577  -0.70683
 Alpha  occ. eigenvalues --   -0.68945  -0.56744  -0.55040  -0.50396  -0.48704
 Alpha virt. eigenvalues --    0.13029   0.16104   0.19842   0.22910   0.53899
 Alpha virt. eigenvalues --    0.54873   0.56887   0.58563   0.66171   0.73766
 Alpha virt. eigenvalues --    0.78342   0.79222   0.80241   0.80731   0.83138

 Mulliken charges:
               1
     1  O   -0.504595
     2  H    0.249891
     3  H    0.258226
     4  O   -0.512187
     5  H    0.245996
     6  H    0.262670
 Sum of Mulliken charges =  -0.00000

 Dipole moment (field-independent basis, Debye):
    X=             -1.9159    Y=             -1.8238    Z=              0.0000  Tot=              2.6451
 Quadrupole moment (field-independent basis, Debye-Ang):
   XX=             -9.8255   YY=             -1.2351   ZZ=            -14.7172
   XY=             -3.8648   XZ=              0.0000   YZ=              0.0000

 Normal termination of Gaussian 16 at Sat Aug 27 09:17:51 2022.
