 Gaussian 16, Revision A.03,
 Gaussian 16:  ES64L-G16RevA.03 25-Dec-2016

 ------------------
 #p CCSD(T)/cc-pVTZ
 ------------------

 -----------
 H2O_H2O_327
 -----------
 Symbolic Z-matrix:
 Charge =  0 Multiplicity = 1

                         Standard orientation:
 ---------------------------------------------------------------------
 Center     Atomic      Atomic             Coordinates (Angstroms)
 Number     Number       Type             X           Y           Z
 ---------------------------------------------------------------------
      1          8           0        0.007455   -0.975920    0.000000
      2          1           0       -0.792491   -1.546527    0.000000
      3          1           0        0.806651   -1.547577    0.000000
      4          8           0        0.007455    0.976887    0.000000
      5          1           0        0.726079    1.647026    0.000000
      6          1           0       -0.859520    1.439338    0.000000
 ---------------------------------------------------------------------

 SCF Done:  E(RHF) =  -152.039902290     A.U. after   11 cycles
 E2 =    -0.5365811504D+00 EUMP2 =    -0.15257648344030D+03
 CCSD(T)
 CCSD(T)= -0.15260314727D+03

 The electronic state is 1-A'.
 Alpha  occ. eigenvalues --  -20.51642 -20.51613  -1.32230  -1.28261  -0.68636
 Alpha  occ. eigenvalues --   -0.66283  -0.61816  -0.49392  -0.44646  -0.42400
 Alpha virt. eigenvalues --    0.14668   0.18589   0.20420   0.22874   0.50368
 Alpha virt. eigenvalues --    0.59160   0.59237   0.66547   0.69424   0.78313
 Alpha virt. eigenvalues --    0.79476   0.83186   0.84460   0.86643   0.87389

 Mulliken charges:
               1
     1  O   -0.422173
     2  H    0.208510
     3  H    0.213396
     4  O   -0.419141
     5  H    0.201263
     6  H    0.218144
 Sum of Mulliken charges =  -0.00000

 Dipole moment (field-independent basis, Debye):
    X=             -0.2165    Y=             -0.0212    Z=              0.0000  Tot=              0.2176
 Quadrupole moment (field-independent basis, Debye-Ang):
   XX=             -8.2178   YY=             -6.1095   ZZ=            -14.7540
   XY=             -0.0686   XZ=              0.0000   YZ=              0.0000

 16583\MP4DQ=-152.5833425\MP4SDQ=-152.5869579\CCSD=-152.586136\CCSD(T)=
 Normal termination of Gaussian 16 at Fri Aug 26 15:18:40 2022.
