 Gaussian 16, Revision A.03,
 Gaussian 16:  ES64L-G16RevA.03 25-Dec-2016

 ------------------
 #p CCSD(T)/cc-pVTZ
 ------------------

 ------------
 H2O_H2O_1227
 ------------
 Symbolic Z-matrix:
 Charge =  0 Multiplicity = 1

                         Standard orientation:
 ---------------------------------------------------------------------
 Center     Atomic      Atomic             Coordinates (Angstroms)
 Number     Number       Type             X           Y           Z
 ---------------------------------------------------------------------
      1          8           0        0.007455   -1.454571    0.000000
      2          1           0       -0.792368   -2.025351    0.000000
      3          1           0        0.806774   -2.026056    0.000000
      4          8           0        0.007455    1.455542    0.000000
      5          1           0        0.725934    2.125836    0.000000
      6          1           0       -0.859620    1.917805    0.000000
 ---------------------------------------------------------------------

 SCF Done:  E(RHF) =  -152.100363943     A.U. after   10 cycles
 E2 =    -0.5276080219D+00 EUMP2 =    -0.15262797196445D+03
 CCSD(T)
 CCSD(T)= -0.15265527933D+03

 The electronic state is 1-A'.
 Alpha  occ. eigenvalues --  -20.53731 -20.53707  -1.31193  -1.30898  -0.68591
 Alpha  occ. eigenvalues --   -0.68374  -0.55773  -0.52546  -0.48410  -0.47824
 Alpha virt. eigenvalues --    0.14413   0.16854   0.20563   0.21945   0.51368
 Alpha virt. eigenvalues --    0.58404   0.58707   0.60531   0.67787   0.76280
 Alpha virt. eigenvalues --    0.77484   0.78010   0.79153   0.82998   0.86193

 Mulliken charges:
               1
     1  O   -0.470002
     2  H    0.233614
     3  H    0.236376
     4  O   -0.469441
     5  H    0.233577
     6  H    0.235876
 Sum of Mulliken charges =   0.00000

 Dipole moment (field-independent basis, Debye):
    X=             -0.2425    Y=             -0.0184    Z=              0.0000  Tot=              0.2432
 Quadrupole moment (field-independent basis, Debye-Ang):
   XX=             -7.9445   YY=             -0.8671   ZZ=            -14.7118
   XY=             -0.1535   XZ=              0.0000   YZ=              0.0000

 531\MP4DQ=-152.6368481\MP4SDQ=-152.6400108\CCSD=-152.6393844\CCSD(T)=-
 Normal termination of Gaussian 16 at Sat Aug 27 03:10:34 2022.
