 Gaussian 16, Revision A.03,
 Gaussian 16:  ES64L-G16RevA.03 25-Dec-2016

 ------------------
 #p CCSD(T)/cc-pVTZ
 ------------------

 ------------
 H2O_H2O_3158
 ------------
 Symbolic Z-matrix:
 Charge =  0 Multiplicity = 1

                         Standard orientation:
 ---------------------------------------------------------------------
 Center     Atomic      Atomic             Coordinates (Angstroms)
 Number     Number       Type             X           Y           Z
 ---------------------------------------------------------------------
      1          8           0        0.028564   -2.470603    0.000000
      2          1           0       -0.771573   -3.040941    0.000000
      3          1           0        0.827568   -3.042528    0.000000
      4          8           0        0.028564    2.485850    0.000000
      5          1           0        0.436335    3.379846    0.000000
      6          1           0       -0.949356    2.581649    0.000000
 ---------------------------------------------------------------------

 SCF Done:  E(RHF) =  -152.106360886     A.U. after   10 cycles
 E2 =    -0.5260105312D+00 EUMP2 =    -0.15263237141698D+03
 CCSD(T)
 CCSD(T)= -0.15265961121D+03

 The electronic state is 1-A'.
 Alpha  occ. eigenvalues --  -20.55041 -20.54897  -1.32335  -1.32189  -0.69745
 Alpha  occ. eigenvalues --   -0.69594  -0.55733  -0.55585  -0.49439  -0.49294
 Alpha virt. eigenvalues --    0.14327   0.14897   0.20509   0.20782   0.54733
 Alpha virt. eigenvalues --    0.55049   0.57643   0.57809   0.67368   0.69910
 Alpha virt. eigenvalues --    0.79434   0.79583   0.80855   0.81088   0.82712

 Mulliken charges:
               1
     1  O   -0.502718
     2  H    0.250081
     3  H    0.252648
     4  O   -0.502464
     5  H    0.249467
     6  H    0.252986
 Sum of Mulliken charges =   0.00000

 Dipole moment (field-independent basis, Debye):
    X=             -0.9759    Y=             -0.2692    Z=              0.0000  Tot=              1.0123
 Quadrupole moment (field-independent basis, Debye-Ang):
   XX=             -8.3245   YY=              6.9321   ZZ=            -14.7103
   XY=             -1.6825   XZ=              0.0000   YZ=              0.0000

 Normal termination of Gaussian 16 at Fri Aug 26 19:54:49 2022.
