 Gaussian 16, Revision A.03,
 Gaussian 16:  ES64L-G16RevA.03 25-Dec-2016

 ------------------
 #p CCSD(T)/cc-pVTZ
 ------------------

 ------------
 H2O_H2O_2499
 ------------
 Symbolic Z-matrix:
 Charge =  0 Multiplicity = 1

                         Standard orientation:
 ---------------------------------------------------------------------
 Center     Atomic      Atomic             Coordinates (Angstroms)
 Number     Number       Type             X           Y           Z
 ---------------------------------------------------------------------
      1          8           0        0.057246   -2.058003    0.000000
      2          1           0       -0.743651   -2.627275    0.000000
      3          1           0        0.855487   -2.630992    0.000000
      4          8           0        0.057246    2.171964    0.000000
      5          1           0       -0.512026    2.972860    0.000000
      6          1           0       -0.515743    1.373721    0.000000
 ---------------------------------------------------------------------

 SCF Done:  E(RHF) =  -152.108744876     A.U. after   10 cycles
 E2 =    -0.5260628516D+00 EUMP2 =    -0.15263480772728D+03
 CCSD(T)
 CCSD(T)= -0.15266196995D+03

 The electronic state is 1-A'.
 Alpha  occ. eigenvalues --  -20.56115 -20.54430  -1.33392  -1.31735  -0.70797
 Alpha  occ. eigenvalues --   -0.69108  -0.56879  -0.55205  -0.50514  -0.48861
 Alpha virt. eigenvalues --    0.12935   0.15867   0.19795   0.22540   0.53828
 Alpha virt. eigenvalues --    0.54976   0.56810   0.58492   0.66725   0.72041
 Alpha virt. eigenvalues --    0.78352   0.79344   0.80002   0.80637   0.82460

 Mulliken charges:
               1
     1  O   -0.508539
     2  H    0.252204
     3  H    0.259039
     4  O   -0.513846
     5  H    0.248113
     6  H    0.263029
 Sum of Mulliken charges =  -0.00000

 Dipole moment (field-independent basis, Debye):
    X=             -1.9431    Y=             -2.0746    Z=              0.0000  Tot=              2.8425
 Quadrupole moment (field-independent basis, Debye-Ang):
   XX=             -9.8612   YY=             -1.6439   ZZ=            -14.7171
   XY=             -4.4441   XZ=              0.0000   YZ=              0.0000

 Normal termination of Gaussian 16 at Sat Aug 27 10:53:42 2022.
