 Gaussian 16, Revision A.03,
 Gaussian 16:  ES64L-G16RevA.03 25-Dec-2016

 ------------------
 #p CCSD(T)/cc-pVTZ
 ------------------

 -----------
 H2O_H2O_782
 -----------
 Symbolic Z-matrix:
 Charge =  0 Multiplicity = 1

                         Standard orientation:
 ---------------------------------------------------------------------
 Center     Atomic      Atomic             Coordinates (Angstroms)
 Number     Number       Type             X           Y           Z
 ---------------------------------------------------------------------
      1          8           0        0.025271   -1.209422    0.000000
      2          1           0       -0.775321   -1.779123    0.000000
      3          1           0        0.823819   -1.781984    0.000000
      4          8           0        0.025271    1.221112    0.000000
      5          1           0        0.491328    2.086153    0.000000
      6          1           0       -0.944163    1.381438    0.000000
 ---------------------------------------------------------------------

 SCF Done:  E(RHF) =  -152.091110409     A.U. after   11 cycles
 E2 =    -0.5296564936D+00 EUMP2 =    -0.15262076690211D+03
 CCSD(T)
 CCSD(T)= -0.15264802288D+03

 The electronic state is 1-A'.
 Alpha  occ. eigenvalues --  -20.53292 -20.52933  -1.31251  -1.30051  -0.68525
 Alpha  occ. eigenvalues --   -0.67682  -0.57200  -0.49917  -0.48542  -0.46807
 Alpha virt. eigenvalues --    0.14405   0.17496   0.20486   0.22640   0.51568
 Alpha virt. eigenvalues --    0.58630   0.58766   0.62653   0.71164   0.76468
 Alpha virt. eigenvalues --    0.76997   0.80030   0.83902   0.86301   0.86927

 Mulliken charges:
               1
     1  O   -0.462779
     2  H    0.224681
     3  H    0.236620
     4  O   -0.449574
     5  H    0.215386
     6  H    0.235666
 Sum of Mulliken charges =  -0.00000

 Dipole moment (field-independent basis, Debye):
    X=             -0.7846    Y=             -0.2280    Z=              0.0000  Tot=              0.8170
 Quadrupole moment (field-independent basis, Debye-Ang):
   XX=             -8.3763   YY=             -3.2790   ZZ=            -14.7270
   XY=             -0.4174   XZ=              0.0000   YZ=              0.0000

 Normal termination of Gaussian 16 at Fri Aug 26 19:56:22 2022.
