 Gaussian 16, Revision A.03,
 Gaussian 16:  ES64L-G16RevA.03 25-Dec-2016

 ------------------
 #p CCSD(T)/cc-pVTZ
 ------------------

 ------------
 H2O_H2O_4273
 ------------
 Symbolic Z-matrix:
 Charge =  0 Multiplicity = 1

                         Standard orientation:
 ---------------------------------------------------------------------
 Center     Atomic      Atomic             Coordinates (Angstroms)
 Number     Number       Type             X           Y           Z
 ---------------------------------------------------------------------
      1          8           0        0.057076   -3.006026    0.000000
      2          1           0       -0.743409   -3.575875    0.000000
      3          1           0        0.855731   -3.578440    0.000000
      4          8           0        0.057076    3.112599    0.000000
      5          1           0       -0.459198    3.948641    0.000000
      6          1           0       -0.566346    2.353092    0.000000
 ---------------------------------------------------------------------

 SCF Done:  E(RHF) =  -152.107679175     A.U. after   10 cycles
 E2 =    -0.5258596906D+00 EUMP2 =    -0.15263353886546D+03
 CCSD(T)
 CCSD(T)= -0.15266075289D+03

 The electronic state is 1-A'.
 Alpha  occ. eigenvalues --  -20.55758 -20.55100  -1.33058  -1.32400  -0.70463
 Alpha  occ. eigenvalues --   -0.69798  -0.56518  -0.55854  -0.50171  -0.49516
 Alpha virt. eigenvalues --    0.13904   0.14620   0.20027   0.20740   0.54093
 Alpha virt. eigenvalues --    0.54770   0.57037   0.57689   0.67578   0.68400
 Alpha virt. eigenvalues --    0.78710   0.79353   0.80134   0.80774   0.82150

 Mulliken charges:
               1
     1  O   -0.510504
     2  H    0.253957
     3  H    0.256554
     4  O   -0.510074
     5  H    0.252217
     6  H    0.257850
 Sum of Mulliken charges =  -0.00000

 Dipole moment (field-independent basis, Debye):
    X=             -1.9610    Y=             -1.8652    Z=              0.0000  Tot=              2.7064
 Quadrupole moment (field-independent basis, Debye-Ang):
   XX=             -9.8548   YY=              2.9242   ZZ=            -14.7127
   XY=             -6.1287   XZ=              0.0000   YZ=              0.0000

 Normal termination of Gaussian 16 at Sat Aug 27 06:22:53 2022.
