 Gaussian 16, Revision A.03,
 Gaussian 16:  ES64L-G16RevA.03 25-Dec-2016

 ------------------
 #p CCSD(T)/cc-pVTZ
 ------------------

 ------------
 H2O_H2O_4659
 ------------
 Symbolic Z-matrix:
 Charge =  0 Multiplicity = 1

                         Standard orientation:
 ---------------------------------------------------------------------
 Center     Atomic      Atomic             Coordinates (Angstroms)
 Number     Number       Type             X           Y           Z
 ---------------------------------------------------------------------
      1          8           0        0.031738   -3.266212    0.000000
      2          1           0       -0.768309   -3.836677    0.000000
      3          1           0        0.830833   -3.838010    0.000000
      4          8           0        0.031738    3.285409    0.000000
      5          1           0        0.380020    4.204216    0.000000
      6          1           0       -0.950359    3.316889    0.000000
 ---------------------------------------------------------------------

 SCF Done:  E(RHF) =  -152.107016118     A.U. after   10 cycles
 E2 =    -0.5259110072D+00 EUMP2 =    -0.15263292712553D+03
 CCSD(T)
 CCSD(T)= -0.15266015575D+03

 The electronic state is 1-A'.
 Alpha  occ. eigenvalues --  -20.55316 -20.55213  -1.32613  -1.32509  -0.70019
 Alpha  occ. eigenvalues --   -0.69914  -0.56042  -0.55939  -0.49721  -0.49618
 Alpha virt. eigenvalues --    0.14328   0.14433   0.20383   0.20491   0.54547
 Alpha virt. eigenvalues --    0.54659   0.57431   0.57534   0.68176   0.68285
 Alpha virt. eigenvalues --    0.79158   0.79260   0.80598   0.80710   0.82524

 Mulliken charges:
               1
     1  O   -0.506558
     2  H    0.252631
     3  H    0.253927
     4  O   -0.506474
     5  H    0.252260
     6  H    0.254213
 Sum of Mulliken charges =  -0.00000

 Dipole moment (field-independent basis, Debye):
    X=             -1.0911    Y=             -0.3347    Z=              0.0000  Tot=              1.1413
 Quadrupole moment (field-independent basis, Debye-Ang):
   XX=             -8.4361   YY=             12.5783   ZZ=            -14.7111
   XY=             -2.7687   XZ=              0.0000   YZ=              0.0000

 Normal termination of Gaussian 16 at Sat Aug 27 08:35:55 2022.
