 Gaussian 16, Revision A.03,
 Gaussian 16:  ES64L-G16RevA.03 25-Dec-2016

 ------------------
 #p CCSD(T)/cc-pVTZ
 ------------------

 ------------
 H2O_H2O_1579
 ------------
 Symbolic Z-matrix:
 Charge =  0 Multiplicity = 1

                         Standard orientation:
 ---------------------------------------------------------------------
 Center     Atomic      Atomic             Coordinates (Angstroms)
 Number     Number       Type             X           Y           Z
 ---------------------------------------------------------------------
      1          8           0        0.014784   -1.639139    0.000000
      2          1           0       -0.785230   -2.209651    0.000000
      3          1           0        0.813911   -2.210891    0.000000
      4          8           0        0.014784    1.643009    0.000000
      5          1           0        0.639879    2.401140    0.000000
      6          1           0       -0.905096    1.988449    0.000000
 ---------------------------------------------------------------------

 SCF Done:  E(RHF) =  -152.103273394     A.U. after   10 cycles
 E2 =    -0.5269216851D+00 EUMP2 =    -0.15263019507935D+03
 CCSD(T)
 CCSD(T)= -0.15265746228D+03

 The electronic state is 1-A'.
 Alpha  occ. eigenvalues --  -20.54180 -20.54096  -1.31490  -1.31351  -0.68912
 Alpha  occ. eigenvalues --   -0.68785  -0.55410  -0.53856  -0.48646  -0.48373
 Alpha virt. eigenvalues --    0.14263   0.16368   0.20561   0.21645   0.52646
 Alpha virt. eigenvalues --    0.58085   0.58161   0.58591   0.62843   0.76329
 Alpha virt. eigenvalues --    0.78498   0.78616   0.79785   0.81855   0.85256

 Mulliken charges:
               1
     1  O   -0.480138
     2  H    0.238200
     3  H    0.242101
     4  O   -0.479819
     5  H    0.237817
     6  H    0.241839
 Sum of Mulliken charges =  -0.00000

 Dipole moment (field-independent basis, Debye):
    X=             -0.4900    Y=             -0.0724    Z=              0.0000  Tot=              0.4953
 Quadrupole moment (field-independent basis, Debye-Ang):
   XX=             -8.0069   YY=              0.7347   ZZ=            -14.7092
   XY=             -0.4056   XZ=              0.0000   YZ=              0.0000

 Normal termination of Gaussian 16 at Sat Aug 27 05:34:59 2022.
