 Gaussian 16, Revision A.03,
 Gaussian 16:  ES64L-G16RevA.03 25-Dec-2016

 ------------------
 #p CCSD(T)/cc-pVTZ
 ------------------

 ----------
 H2O_H2O_50
 ----------
 Symbolic Z-matrix:
 Charge =  0 Multiplicity = 1

                         Standard orientation:
 ---------------------------------------------------------------------
 Center     Atomic      Atomic             Coordinates (Angstroms)
 Number     Number       Type             X           Y           Z
 ---------------------------------------------------------------------
      1          8           0        0.000000   -0.000000    0.830190
      2          1           0        0.000000    0.799571    1.401323
      3          1           0       -0.000000   -0.799571    1.401323
      4          8           0        0.000000   -0.000000   -0.830190
      5          1           0       -0.000000   -0.799571   -1.401323
      6          1           0        0.000000    0.799571   -1.401323
 ---------------------------------------------------------------------

 SCF Done:  E(RHF) =  -151.935672317     A.U. after   11 cycles
 E2 =    -0.5498537405D+00 EUMP2 =    -0.15248552605749D+03
 CCSD(T)
 CCSD(T)= -0.15251016136D+03

 The electronic state is 1-AG.
 Alpha  occ. eigenvalues --  -20.51277 -20.51276  -1.36101  -1.27012  -0.70576
 Alpha  occ. eigenvalues --   -0.67874  -0.65462  -0.52396  -0.43214  -0.33488
 Alpha virt. eigenvalues --    0.14490   0.19763   0.19822   0.23010   0.50390
 Alpha virt. eigenvalues --    0.58898   0.59235   0.66721   0.67904   0.79318
 Alpha virt. eigenvalues --    0.80979   0.84114   0.84117   0.85959   0.87874

 Mulliken charges:
               1
     1  O   -0.347672
     2  H    0.173836
     3  H    0.173836
     4  O   -0.347672
     5  H    0.173836
     6  H    0.173836
 Sum of Mulliken charges =  -0.00000

 Dipole moment (field-independent basis, Debye):
    X=             -0.0000    Y=              0.0000    Z=              0.0000  Tot=              0.0000
 Quadrupole moment (field-independent basis, Debye-Ang):
   XX=            -14.7773   YY=             -8.5200   ZZ=             -8.8375
   XY=              0.0000   XZ=              0.0000   YZ=             -0.0000

 4DQ=-152.4886142\MP4SDQ=-152.4929618\CCSD=-152.4916258\CCSD(T)=-152.51
 Normal termination of Gaussian 16 at Fri Aug 26 12:16:16 2022.
