 Gaussian 16, Revision A.03,
 Gaussian 16:  ES64L-G16RevA.03 25-Dec-2016

 ------------------
 #p CCSD(T)/cc-pVTZ
 ------------------

 ------------
 H2O_H2O_3603
 ------------
 Symbolic Z-matrix:
 Charge =  0 Multiplicity = 1

                         Standard orientation:
 ---------------------------------------------------------------------
 Center     Atomic      Atomic             Coordinates (Angstroms)
 Number     Number       Type             X           Y           Z
 ---------------------------------------------------------------------
      1          8           0        0.011143   -2.717022    0.000000
      2          1           0       -0.788630   -3.287872    0.000000
      3          1           0        0.810512   -3.288436    0.000000
      4          8           0        0.011143    2.719209    0.000000
      5          1           0        0.684180    3.435118    0.000000
      6          1           0       -0.884345    3.123694    0.000000
 ---------------------------------------------------------------------

 SCF Done:  E(RHF) =  -152.106463999     A.U. after   10 cycles
 E2 =    -0.5259779269D+00 EUMP2 =    -0.15263244192635D+03
 CCSD(T)
 CCSD(T)= -0.15265968119D+03

 The electronic state is 1-A'.
 Alpha  occ. eigenvalues --  -20.55044 -20.55027  -1.32338  -1.32321  -0.69747
 Alpha  occ. eigenvalues --   -0.69729  -0.55741  -0.55723  -0.49443  -0.49426
 Alpha virt. eigenvalues --    0.14469   0.14656   0.20554   0.20625   0.54797
 Alpha virt. eigenvalues --    0.54871   0.57652   0.57689   0.68148   0.68919
 Alpha virt. eigenvalues --    0.79433   0.79452   0.80873   0.80916   0.82781

 Mulliken charges:
               1
     1  O   -0.503308
     2  H    0.251268
     3  H    0.252040
     4  O   -0.503280
     5  H    0.251122
     6  H    0.252158
 Sum of Mulliken charges =  -0.00000

 Dipole moment (field-independent basis, Debye):
    X=             -0.3817    Y=             -0.0384    Z=              0.0000  Tot=              0.3836
 Quadrupole moment (field-independent basis, Debye-Ang):
   XX=             -7.8872   YY=              9.5648   ZZ=            -14.7102
   XY=             -0.7009   XZ=              0.0000   YZ=              0.0000

 Normal termination of Gaussian 16 at Sat Aug 27 01:49:43 2022.
