 Gaussian 16, Revision A.03,
 Gaussian 16:  ES64L-G16RevA.03 25-Dec-2016

 ------------------
 #p CCSD(T)/cc-pVTZ
 ------------------

 ------------
 H2O_H2O_2755
 ------------
 Symbolic Z-matrix:
 Charge =  0 Multiplicity = 1

                         Standard orientation:
 ---------------------------------------------------------------------
 Center     Atomic      Atomic             Coordinates (Angstroms)
 Number     Number       Type             X           Y           Z
 ---------------------------------------------------------------------
      1          8           0        0.018361   -2.262870    0.000000
      2          1           0       -0.781609   -2.833445    0.000000
      3          1           0        0.817533   -2.834560    0.000000
      4          8           0        0.018361    2.268907    0.000000
      5          1           0        0.592471    3.066342    0.000000
      6          1           0       -0.922163    2.553372    0.000000
 ---------------------------------------------------------------------

 SCF Done:  E(RHF) =  -152.105867699     A.U. after   10 cycles
 E2 =    -0.5260937063D+00 EUMP2 =    -0.15263196140566D+03
 CCSD(T)
 CCSD(T)= -0.15265920801D+03

 The electronic state is 1-A'.
 Alpha  occ. eigenvalues --  -20.54838 -20.54769  -1.32128  -1.32059  -0.69541
 Alpha  occ. eigenvalues --   -0.69468  -0.55523  -0.55402  -0.49230  -0.49160
 Alpha virt. eigenvalues --    0.14299   0.15165   0.20587   0.20895   0.54721
 Alpha virt. eigenvalues --    0.55361   0.57777   0.57929   0.65789   0.71780
 Alpha virt. eigenvalues --    0.79583   0.79773   0.81070   0.81191   0.82345

 Mulliken charges:
               1
     1  O   -0.499689
     2  H    0.248802
     3  H    0.250903
     4  O   -0.499520
     5  H    0.248423
     6  H    0.251081
 Sum of Mulliken charges =  -0.00000

 Dipole moment (field-independent basis, Debye):
    X=             -0.6250    Y=             -0.1074    Z=              0.0000  Tot=              0.6341
 Quadrupole moment (field-independent basis, Debye-Ang):
   XX=             -8.0319   YY=              5.7608   ZZ=            -14.7098
   XY=             -0.8972   XZ=              0.0000   YZ=              0.0000

 Normal termination of Gaussian 16 at Fri Aug 26 15:48:06 2022.
