 Gaussian 16, Revision A.03,
 Gaussian 16:  ES64L-G16RevA.03 25-Dec-2016

 ------------------
 #p CCSD(T)/cc-pVTZ
 ------------------

 ------------
 H2O_H2O_4239
 ------------
 Symbolic Z-matrix:
 Charge =  0 Multiplicity = 1

                         Standard orientation:
 ---------------------------------------------------------------------
 Center     Atomic      Atomic             Coordinates (Angstroms)
 Number     Number       Type             X           Y           Z
 ---------------------------------------------------------------------
      1          8           0        0.045340   -3.026400    0.000000
      2          1           0       -0.754962   -3.596508    0.000000
      3          1           0        0.844179   -3.598554    0.000000
      4          8           0        0.045340    3.070973    0.000000
      5          1           0        0.080235    4.052956    0.000000
      6          1           0       -0.894884    2.785517    0.000000
 ---------------------------------------------------------------------

 SCF Done:  E(RHF) =  -152.107127170     A.U. after   10 cycles
 E2 =    -0.5259078857D+00 EUMP2 =    -0.15263303505603D+03
 CCSD(T)
 CCSD(T)= -0.15266026089D+03

 The electronic state is 1-A'.
 Alpha  occ. eigenvalues --  -20.55411 -20.55133  -1.32708  -1.32429  -0.70115
 Alpha  occ. eigenvalues --   -0.69830  -0.56143  -0.55863  -0.49818  -0.49539
 Alpha virt. eigenvalues --    0.14229   0.14532   0.20299   0.20600   0.54448
 Alpha virt. eigenvalues --    0.54748   0.57343   0.57623   0.68037   0.68384
 Alpha virt. eigenvalues --    0.79062   0.79336   0.80498   0.80798   0.82430

 Mulliken charges:
               1
     1  O   -0.507233
     2  H    0.252486
     3  H    0.254747
     4  O   -0.507018
     5  H    0.251659
     6  H    0.255359
 Sum of Mulliken charges =   0.00000

 Dipole moment (field-independent basis, Debye):
    X=             -1.5572    Y=             -0.7794    Z=              0.0000  Tot=              1.7414
 Quadrupole moment (field-independent basis, Debye-Ang):
   XX=             -9.0969   YY=              8.8302   ZZ=            -14.7114
   XY=             -3.9669   XZ=              0.0000   YZ=              0.0000

 Normal termination of Gaussian 16 at Sat Aug 27 06:11:58 2022.
