 Gaussian 16, Revision A.03,
 Gaussian 16:  ES64L-G16RevA.03 25-Dec-2016

 ------------------
 #p CCSD(T)/cc-pVTZ
 ------------------

 ------------
 H2O_H2O_2973
 ------------
 Symbolic Z-matrix:
 Charge =  0 Multiplicity = 1

                         Standard orientation:
 ---------------------------------------------------------------------
 Center     Atomic      Atomic             Coordinates (Angstroms)
 Number     Number       Type             X           Y           Z
 ---------------------------------------------------------------------
      1          8           0        0.057101   -2.314667    0.000000
      2          1           0       -0.743651   -2.884141    0.000000
      3          1           0        0.855487   -2.887454    0.000000
      4          8           0        0.057101    2.421186    0.000000
      5          1           0       -0.458782    3.257470    0.000000
      6          1           0       -0.566677    1.661971    0.000000
 ---------------------------------------------------------------------

 SCF Done:  E(RHF) =  -152.108103667     A.U. after   10 cycles
 E2 =    -0.5259430179D+00 EUMP2 =    -0.15263404668499D+03
 CCSD(T)
 CCSD(T)= -0.15266123817D+03

 The electronic state is 1-A'.
 Alpha  occ. eigenvalues --  -20.55895 -20.54707  -1.33186  -1.32008  -0.70591
 Alpha  occ. eigenvalues --   -0.69392  -0.56657  -0.55467  -0.50302  -0.49129
 Alpha virt. eigenvalues --    0.13262   0.15370   0.19917   0.21533   0.53930
 Alpha virt. eigenvalues --    0.54855   0.56963   0.58001   0.66667   0.70432
 Alpha virt. eigenvalues --    0.78591   0.79580   0.79725   0.80322   0.82797

 Mulliken charges:
               1
     1  O   -0.510700
     2  H    0.253075
     3  H    0.258427
     4  O   -0.511380
     5  H    0.249674
     6  H    0.260904
 Sum of Mulliken charges =  -0.00000

 Dipole moment (field-independent basis, Debye):
    X=             -1.9489    Y=             -1.9037    Z=              0.0000  Tot=              2.7244
 Quadrupole moment (field-independent basis, Debye-Ang):
   XX=             -9.8528   YY=             -0.0167   ZZ=            -14.7147
   XY=             -4.7870   XZ=              0.0000   YZ=              0.0000

 Normal termination of Gaussian 16 at Fri Aug 26 17:57:08 2022.
