 Gaussian 16, Revision A.03,
 Gaussian 16:  ES64L-G16RevA.03 25-Dec-2016

 ------------------
 #p CCSD(T)/cc-pVTZ
 ------------------

 ----------
 H2O_H2O_61
 ----------
 Symbolic Z-matrix:
 Charge =  0 Multiplicity = 1

                         Standard orientation:
 ---------------------------------------------------------------------
 Center     Atomic      Atomic             Coordinates (Angstroms)
 Number     Number       Type             X           Y           Z
 ---------------------------------------------------------------------
      1          8           0        0.037713   -0.814951    0.000000
      2          1           0       -0.764086   -1.382952    0.000000
      3          1           0        0.835044   -1.389205    0.000000
      4          8           0        0.037713    0.843003    0.000000
      5          1           0        0.266027    1.798711    0.000000
      6          1           0       -0.940386    0.749033    0.000000
 ---------------------------------------------------------------------

 SCF Done:  E(RHF) =  -151.946883163     A.U. after   12 cycles
 E2 =    -0.5483085027D+00 EUMP2 =    -0.15249519166568D+03
 CCSD(T)
 CCSD(T)= -0.15252020815D+03

 The electronic state is 1-A'.
 Alpha  occ. eigenvalues --  -20.52391 -20.51460  -1.37241  -1.26822  -0.73117
 Alpha  occ. eigenvalues --   -0.69463  -0.60783  -0.53065  -0.43401  -0.36588
 Alpha virt. eigenvalues --    0.14087   0.19092   0.19802   0.23654   0.53661
 Alpha virt. eigenvalues --    0.55724   0.58634   0.65581   0.72716   0.77820
 Alpha virt. eigenvalues --    0.80066   0.82396   0.82625   0.84333   0.89033

 Mulliken charges:
               1
     1  O   -0.350407
     2  H    0.163303
     3  H    0.191076
     4  O   -0.337914
     5  H    0.105927
     6  H    0.228015
 Sum of Mulliken charges =  -0.00000

 Dipole moment (field-independent basis, Debye):
    X=             -1.0201    Y=             -0.6833    Z=              0.0000  Tot=              1.2278
 Quadrupole moment (field-independent basis, Debye-Ang):
   XX=             -9.0650   YY=             -8.7029   ZZ=            -14.6828
   XY=             -0.5240   XZ=              0.0000   YZ=              0.0000

 Normal termination of Gaussian 16 at Fri Aug 26 12:22:26 2022.
