 Gaussian 16, Revision A.03,
 Gaussian 16:  ES64L-G16RevA.03 25-Dec-2016

 ------------------
 #p CCSD(T)/cc-pVTZ
 ------------------

 ------------
 H2O_H2O_3371
 ------------
 Symbolic Z-matrix:
 Charge =  0 Multiplicity = 1

                         Standard orientation:
 ---------------------------------------------------------------------
 Center     Atomic      Atomic             Coordinates (Angstroms)
 Number     Number       Type             X           Y           Z
 ---------------------------------------------------------------------
      1          8           0        0.056102   -2.535432    0.000000
      2          1           0       -0.744535   -3.105069    0.000000
      3          1           0        0.854604   -3.108056    0.000000
      4          8           0        0.056102    2.627164    0.000000
      5          1           0       -0.346394    3.523548    0.000000
      6          1           0       -0.661301    1.955717    0.000000
 ---------------------------------------------------------------------

 SCF Done:  E(RHF) =  -152.107656676     A.U. after   10 cycles
 E2 =    -0.5259069867D+00 EUMP2 =    -0.15263356366305D+03
 CCSD(T)
 CCSD(T)= -0.15266077354D+03

 The electronic state is 1-A'.
 Alpha  occ. eigenvalues --  -20.55710 -20.54882  -1.33008  -1.32180  -0.70414
 Alpha  occ. eigenvalues --   -0.69570  -0.56465  -0.55630  -0.50121  -0.49296
 Alpha virt. eigenvalues --    0.13679   0.15007   0.20043   0.21064   0.54104
 Alpha virt. eigenvalues --    0.54912   0.57089   0.57831   0.67091   0.69383
 Alpha virt. eigenvalues --    0.78765   0.79567   0.80071   0.80528   0.82746

 Mulliken charges:
               1
     1  O   -0.510021
     2  H    0.252935
     3  H    0.257254
     4  O   -0.509567
     5  H    0.250439
     6  H    0.258959
 Sum of Mulliken charges =  -0.00000

 Dipole moment (field-independent basis, Debye):
    X=             -1.9205    Y=             -1.6224    Z=              0.0000  Tot=              2.5140
 Quadrupole moment (field-independent basis, Debye-Ang):
   XX=             -9.7828   YY=              2.1756   ZZ=            -14.7131
   XY=             -4.8490   XZ=              0.0000   YZ=              0.0000

 Normal termination of Gaussian 16 at Fri Aug 26 21:46:53 2022.
