 Gaussian 16, Revision A.03,
 Gaussian 16:  ES64L-G16RevA.03 25-Dec-2016

 ------------------
 #p CCSD(T)/cc-pVTZ
 ------------------

 ------------
 H2O_H2O_4259
 ------------
 Symbolic Z-matrix:
 Charge =  0 Multiplicity = 1

                         Standard orientation:
 ---------------------------------------------------------------------
 Center     Atomic      Atomic             Coordinates (Angstroms)
 Number     Number       Type             X           Y           Z
 ---------------------------------------------------------------------
      1          8           0        0.031739   -3.053479    0.000000
      2          1           0       -0.768341   -3.623898    0.000000
      3          1           0        0.830800   -3.625324    0.000000
      4          8           0        0.031739    3.072673    0.000000
      5          1           0        0.380073    3.991460    0.000000
      6          1           0       -0.950356    3.104209    0.000000
 ---------------------------------------------------------------------

 SCF Done:  E(RHF) =  -152.106911650     A.U. after   10 cycles
 E2 =    -0.5259253368D+00 EUMP2 =    -0.15263283698647D+03
 CCSD(T)
 CCSD(T)= -0.15266006752D+03

 The electronic state is 1-A'.
 Alpha  occ. eigenvalues --  -20.55268 -20.55150  -1.32564  -1.32445  -0.69971
 Alpha  occ. eigenvalues --   -0.69850  -0.55988  -0.55870  -0.49672  -0.49554
 Alpha virt. eigenvalues --    0.14359   0.14494   0.20415   0.20542   0.54596
 Alpha virt. eigenvalues --    0.54726   0.57471   0.57590   0.68213   0.68387
 Alpha virt. eigenvalues --    0.79207   0.79324   0.80648   0.80778   0.82577

 Mulliken charges:
               1
     1  O   -0.505947
     2  H    0.252188
     3  H    0.253759
     4  O   -0.505833
     5  H    0.251751
     6  H    0.254082
 Sum of Mulliken charges =  -0.00000

 Dipole moment (field-independent basis, Debye):
    X=             -1.0900    Y=             -0.3354    Z=              0.0000  Tot=              1.1404
 Quadrupole moment (field-independent basis, Debye-Ang):
   XX=             -8.4374   YY=             11.0195   ZZ=            -14.7109
   XY=             -2.5385   XZ=              0.0000   YZ=              0.0000

 Normal termination of Gaussian 16 at Sat Aug 27 06:18:18 2022.
