 Gaussian 16, Revision A.03,
 Gaussian 16:  ES64L-G16RevA.03 25-Dec-2016

 ------------------
 #p CCSD(T)/cc-pVTZ
 ------------------

 ------------
 H2O_H2O_4766
 ------------
 Symbolic Z-matrix:
 Charge =  0 Multiplicity = 1

                         Standard orientation:
 ---------------------------------------------------------------------
 Center     Atomic      Atomic             Coordinates (Angstroms)
 Number     Number       Type             X           Y           Z
 ---------------------------------------------------------------------
      1          8           0        0.049498   -3.298873    0.000000
      2          1           0       -0.750803   -3.868981    0.000000
      3          1           0        0.848337   -3.871028    0.000000
      4          8           0        0.049498    3.355860    0.000000
      5          1           0       -0.044079    4.333995    0.000000
      6          1           0       -0.845422    2.950121    0.000000
 ---------------------------------------------------------------------

 SCF Done:  E(RHF) =  -152.107293342     A.U. after   10 cycles
 E2 =    -0.5258861796D+00 EUMP2 =    -0.15263317952156D+03
 CCSD(T)
 CCSD(T)= -0.15266040226D+03

 The electronic state is 1-A'.
 Alpha  occ. eigenvalues --  -20.55508 -20.55212  -1.32806  -1.32509  -0.70213
 Alpha  occ. eigenvalues --   -0.69911  -0.56248  -0.55950  -0.49917  -0.49621
 Alpha virt. eigenvalues --    0.14158   0.14456   0.20227   0.20540   0.54350
 Alpha virt. eigenvalues --    0.54663   0.57259   0.57556   0.67948   0.68255
 Alpha virt. eigenvalues --    0.78962   0.79255   0.80396   0.80713   0.82320

 Mulliken charges:
               1
     1  O   -0.508203
     2  H    0.253153
     3  H    0.255050
     4  O   -0.508026
     5  H    0.252361
     6  H    0.255665
 Sum of Mulliken charges =  -0.00000

 Dipole moment (field-independent basis, Debye):
    X=             -1.7023    Y=             -0.9938    Z=              0.0000  Tot=              1.9712
 Quadrupole moment (field-independent basis, Debye-Ang):
   XX=             -9.3455   YY=              9.4087   ZZ=            -14.7117
   XY=             -4.9956   XZ=              0.0000   YZ=              0.0000

 Normal termination of Gaussian 16 at Sat Aug 27 09:13:16 2022.
