 Gaussian 16, Revision A.03,
 Gaussian 16:  ES64L-G16RevA.03 25-Dec-2016

 ------------------
 #p CCSD(T)/cc-pVTZ
 ------------------

 ------------
 H2O_H2O_2572
 ------------
 Symbolic Z-matrix:
 Charge =  0 Multiplicity = 1

                         Standard orientation:
 ---------------------------------------------------------------------
 Center     Atomic      Atomic             Coordinates (Angstroms)
 Number     Number       Type             X           Y           Z
 ---------------------------------------------------------------------
      1          8           0        0.056737   -2.105982    0.000000
      2          1           0       -0.744124   -2.675305    0.000000
      3          1           0        0.855014   -2.678921    0.000000
      4          8           0        0.056737    2.205043    0.000000
      5          1           0       -0.403182    3.073364    0.000000
      6          1           0       -0.615497    1.488378    0.000000
 ---------------------------------------------------------------------

 SCF Done:  E(RHF) =  -152.108193953     A.U. after   10 cycles
 E2 =    -0.5260475431D+00 EUMP2 =    -0.15263424149589D+03
 CCSD(T)
 CCSD(T)= -0.15266142065D+03

 The electronic state is 1-A'.
 Alpha  occ. eigenvalues --  -20.55902 -20.54517  -1.33185  -1.31815  -0.70591
 Alpha  occ. eigenvalues --   -0.69191  -0.56651  -0.55273  -0.50302  -0.48938
 Alpha virt. eigenvalues --    0.13113   0.15723   0.19904   0.22090   0.53999
 Alpha virt. eigenvalues --    0.54736   0.56980   0.58322   0.66399   0.72271
 Alpha virt. eigenvalues --    0.78574   0.79447   0.79928   0.81004   0.82460

 Mulliken charges:
               1
     1  O   -0.508048
     2  H    0.251513
     3  H    0.258338
     4  O   -0.511353
     5  H    0.247968
     6  H    0.261583
 Sum of Mulliken charges =  -0.00000

 Dipole moment (field-independent basis, Debye):
    X=             -1.9273    Y=             -1.7940    Z=              0.0000  Tot=              2.6330
 Quadrupole moment (field-independent basis, Debye-Ang):
   XX=             -9.8256   YY=             -0.3828   ZZ=            -14.7156
   XY=             -4.2183   XZ=              0.0000   YZ=              0.0000

 8629\MP4DQ=-152.6433055\MP4SDQ=-152.6463683\CCSD=-152.6457745\CCSD(T)=
 Normal termination of Gaussian 16 at Fri Aug 26 13:52:21 2022.
