 Gaussian 16, Revision A.03,
 Gaussian 16:  ES64L-G16RevA.03 25-Dec-2016

 ------------------
 #p CCSD(T)/cc-pVTZ
 ------------------

 ------------
 H2O_H2O_1841
 ------------
 Symbolic Z-matrix:
 Charge =  0 Multiplicity = 1

                         Standard orientation:
 ---------------------------------------------------------------------
 Center     Atomic      Atomic             Coordinates (Angstroms)
 Number     Number       Type             X           Y           Z
 ---------------------------------------------------------------------
      1          8           0        0.049530   -1.743309    0.000000
      2          1           0       -0.751411   -2.312518    0.000000
      3          1           0        0.847726   -2.316361    0.000000
      4          8           0        0.049530    1.800185    0.000000
      5          1           0       -0.042948    2.778425    0.000000
      6          1           0       -0.845845    1.395452    0.000000
 ---------------------------------------------------------------------

 SCF Done:  E(RHF) =  -152.106634075     A.U. after   10 cycles
 E2 =    -0.5265418972D+00 EUMP2 =    -0.15263317597203D+03
 CCSD(T)
 CCSD(T)= -0.15266036470D+03

 The electronic state is 1-A'.
 Alpha  occ. eigenvalues --  -20.55325 -20.54148  -1.32600  -1.31417  -0.70018
 Alpha  occ. eigenvalues --   -0.68794  -0.56010  -0.54766  -0.49711  -0.48533
 Alpha virt. eigenvalues --    0.13531   0.16304   0.20114   0.22427   0.53826
 Alpha virt. eigenvalues --    0.54672   0.57428   0.58562   0.64473   0.76411
 Alpha virt. eigenvalues --    0.78441   0.78473   0.79579   0.80913   0.85006

 Mulliken charges:
               1
     1  O   -0.494441
     2  H    0.243491
     3  H    0.253664
     4  O   -0.498963
     5  H    0.240203
     6  H    0.256046
 Sum of Mulliken charges =  -0.00000

 Dipole moment (field-independent basis, Debye):
    X=             -1.6534    Y=             -1.0594    Z=              0.0000  Tot=              1.9637
 Quadrupole moment (field-independent basis, Debye-Ang):
   XX=             -9.3604   YY=             -0.0386   ZZ=            -14.7146
   XY=             -2.3905   XZ=              0.0000   YZ=              0.0000

 Normal termination of Gaussian 16 at Sat Aug 27 07:06:53 2022.
