 Gaussian 16, Revision A.03,
 Gaussian 16:  ES64L-G16RevA.03 25-Dec-2016

 ------------------
 #p CCSD(T)/cc-pVTZ
 ------------------

 ------------
 H2O_H2O_3890
 ------------
 Symbolic Z-matrix:
 Charge =  0 Multiplicity = 1

                         Standard orientation:
 ---------------------------------------------------------------------
 Center     Atomic      Atomic             Coordinates (Angstroms)
 Number     Number       Type             X           Y           Z
 ---------------------------------------------------------------------
      1          8           0        0.047524   -2.836968    0.000000
      2          1           0       -0.752862   -3.406957    0.000000
      3          1           0        0.846279   -3.409241    0.000000
      4          8           0        0.047524    2.887598    0.000000
      5          1           0        0.018266    3.869764    0.000000
      6          1           0       -0.872068    2.541396    0.000000
 ---------------------------------------------------------------------

 SCF Done:  E(RHF) =  -152.107121479     A.U. after   10 cycles
 E2 =    -0.5259165688D+00 EUMP2 =    -0.15263303804764D+03
 CCSD(T)
 CCSD(T)= -0.15266026345D+03

 The electronic state is 1-A'.
 Alpha  occ. eigenvalues --  -20.55420 -20.55059  -1.32717  -1.32354  -0.70124
 Alpha  occ. eigenvalues --   -0.69754  -0.56151  -0.55788  -0.49827  -0.49465
 Alpha virt. eigenvalues --    0.14180   0.14635   0.20281   0.20690   0.54433
 Alpha virt. eigenvalues --    0.54827   0.57332   0.57695   0.67924   0.68574
 Alpha virt. eigenvalues --    0.79053   0.79408   0.80487   0.80861   0.82456

 Mulliken charges:
               1
     1  O   -0.507213
     2  H    0.252191
     3  H    0.255027
     4  O   -0.506908
     5  H    0.251097
     6  H    0.255806
 Sum of Mulliken charges =  -0.00000

 Dipole moment (field-independent basis, Debye):
    X=             -1.6305    Y=             -0.8878    Z=              0.0000  Tot=              1.8565
 Quadrupole moment (field-independent basis, Debye-Ang):
   XX=             -9.2248   YY=              7.1394   ZZ=            -14.7115
   XY=             -3.9471   XZ=              0.0000   YZ=              0.0000

 Normal termination of Gaussian 16 at Sat Aug 27 04:05:53 2022.
