 Gaussian 16, Revision A.03,
 Gaussian 16:  ES64L-G16RevA.03 25-Dec-2016

 ------------------
 #p CCSD(T)/cc-pVTZ
 ------------------

 ------------
 H2O_H2O_4892
 ------------
 Symbolic Z-matrix:
 Charge =  0 Multiplicity = 1

                         Standard orientation:
 ---------------------------------------------------------------------
 Center     Atomic      Atomic             Coordinates (Angstroms)
 Number     Number       Type             X           Y           Z
 ---------------------------------------------------------------------
      1          8           0        0.051265   -3.361776    0.000000
      2          1           0       -0.749048   -3.931869    0.000000
      3          1           0        0.850093   -3.933947    0.000000
      4          8           0        0.051265    3.425348    0.000000
      5          1           0       -0.106066    4.395273    0.000000
      6          1           0       -0.815212    2.961965    0.000000
 ---------------------------------------------------------------------

 SCF Done:  E(RHF) =  -152.107346191     A.U. after   10 cycles
 E2 =    -0.5258802814D+00 EUMP2 =    -0.15263322647197D+03
 CCSD(T)
 CCSD(T)= -0.15266044817D+03

 The electronic state is 1-A'.
 Alpha  occ. eigenvalues --  -20.55544 -20.55227  -1.32842  -1.32524  -0.70248
 Alpha  occ. eigenvalues --   -0.69926  -0.56287  -0.55968  -0.49953  -0.49636
 Alpha virt. eigenvalues --    0.14128   0.14445   0.20199   0.20533   0.54314
 Alpha virt. eigenvalues --    0.54647   0.57227   0.57544   0.67907   0.68233
 Alpha virt. eigenvalues --    0.78926   0.79239   0.80359   0.80697   0.82283

 Mulliken charges:
               1
     1  O   -0.508515
     2  H    0.253336
     3  H    0.255179
     4  O   -0.508337
     5  H    0.252517
     6  H    0.255820
 Sum of Mulliken charges =  -0.00000

 Dipole moment (field-independent basis, Debye):
    X=             -1.7636    Y=             -1.1081    Z=              0.0000  Tot=              2.0828
 Quadrupole moment (field-independent basis, Debye-Ang):
   XX=             -9.4579   YY=              9.1253   ZZ=            -14.7118
   XY=             -5.3964   XZ=              0.0000   YZ=              0.0000

 Normal termination of Gaussian 16 at Sat Aug 27 09:55:45 2022.
