 Gaussian 16, Revision A.03,
 Gaussian 16:  ES64L-G16RevA.03 25-Dec-2016

 ------------------
 #p CCSD(T)/cc-pVTZ
 ------------------

 ------------
 H2O_H2O_2316
 ------------
 Symbolic Z-matrix:
 Charge =  0 Multiplicity = 1

                         Standard orientation:
 ---------------------------------------------------------------------
 Center     Atomic      Atomic             Coordinates (Angstroms)
 Number     Number       Type             X           Y           Z
 ---------------------------------------------------------------------
      1          8           0        0.049521   -1.995916    0.000000
      2          1           0       -0.751249   -2.565365    0.000000
      3          1           0        0.847889   -2.568729    0.000000
      4          8           0        0.049521    2.052822    0.000000
      5          1           0       -0.043250    3.031034    0.000000
      6          1           0       -0.845732    1.647820    0.000000
 ---------------------------------------------------------------------

 SCF Done:  E(RHF) =  -152.106893053     A.U. after   10 cycles
 E2 =    -0.5261880068D+00 EUMP2 =    -0.15263308105987D+03
 CCSD(T)
 CCSD(T)= -0.15266028651D+03

 The electronic state is 1-A'.
 Alpha  occ. eigenvalues --  -20.55360 -20.54478  -1.32642  -1.31760  -0.70055
 Alpha  occ. eigenvalues --   -0.69143  -0.56051  -0.55166  -0.49751  -0.48875
 Alpha virt. eigenvalues --    0.13513   0.15793   0.20166   0.21748   0.53805
 Alpha virt. eigenvalues --    0.54811   0.57412   0.58271   0.65092   0.74648
 Alpha virt. eigenvalues --    0.79009   0.79689   0.80100   0.81712   0.83764

 Mulliken charges:
               1
     1  O   -0.502003
     2  H    0.247830
     3  H    0.255303
     4  O   -0.503633
     5  H    0.245332
     6  H    0.257171
 Sum of Mulliken charges =  -0.00000

 Dipole moment (field-independent basis, Debye):
    X=             -1.6744    Y=             -1.0343    Z=              0.0000  Tot=              1.9681
 Quadrupole moment (field-independent basis, Debye-Ang):
   XX=             -9.3513   YY=              1.5370   ZZ=            -14.7130
   XY=             -2.8089   XZ=              0.0000   YZ=              0.0000

 Normal termination of Gaussian 16 at Sat Aug 27 09:49:48 2022.
