 Gaussian 16, Revision A.03,
 Gaussian 16:  ES64L-G16RevA.03 25-Dec-2016

 ------------------
 #p CCSD(T)/cc-pVTZ
 ------------------

 ------------
 H2O_H2O_2961
 ------------
 Symbolic Z-matrix:
 Charge =  0 Multiplicity = 1

                         Standard orientation:
 ---------------------------------------------------------------------
 Center     Atomic      Atomic             Coordinates (Angstroms)
 Number     Number       Type             X           Y           Z
 ---------------------------------------------------------------------
      1          8           0        0.037677   -2.357177    0.000000
      2          1           0       -0.762674   -2.927215    0.000000
      3          1           0        0.836466   -2.929401    0.000000
      4          8           0        0.037677    2.385420    0.000000
      5          1           0        0.263560    3.341706    0.000000
      6          1           0       -0.940180    2.288963    0.000000
 ---------------------------------------------------------------------

 SCF Done:  E(RHF) =  -152.106459415     A.U. after   10 cycles
 E2 =    -0.5260244281D+00 EUMP2 =    -0.15263248384285D+03
 CCSD(T)
 CCSD(T)= -0.15265971938D+03

 The electronic state is 1-A'.
 Alpha  occ. eigenvalues --  -20.55116 -20.54819  -1.32409  -1.32109  -0.69819
 Alpha  occ. eigenvalues --   -0.69510  -0.55810  -0.55510  -0.49514  -0.49216
 Alpha virt. eigenvalues --    0.14137   0.15075   0.20419   0.20925   0.54566
 Alpha virt. eigenvalues --    0.55111   0.57580   0.57875   0.66776   0.70703
 Alpha virt. eigenvalues --    0.79357   0.79661   0.80724   0.81240   0.82725

 Mulliken charges:
               1
     1  O   -0.503212
     2  H    0.249718
     3  H    0.253551
     4  O   -0.502790
     5  H    0.248625
     6  H    0.254108
 Sum of Mulliken charges =  -0.00000

 Dipole moment (field-independent basis, Debye):
    X=             -1.2852    Y=             -0.5009    Z=              0.0000  Tot=              1.3794
 Quadrupole moment (field-independent basis, Debye-Ang):
   XX=             -8.7030   YY=              5.4105   ZZ=            -14.7107
   XY=             -2.2374   XZ=              0.0000   YZ=              0.0000

 Normal termination of Gaussian 16 at Fri Aug 26 17:50:26 2022.
