 Gaussian 16, Revision A.03,
 Gaussian 16:  ES64L-G16RevA.03 25-Dec-2016

 ------------------
 #p CCSD(T)/cc-pVTZ
 ------------------

 ------------
 H2O_H2O_2421
 ------------
 Symbolic Z-matrix:
 Charge =  0 Multiplicity = 1

                         Standard orientation:
 ---------------------------------------------------------------------
 Center     Atomic      Atomic             Coordinates (Angstroms)
 Number     Number       Type             X           Y           Z
 ---------------------------------------------------------------------
      1          8           0        0.056122   -2.030214    0.000000
      2          1           0       -0.744773   -2.599487    0.000000
      3          1           0        0.854365   -2.603201    0.000000
      4          8           0        0.056122    2.121895    0.000000
      5          1           0       -0.345965    3.018462    0.000000
      6          1           0       -0.661585    1.450775    0.000000
 ---------------------------------------------------------------------

 SCF Done:  E(RHF) =  -152.108061344     A.U. after   10 cycles
 E2 =    -0.5261089594D+00 EUMP2 =    -0.15263417030321D+03
 CCSD(T)
 CCSD(T)= -0.15266134842D+03

 The electronic state is 1-A'.
 Alpha  occ. eigenvalues --  -20.55841 -20.54444  -1.33120  -1.31739  -0.70528
 Alpha  occ. eigenvalues --   -0.69113  -0.56576  -0.55193  -0.50237  -0.48862
 Alpha virt. eigenvalues --    0.13141   0.15847   0.19929   0.22255   0.54085
 Alpha virt. eigenvalues --    0.54608   0.57031   0.58415   0.66109   0.73253
 Alpha virt. eigenvalues --    0.78604   0.79402   0.80031   0.81647   0.82291

 Mulliken charges:
               1
     1  O   -0.506216
     2  H    0.250417
     3  H    0.257921
     4  O   -0.510425
     5  H    0.246971
     6  H    0.261332
 Sum of Mulliken charges =  -0.00000

 Dipole moment (field-independent basis, Debye):
    X=             -1.9017    Y=             -1.6692    Z=              0.0000  Tot=              2.5304
 Quadrupole moment (field-independent basis, Debye-Ang):
   XX=             -9.7824   YY=             -0.2498   ZZ=            -14.7156
   XY=             -3.8934   XZ=              0.0000   YZ=              0.0000

 Normal termination of Gaussian 16 at Sat Aug 27 10:27:55 2022.
