 Gaussian 16, Revision A.03,
 Gaussian 16:  ES64L-G16RevA.03 25-Dec-2016

 ------------------
 #p CCSD(T)/cc-pVTZ
 ------------------

 ------------
 H2O_H2O_3702
 ------------
 Symbolic Z-matrix:
 Charge =  0 Multiplicity = 1

                         Standard orientation:
 ---------------------------------------------------------------------
 Center     Atomic      Atomic             Coordinates (Angstroms)
 Number     Number       Type             X           Y           Z
 ---------------------------------------------------------------------
      1          8           0        0.007455   -2.770865    0.000000
      2          1           0       -0.792248   -3.341812    0.000000
      3          1           0        0.806894   -3.342182    0.000000
      4          8           0        0.007455    2.771838    0.000000
      5          1           0        0.725793    3.442283    0.000000
      6          1           0       -0.859717    3.233920    0.000000
 ---------------------------------------------------------------------

 SCF Done:  E(RHF) =  -152.106506502     A.U. after   10 cycles
 E2 =    -0.5259711466D+00 EUMP2 =    -0.15263247764883D+03
 CCSD(T)
 CCSD(T)= -0.15265971619D+03

 The electronic state is 1-A'.
 Alpha  occ. eigenvalues --  -20.55058 -20.55051  -1.32352  -1.32345  -0.69761
 Alpha  occ. eigenvalues --   -0.69753  -0.55758  -0.55749  -0.49457  -0.49450
 Alpha virt. eigenvalues --    0.14474   0.14621   0.20549   0.20604   0.54788
 Alpha virt. eigenvalues --    0.54841   0.57642   0.57668   0.68222   0.68795
 Alpha virt. eigenvalues --    0.79419   0.79428   0.80859   0.80889   0.82777

 Mulliken charges:
               1
     1  O   -0.503556
     2  H    0.251533
     3  H    0.252022
     4  O   -0.503545
     5  H    0.251444
     6  H    0.252101
 Sum of Mulliken charges =  -0.00000

 Dipole moment (field-independent basis, Debye):
    X=             -0.2555    Y=             -0.0171    Z=              0.0000  Tot=              0.2560
 Quadrupole moment (field-independent basis, Debye-Ang):
   XX=             -7.8433   YY=             10.0656   ZZ=            -14.7102
   XY=             -0.4795   XZ=              0.0000   YZ=              0.0000

 Normal termination of Gaussian 16 at Sat Aug 27 02:36:55 2022.
