 Gaussian 16, Revision A.03,
 Gaussian 16:  ES64L-G16RevA.03 25-Dec-2016

 ------------------
 #p CCSD(T)/cc-pVTZ
 ------------------

 ------------
 H2O_H2O_2678
 ------------
 Symbolic Z-matrix:
 Charge =  0 Multiplicity = 1

                         Standard orientation:
 ---------------------------------------------------------------------
 Center     Atomic      Atomic             Coordinates (Angstroms)
 Number     Number       Type             X           Y           Z
 ---------------------------------------------------------------------
      1          8           0        0.011143   -2.225075    0.000000
      2          1           0       -0.788674   -2.795862    0.000000
      3          1           0        0.810468   -2.796551    0.000000
      4          8           0        0.011143    2.227260    0.000000
      5          1           0        0.684236    2.943116    0.000000
      6          1           0       -0.884313    2.631815    0.000000
 ---------------------------------------------------------------------

 SCF Done:  E(RHF) =  -152.105709852     A.U. after   10 cycles
 E2 =    -0.5261184934D+00 EUMP2 =    -0.15263182834515D+03
 CCSD(T)
 CCSD(T)= -0.15265907718D+03

 The electronic state is 1-A'.
 Alpha  occ. eigenvalues --  -20.54770 -20.54744  -1.32060  -1.32033  -0.69473
 Alpha  occ. eigenvalues --   -0.69445  -0.55471  -0.55342  -0.49161  -0.49132
 Alpha virt. eigenvalues --    0.14315   0.15218   0.20618   0.20909   0.54737
 Alpha virt. eigenvalues --    0.55470   0.57813   0.57960   0.65297   0.72243
 Alpha virt. eigenvalues --    0.79612   0.79838   0.81179   0.81182   0.82183

 Mulliken charges:
               1
     1  O   -0.498696
     2  H    0.248684
     3  H    0.250019
     4  O   -0.498626
     5  H    0.248485
     6  H    0.250133
 Sum of Mulliken charges =  -0.00000

 Dipole moment (field-independent basis, Debye):
    X=             -0.3790    Y=             -0.0389    Z=              0.0000  Tot=              0.3810
 Quadrupole moment (field-independent basis, Debye-Ang):
   XX=             -7.9011   YY=              5.6152   ZZ=            -14.7096
   XY=             -0.5162   XZ=              0.0000   YZ=              0.0000

 Normal termination of Gaussian 16 at Fri Aug 26 14:59:18 2022.
