 Gaussian 16, Revision A.03,
 Gaussian 16:  ES64L-G16RevA.03 25-Dec-2016

 ------------------
 #p CCSD(T)/cc-pVTZ
 ------------------

 ------------
 H2O_H2O_3103
 ------------
 Symbolic Z-matrix:
 Charge =  0 Multiplicity = 1

                         Standard orientation:
 ---------------------------------------------------------------------
 Center     Atomic      Atomic             Coordinates (Angstroms)
 Number     Number       Type             X           Y           Z
 ---------------------------------------------------------------------
      1          8           0        0.011143   -2.451104    0.000000
      2          1           0       -0.788652   -3.021923    0.000000
      3          1           0        0.810490   -3.022549    0.000000
      4          8           0        0.011143    2.453290    0.000000
      5          1           0        0.684208    3.169174    0.000000
      6          1           0       -0.884329    2.857810    0.000000
 ---------------------------------------------------------------------

 SCF Done:  E(RHF) =  -152.106114378     A.U. after   10 cycles
 E2 =    -0.5260327455D+00 EUMP2 =    -0.15263214712342D+03
 CCSD(T)
 CCSD(T)= -0.15265939214D+03

 The electronic state is 1-A'.
 Alpha  occ. eigenvalues --  -20.54913 -20.54892  -1.32205  -1.32184  -0.69616
 Alpha  occ. eigenvalues --   -0.69594  -0.55600  -0.55558  -0.49308  -0.49286
 Alpha virt. eigenvalues --    0.14423   0.14903   0.20595   0.20755   0.54835
 Alpha virt. eigenvalues --    0.55100   0.57737   0.57815   0.67259   0.70142
 Alpha virt. eigenvalues --    0.79549   0.79607   0.80983   0.81092   0.82658

 Mulliken charges:
               1
     1  O   -0.501253
     2  H    0.250114
     3  H    0.251141
     4  O   -0.501207
     5  H    0.249941
     6  H    0.251264
 Sum of Mulliken charges =  -0.00000

 Dipole moment (field-independent basis, Debye):
    X=             -0.3805    Y=             -0.0386    Z=              0.0000  Tot=              0.3824
 Quadrupole moment (field-independent basis, Debye-Ang):
   XX=             -7.8934   YY=              7.4356   ZZ=            -14.7098
   XY=             -0.6008   XZ=              0.0000   YZ=              0.0000

 Normal termination of Gaussian 16 at Fri Aug 26 19:27:31 2022.
