 Gaussian 16, Revision A.03,
 Gaussian 16:  ES64L-G16RevA.03 25-Dec-2016

 ------------------
 #p CCSD(T)/cc-pVTZ
 ------------------

 ------------
 H2O_H2O_1122
 ------------
 Symbolic Z-matrix:
 Charge =  0 Multiplicity = 1

                         Standard orientation:
 ---------------------------------------------------------------------
 Center     Atomic      Atomic             Coordinates (Angstroms)
 Number     Number       Type             X           Y           Z
 ---------------------------------------------------------------------
      1          8           0        0.056799   -1.334894    0.000000
      2          1           0       -0.744778   -1.903207    0.000000
      3          1           0        0.854354   -1.908838    0.000000
      4          8           0        0.056799    1.433811    0.000000
      5          1           0       -0.402025    2.302711    0.000000
      6          1           0       -0.616337    0.717994    0.000000
 ---------------------------------------------------------------------

 SCF Done:  E(RHF) =  -152.106942508     A.U. after   10 cycles
 E2 =    -0.5283778499D+00 EUMP2 =    -0.15263532035767D+03
 CCSD(T)
 CCSD(T)= -0.15266236357D+03

 The electronic state is 1-A'.
 Alpha  occ. eigenvalues --  -20.56489 -20.52750  -1.33940  -1.30106  -0.71322
 Alpha  occ. eigenvalues --   -0.68000  -0.56898  -0.53625  -0.51030  -0.47215
 Alpha virt. eigenvalues --    0.13084   0.17661   0.19557   0.25627   0.51696
 Alpha virt. eigenvalues --    0.56410   0.57745   0.59668   0.70328   0.74342
 Alpha virt. eigenvalues --    0.74744   0.79611   0.82449   0.83905   0.84016

 Mulliken charges:
               1
     1  O   -0.482311
     2  H    0.241088
     3  H    0.257722
     4  O   -0.511029
     5  H    0.229704
     6  H    0.264826
 Sum of Mulliken charges =  -0.00000

 Dipole moment (field-independent basis, Debye):
    X=             -1.8248    Y=             -2.0064    Z=              0.0000  Tot=              2.7121
 Quadrupole moment (field-independent basis, Debye-Ang):
   XX=             -9.8320   YY=             -4.1602   ZZ=            -14.7263
   XY=             -2.7737   XZ=              0.0000   YZ=              0.0000

 Normal termination of Gaussian 16 at Sat Aug 27 02:18:22 2022.
