 Gaussian 16, Revision A.03,
 Gaussian 16:  ES64L-G16RevA.03 25-Dec-2016

 ------------------
 #p CCSD(T)/cc-pVTZ
 ------------------

 ----------
 H2O_H2O_65
 ----------
 Symbolic Z-matrix:
 Charge =  0 Multiplicity = 1

                         Standard orientation:
 ---------------------------------------------------------------------
 Center     Atomic      Atomic             Coordinates (Angstroms)
 Number     Number       Type             X           Y           Z
 ---------------------------------------------------------------------
      1          8           0        0.047613   -0.802868    0.000000
      2          1           0       -0.754768   -1.370045    0.000000
      3          1           0        0.844354   -1.377940    0.000000
      4          8           0        0.047613    0.853164    0.000000
      5          1           0        0.021801    1.835427    0.000000
      6          1           0       -0.873189    0.510190    0.000000
 ---------------------------------------------------------------------

 SCF Done:  E(RHF) =  -151.941381364     A.U. after   12 cycles
 E2 =    -0.5487128803D+00 EUMP2 =    -0.15249009424456D+03
 CCSD(T)
 CCSD(T)= -0.15251518666D+03

 The electronic state is 1-A'.
 Alpha  occ. eigenvalues --  -20.53302 -20.51095  -1.38531  -1.26596  -0.74963
 Alpha  occ. eigenvalues --   -0.70589  -0.57465  -0.53766  -0.43438  -0.38664
 Alpha virt. eigenvalues --    0.13800   0.19031   0.19738   0.24117   0.52123
 Alpha virt. eigenvalues --    0.56463   0.59052   0.66064   0.73369   0.77059
 Alpha virt. eigenvalues --    0.80895   0.81554   0.82767   0.83895   0.89076

 Mulliken charges:
               1
     1  O   -0.331800
     2  H    0.152319
     3  H    0.194846
     4  O   -0.354151
     5  H    0.101218
     6  H    0.237568
 Sum of Mulliken charges =  -0.00000

 Dipole moment (field-independent basis, Debye):
    X=             -1.2492    Y=             -1.1662    Z=              0.0000  Tot=              1.7090
 Quadrupole moment (field-independent basis, Debye-Ang):
   XX=             -9.4652   YY=             -8.7182   ZZ=            -14.6262
   XY=             -0.7732   XZ=              0.0000   YZ=              0.0000

 Normal termination of Gaussian 16 at Fri Aug 26 12:24:44 2022.
