 Gaussian 16, Revision A.03,
 Gaussian 16:  ES64L-G16RevA.03 25-Dec-2016

 ------------------
 #p CCSD(T)/cc-pVTZ
 ------------------

 ------------
 H2O_H2O_4168
 ------------
 Symbolic Z-matrix:
 Charge =  0 Multiplicity = 1

                         Standard orientation:
 ---------------------------------------------------------------------
 Center     Atomic      Atomic             Coordinates (Angstroms)
 Number     Number       Type             X           Y           Z
 ---------------------------------------------------------------------
      1          8           0        0.052819   -2.972511    0.000000
      2          1           0       -0.747614   -3.542435    0.000000
      3          1           0        0.851526   -3.544850    0.000000
      4          8           0        0.052819    3.042865    0.000000
      5          1           0       -0.167409    4.000470    0.000000
      6          1           0       -0.781606    2.523981    0.000000
 ---------------------------------------------------------------------

 SCF Done:  E(RHF) =  -152.107354707     A.U. after   10 cycles
 E2 =    -0.5258901723D+00 EUMP2 =    -0.15263324487886D+03
 CCSD(T)
 CCSD(T)= -0.15266046569D+03

 The electronic state is 1-A'.
 Alpha  occ. eigenvalues --  -20.55556 -20.55103  -1.32855  -1.32400  -0.70261
 Alpha  occ. eigenvalues --   -0.69799  -0.56300  -0.55843  -0.49966  -0.49513
 Alpha virt. eigenvalues --    0.14086   0.14589   0.20182   0.20677   0.54298
 Alpha virt. eigenvalues --    0.54777   0.57214   0.57667   0.67832   0.68421
 Alpha virt. eigenvalues --    0.78914   0.79359   0.80345   0.80813   0.82304

 Mulliken charges:
               1
     1  O   -0.508588
     2  H    0.252952
     3  H    0.255639
     4  O   -0.508277
     5  H    0.251690
     6  H    0.256583
 Sum of Mulliken charges =  -0.00000

 Dipole moment (field-independent basis, Debye):
    X=             -1.8140    Y=             -1.2316    Z=              0.0000  Tot=              2.1926
 Quadrupole moment (field-independent basis, Debye-Ang):
   XX=             -9.5592   YY=              6.2770   ZZ=            -14.7120
   XY=             -4.9766   XZ=              0.0000   YZ=              0.0000

 Normal termination of Gaussian 16 at Sat Aug 27 05:46:01 2022.
