 Gaussian 16, Revision A.03,
 Gaussian 16:  ES64L-G16RevA.03 25-Dec-2016

 ------------------
 #p CCSD(T)/cc-pVTZ
 ------------------

 ------------
 H2O_H2O_4505
 ------------
 Symbolic Z-matrix:
 Charge =  0 Multiplicity = 1

                         Standard orientation:
 ---------------------------------------------------------------------
 Center     Atomic      Atomic             Coordinates (Angstroms)
 Number     Number       Type             X           Y           Z
 ---------------------------------------------------------------------
      1          8           0        0.018360   -3.193580    0.000000
      2          1           0       -0.781493   -3.764317    0.000000
      3          1           0        0.817648   -3.765107    0.000000
      4          8           0        0.018360    3.199624    0.000000
      5          1           0        0.592308    3.997176    0.000000
      6          1           0       -0.922222    3.483898    0.000000
 ---------------------------------------------------------------------

 SCF Done:  E(RHF) =  -152.106881734     A.U. after   10 cycles
 E2 =    -0.5259240278D+00 EUMP2 =    -0.15263280576217D+03
 CCSD(T)
 CCSD(T)= -0.15266003716D+03

 The electronic state is 1-A'.
 Alpha  occ. eigenvalues --  -20.55230 -20.55196  -1.32526  -1.32492  -0.69933
 Alpha  occ. eigenvalues --   -0.69898  -0.55949  -0.55915  -0.49633  -0.49599
 Alpha virt. eigenvalues --    0.14400   0.14442   0.20450   0.20488   0.54635
 Alpha virt. eigenvalues --    0.54673   0.57507   0.57542   0.68270   0.68328
 Alpha virt. eigenvalues --    0.79246   0.79279   0.80688   0.80725   0.82615

 Mulliken charges:
               1
     1  O   -0.505761
     2  H    0.252478
     3  H    0.253283
     4  O   -0.505727
     5  H    0.252289
     6  H    0.253439
 Sum of Mulliken charges =  -0.00000

 Dipole moment (field-independent basis, Debye):
    X=             -0.6309    Y=             -0.1054    Z=              0.0000  Tot=              0.6397
 Quadrupole moment (field-independent basis, Debye-Ang):
   XX=             -8.0147   YY=             13.0662   ZZ=            -14.7108
   XY=             -1.4758   XZ=              0.0000   YZ=              0.0000

 Normal termination of Gaussian 16 at Sat Aug 27 07:42:08 2022.
