 Gaussian 16, Revision A.03,
 Gaussian 16:  ES64L-G16RevA.03 25-Dec-2016

 ------------------
 #p CCSD(T)/cc-pVTZ
 ------------------

 -----------
 H2O_H2O_765
 -----------
 Symbolic Z-matrix:
 Charge =  0 Multiplicity = 1

                         Standard orientation:
 ---------------------------------------------------------------------
 Center     Atomic      Atomic             Coordinates (Angstroms)
 Number     Number       Type             X           Y           Z
 ---------------------------------------------------------------------
      1          8           0        0.047574   -1.175077    0.000000
      2          1           0       -0.753937   -1.743483    0.000000
      3          1           0        0.845195   -1.748929    0.000000
      4          8           0        0.047574    1.225519    0.000000
      5          1           0        0.020258    2.207742    0.000000
      6          1           0       -0.872701    0.881136    0.000000
 ---------------------------------------------------------------------

 SCF Done:  E(RHF) =  -152.094168812     A.U. after   11 cycles
 E2 =    -0.5300139916D+00 EUMP2 =    -0.15262418280377D+03
 CCSD(T)
 CCSD(T)= -0.15265133256D+03

 The electronic state is 1-A'.
 Alpha  occ. eigenvalues --  -20.54556 -20.52709  -1.32431  -1.29907  -0.69793
 Alpha  occ. eigenvalues --   -0.67918  -0.56498  -0.51480  -0.49582  -0.46833
 Alpha virt. eigenvalues --    0.13869   0.17640   0.20059   0.23712   0.53042
 Alpha virt. eigenvalues --    0.57579   0.58577   0.60712   0.71065   0.75204
 Alpha virt. eigenvalues --    0.78193   0.81035   0.83192   0.85194   0.87034

 Mulliken charges:
               1
     1  O   -0.465380
     2  H    0.225980
     3  H    0.244831
     4  O   -0.459557
     5  H    0.207353
     6  H    0.246774
 Sum of Mulliken charges =  -0.00000

 Dipole moment (field-independent basis, Debye):
    X=             -1.4685    Y=             -1.0018    Z=              0.0000  Tot=              1.7777
 Quadrupole moment (field-independent basis, Debye-Ang):
   XX=             -9.3212   YY=             -3.9464   ZZ=            -14.7246
   XY=             -1.3181   XZ=              0.0000   YZ=              0.0000

 Normal termination of Gaussian 16 at Fri Aug 26 19:47:23 2022.
