 Gaussian 16, Revision A.03,
 Gaussian 16:  ES64L-G16RevA.03 25-Dec-2016

 ------------------
 #p CCSD(T)/cc-pVTZ
 ------------------

 ------------
 H2O_H2O_2975
 ------------
 Symbolic Z-matrix:
 Charge =  0 Multiplicity = 1

                         Standard orientation:
 ---------------------------------------------------------------------
 Center     Atomic      Atomic             Coordinates (Angstroms)
 Number     Number       Type             X           Y           Z
 ---------------------------------------------------------------------
      1          8           0        0.000000   -0.000000    2.385812
      2          1           0        0.000000    0.799571    2.956944
      3          1           0       -0.000000   -0.799571    2.956944
      4          8           0        0.000000   -0.000000   -2.385812
      5          1           0       -0.000000   -0.799571   -2.956944
      6          1           0        0.000000    0.799571   -2.956944
 ---------------------------------------------------------------------

 SCF Done:  E(RHF) =  -152.105968786     A.U. after   10 cycles
 E2 =    -0.5260552691D+00 EUMP2 =    -0.15263202405464D+03
 CCSD(T)
 CCSD(T)= -0.15265927133D+03

 The electronic state is 1-AG.
 Alpha  occ. eigenvalues --  -20.54854 -20.54854  -1.32146  -1.32145  -0.69558
 Alpha  occ. eigenvalues --   -0.69555  -0.55549  -0.55494  -0.49250  -0.49244
 Alpha virt. eigenvalues --    0.14415   0.14982   0.20616   0.20790   0.54845
 Alpha virt. eigenvalues --    0.55193   0.57769   0.57856   0.66815   0.70672
 Alpha virt. eigenvalues --    0.79585   0.79669   0.81041   0.81135   0.82548

 Mulliken charges:
               1
     1  O   -0.500378
     2  H    0.250189
     3  H    0.250189
     4  O   -0.500378
     5  H    0.250189
     6  H    0.250189
 Sum of Mulliken charges =   0.00000

 Dipole moment (field-independent basis, Debye):
    X=             -0.0000    Y=              0.0000    Z=              0.0000  Tot=              0.0000
 Quadrupole moment (field-independent basis, Debye-Ang):
   XX=            -14.7097   YY=             -7.8180   ZZ=              7.0088
   XY=              0.0000   XZ=              0.0000   YZ=             -0.0000

 2\MP4DQ=-152.6411405\MP4SDQ=-152.6442092\CCSD=-152.6436175\CCSD(T)=-15
 Normal termination of Gaussian 16 at Fri Aug 26 17:58:29 2022.
