 Gaussian 16, Revision A.03,
 Gaussian 16:  ES64L-G16RevA.03 25-Dec-2016

 ------------------
 #p CCSD(T)/cc-pVTZ
 ------------------

 ------------
 H2O_H2O_3985
 ------------
 Symbolic Z-matrix:
 Charge =  0 Multiplicity = 1

                         Standard orientation:
 ---------------------------------------------------------------------
 Center     Atomic      Atomic             Coordinates (Angstroms)
 Number     Number       Type             X           Y           Z
 ---------------------------------------------------------------------
      1          8           0        0.034780   -2.904868    0.000000
      2          1           0       -0.765376   -3.475179    0.000000
      3          1           0        0.833765   -3.476820    0.000000
      4          8           0        0.034780    2.928401    0.000000
      5          1           0        0.322405    3.867964    0.000000
      6          1           0       -0.947280    2.895770    0.000000
 ---------------------------------------------------------------------

 SCF Done:  E(RHF) =  -152.106865058     A.U. after   10 cycles
 E2 =    -0.5259347921D+00 EUMP2 =    -0.15263279985042D+03
 CCSD(T)
 CCSD(T)= -0.15266003105D+03

 The electronic state is 1-A'.
 Alpha  occ. eigenvalues --  -20.55257 -20.55097  -1.32553  -1.32391  -0.69960
 Alpha  occ. eigenvalues --   -0.69795  -0.55975  -0.55814  -0.49660  -0.49500
 Alpha virt. eigenvalues --    0.14349   0.14559   0.20415   0.20596   0.54604
 Alpha virt. eigenvalues --    0.54785   0.57478   0.57641   0.68169   0.68510
 Alpha virt. eigenvalues --    0.79219   0.79377   0.80660   0.80836   0.82594

 Mulliken charges:
               1
     1  O   -0.505682
     2  H    0.251852
     3  H    0.253831
     4  O   -0.505515
     5  H    0.251281
     6  H    0.254233
 Sum of Mulliken charges =  -0.00000

 Dipole moment (field-independent basis, Debye):
    X=             -1.1934    Y=             -0.4120    Z=              0.0000  Tot=              1.2625
 Quadrupole moment (field-independent basis, Debye-Ang):
   XX=             -8.5656   YY=              9.6222   ZZ=            -14.7109
   XY=             -2.6560   XZ=              0.0000   YZ=              0.0000

 Normal termination of Gaussian 16 at Sat Aug 27 04:44:08 2022.
