 Gaussian 16, Revision A.03,
 Gaussian 16:  ES64L-G16RevA.03 25-Dec-2016

 ------------------
 #p CCSD(T)/cc-pVTZ
 ------------------

 ------------
 H2O_H2O_2215
 ------------
 Symbolic Z-matrix:
 Charge =  0 Multiplicity = 1

                         Standard orientation:
 ---------------------------------------------------------------------
 Center     Atomic      Atomic             Coordinates (Angstroms)
 Number     Number       Type             X           Y           Z
 ---------------------------------------------------------------------
      1          8           0        0.047540   -1.946174    0.000000
      2          1           0       -0.753213   -2.515647    0.000000
      3          1           0        0.845925   -2.518963    0.000000
      4          8           0        0.047540    1.996743    0.000000
      5          1           0        0.018916    2.978927    0.000000
      6          1           0       -0.872275    1.651134    0.000000
 ---------------------------------------------------------------------

 SCF Done:  E(RHF) =  -152.106638099     A.U. after   10 cycles
 E2 =    -0.5262503647D+00 EUMP2 =    -0.15263288846334D+03
 CCSD(T)
 CCSD(T)= -0.15266009600D+03

 The electronic state is 1-A'.
 Alpha  occ. eigenvalues --  -20.55259 -20.54434  -1.32540  -1.31714  -0.69954
 Alpha  occ. eigenvalues --   -0.69097  -0.55941  -0.55098  -0.49648  -0.48827
 Alpha virt. eigenvalues --    0.13572   0.15868   0.20206   0.21762   0.53648
 Alpha virt. eigenvalues --    0.54903   0.57490   0.58316   0.64645   0.75207
 Alpha virt. eigenvalues --    0.79027   0.79569   0.80224   0.81411   0.83933

 Mulliken charges:
               1
     1  O   -0.500077
     2  H    0.246769
     3  H    0.254466
     4  O   -0.501660
     5  H    0.244369
     6  H    0.256132
 Sum of Mulliken charges =   0.00000

 Dipole moment (field-independent basis, Debye):
    X=             -1.6040    Y=             -0.9224    Z=              0.0000  Tot=              1.8503
 Quadrupole moment (field-independent basis, Debye-Ang):
   XX=             -9.2338   YY=              1.5289   ZZ=            -14.7128
   XY=             -2.5175   XZ=              0.0000   YZ=              0.0000

 Normal termination of Gaussian 16 at Sat Aug 27 09:15:31 2022.
