 Gaussian 16, Revision A.03,
 Gaussian 16:  ES64L-G16RevA.03 25-Dec-2016

 ------------------
 #p CCSD(T)/cc-pVTZ
 ------------------

 ------------
 H2O_H2O_2725
 ------------
 Symbolic Z-matrix:
 Charge =  0 Multiplicity = 1

                         Standard orientation:
 ---------------------------------------------------------------------
 Center     Atomic      Atomic             Coordinates (Angstroms)
 Number     Number       Type             X           Y           Z
 ---------------------------------------------------------------------
      1          8           0        0.000000   -0.000000    2.252853
      2          1           0        0.000000    0.799571    2.823985
      3          1           0       -0.000000   -0.799571    2.823985
      4          8           0        0.000000   -0.000000   -2.252853
      5          1           0       -0.000000   -0.799571   -2.823985
      6          1           0        0.000000    0.799571   -2.823985
 ---------------------------------------------------------------------

 SCF Done:  E(RHF) =  -152.105718507     A.U. after   10 cycles
 E2 =    -0.5261081988D+00 EUMP2 =    -0.15263182670584D+03
 CCSD(T)
 CCSD(T)= -0.15265907633D+03

 The electronic state is 1-AG.
 Alpha  occ. eigenvalues --  -20.54766 -20.54766  -1.32057  -1.32054  -0.69470
 Alpha  occ. eigenvalues --   -0.69466  -0.55473  -0.55360  -0.49162  -0.49149
 Alpha virt. eigenvalues --    0.14352   0.15171   0.20631   0.20880   0.54789
 Alpha virt. eigenvalues --    0.55429   0.57814   0.57944   0.65565   0.71972
 Alpha virt. eigenvalues --    0.79621   0.79813   0.81183   0.81184   0.82219

 Mulliken charges:
               1
     1  O   -0.498795
     2  H    0.249398
     3  H    0.249398
     4  O   -0.498795
     5  H    0.249398
     6  H    0.249398
 Sum of Mulliken charges =  -0.00000

 Dipole moment (field-independent basis, Debye):
    X=             -0.0000    Y=              0.0000    Z=              0.0000  Tot=              0.0000
 Quadrupole moment (field-independent basis, Debye-Ang):
   XX=            -14.7095   YY=             -7.8229   ZZ=              5.9270
   XY=              0.0000   XZ=              0.0000   YZ=             -0.0000

 8\MP4DQ=-152.6409361\MP4SDQ=-152.6440081\CCSD=-152.6434149\CCSD(T)=-15
 Normal termination of Gaussian 16 at Fri Aug 26 15:29:53 2022.
