 Gaussian 16, Revision A.03,
 Gaussian 16:  ES64L-G16RevA.03 25-Dec-2016

 ------------------
 #p CCSD(T)/cc-pVTZ
 ------------------

 ------------
 H2O_H2O_1373
 ------------
 Symbolic Z-matrix:
 Charge =  0 Multiplicity = 1

                         Standard orientation:
 ---------------------------------------------------------------------
 Center     Atomic      Atomic             Coordinates (Angstroms)
 Number     Number       Type             X           Y           Z
 ---------------------------------------------------------------------
      1          8           0        0.057163   -1.463798    0.000000
      2          1           0       -0.744251   -2.032341    0.000000
      3          1           0        0.854883   -2.037513    0.000000
      4          8           0        0.057163    1.570184    0.000000
      5          1           0       -0.457748    2.407067    0.000000
      6          1           0       -0.567497    0.811694    0.000000
 ---------------------------------------------------------------------

 SCF Done:  E(RHF) =  -152.109322988     A.U. after   10 cycles
 E2 =    -0.5274362806D+00 EUMP2 =    -0.15263675926857D+03
 CCSD(T)
 CCSD(T)= -0.15266383123D+03

 The electronic state is 1-A'.
 Alpha  occ. eigenvalues --  -20.56588 -20.53186  -1.33911  -1.30522  -0.71302
 Alpha  occ. eigenvalues --   -0.68088  -0.57253  -0.54026  -0.51024  -0.47653
 Alpha virt. eigenvalues --    0.12971   0.17316   0.19557   0.25619   0.52032
 Alpha virt. eigenvalues --    0.55866   0.56720   0.58799   0.68858   0.74709
 Alpha virt. eigenvalues --    0.75276   0.77609   0.81894   0.82096   0.84029

 Mulliken charges:
               1
     1  O   -0.491969
     2  H    0.245386
     3  H    0.260378
     4  O   -0.516156
     5  H    0.236651
     6  H    0.265708
 Sum of Mulliken charges =  -0.00000

 Dipole moment (field-independent basis, Debye):
    X=             -1.8710    Y=             -2.1047    Z=              0.0000  Tot=              2.8161
 Quadrupole moment (field-independent basis, Debye-Ang):
   XX=             -9.8531   YY=             -3.7985   ZZ=            -14.7269
   XY=             -3.1707   XZ=              0.0000   YZ=              0.0000

 Normal termination of Gaussian 16 at Sat Aug 27 04:19:25 2022.
