 Gaussian 16, Revision A.03,
 Gaussian 16:  ES64L-G16RevA.03 25-Dec-2016

 ------------------
 #p CCSD(T)/cc-pVTZ
 ------------------

 ------------
 H2O_H2O_3777
 ------------
 Symbolic Z-matrix:
 Charge =  0 Multiplicity = 1

                         Standard orientation:
 ---------------------------------------------------------------------
 Center     Atomic      Atomic             Coordinates (Angstroms)
 Number     Number       Type             X           Y           Z
 ---------------------------------------------------------------------
      1          8           0        0.007455   -2.810752    0.000000
      2          1           0       -0.792246   -3.381702    0.000000
      3          1           0        0.806896   -3.382067    0.000000
      4          8           0        0.007455    2.811726    0.000000
      5          1           0        0.725791    3.482173    0.000000
      6          1           0       -0.859719    3.273805    0.000000
 ---------------------------------------------------------------------

 SCF Done:  E(RHF) =  -152.106546666     A.U. after   10 cycles
 E2 =    -0.5259656456D+00 EUMP2 =    -0.15263251231191D+03
 CCSD(T)
 CCSD(T)= -0.15265975011D+03

 The electronic state is 1-A'.
 Alpha  occ. eigenvalues --  -20.55074 -20.55067  -1.32369  -1.32362  -0.69777
 Alpha  occ. eigenvalues --   -0.69770  -0.55776  -0.55768  -0.49474  -0.49467
 Alpha virt. eigenvalues --    0.14472   0.14597   0.20542   0.20589   0.54777
 Alpha virt. eigenvalues --    0.54820   0.57630   0.57653   0.68258   0.68716
 Alpha virt. eigenvalues --    0.79403   0.79411   0.80845   0.80868   0.82769

 Mulliken charges:
               1
     1  O   -0.503791
     2  H    0.251661
     3  H    0.252131
     4  O   -0.503781
     5  H    0.251573
     6  H    0.252208
 Sum of Mulliken charges =  -0.00000

 Dipole moment (field-independent basis, Debye):
    X=             -0.2555    Y=             -0.0171    Z=              0.0000  Tot=              0.2561
 Quadrupole moment (field-independent basis, Debye-Ang):
   XX=             -7.8426   YY=             10.3853   ZZ=            -14.7103
   XY=             -0.4896   XZ=              0.0000   YZ=              0.0000

 Normal termination of Gaussian 16 at Sat Aug 27 03:13:42 2022.
