 Gaussian 16, Revision A.03,
 Gaussian 16:  ES64L-G16RevA.03 25-Dec-2016

 ------------------
 #p CCSD(T)/cc-pVTZ
 ------------------

 ------------
 H2O_H2O_1434
 ------------
 Symbolic Z-matrix:
 Charge =  0 Multiplicity = 1

                         Standard orientation:
 ---------------------------------------------------------------------
 Center     Atomic      Atomic             Coordinates (Angstroms)
 Number     Number       Type             X           Y           Z
 ---------------------------------------------------------------------
      1          8           0        0.031747   -1.551070    0.000000
      2          1           0       -0.768822   -2.120801    0.000000
      3          1           0        0.830317   -2.123600    0.000000
      4          8           0        0.031747    1.570209    0.000000
      5          1           0        0.380870    2.488696    0.000000
      6          1           0       -0.950321    1.602589    0.000000
 ---------------------------------------------------------------------

 SCF Done:  E(RHF) =  -152.103352418     A.U. after   10 cycles
 E2 =    -0.5271553347D+00 EUMP2 =    -0.15263050775263D+03
 CCSD(T)
 CCSD(T)= -0.15265776062D+03

 The electronic state is 1-A'.
 Alpha  occ. eigenvalues --  -20.54374 -20.53918  -1.31683  -1.31175  -0.69109
 Alpha  occ. eigenvalues --   -0.68593  -0.55609  -0.53699  -0.48821  -0.48221
 Alpha virt. eigenvalues --    0.14107   0.16586   0.20426   0.22045   0.52811
 Alpha virt. eigenvalues --    0.57597   0.58106   0.58813   0.65155   0.76828
 Alpha virt. eigenvalues --    0.77890   0.78768   0.79089   0.82249   0.85734

 Mulliken charges:
               1
     1  O   -0.479984
     2  H    0.235796
     3  H    0.245077
     4  O   -0.477791
     5  H    0.232842
     6  H    0.244061
 Sum of Mulliken charges =  -0.00000

 Dipole moment (field-independent basis, Debye):
    X=             -1.0430    Y=             -0.3611    Z=              0.0000  Tot=              1.1037
 Quadrupole moment (field-independent basis, Debye-Ang):
   XX=             -8.5016   YY=             -0.2945   ZZ=            -14.7117
   XY=             -0.9375   XZ=              0.0000   YZ=              0.0000

 Normal termination of Gaussian 16 at Sat Aug 27 04:44:38 2022.
