 Gaussian 16, Revision A.03,
 Gaussian 16:  ES64L-G16RevA.03 25-Dec-2016

 ------------------
 #p CCSD(T)/cc-pVTZ
 ------------------

 ------------
 H2O_H2O_3882
 ------------
 Symbolic Z-matrix:
 Charge =  0 Multiplicity = 1

                         Standard orientation:
 ---------------------------------------------------------------------
 Center     Atomic      Atomic             Coordinates (Angstroms)
 Number     Number       Type             X           Y           Z
 ---------------------------------------------------------------------
      1          8           0        0.025265   -2.858088    0.000000
      2          1           0       -0.774739   -3.428613    0.000000
      3          1           0        0.824402   -3.429827    0.000000
      4          8           0        0.025265    2.869830    0.000000
      5          1           0        0.490430    3.735351    0.000000
      6          1           0       -0.944333    3.029157    0.000000
 ---------------------------------------------------------------------

 SCF Done:  E(RHF) =  -152.106707563     A.U. after   10 cycles
 E2 =    -0.5259499934D+00 EUMP2 =    -0.15263265755594D+03
 CCSD(T)
 CCSD(T)= -0.15265989203D+03

 The electronic state is 1-A'.
 Alpha  occ. eigenvalues --  -20.55165 -20.55083  -1.32460  -1.32377  -0.69868
 Alpha  occ. eigenvalues --   -0.69783  -0.55875  -0.55792  -0.49567  -0.49484
 Alpha virt. eigenvalues --    0.14417   0.14571   0.20483   0.20588   0.54696
 Alpha virt. eigenvalues --    0.54797   0.57557   0.57644   0.68227   0.68598
 Alpha virt. eigenvalues --    0.79312   0.79393   0.80756   0.80849   0.82691

 Mulliken charges:
               1
     1  O   -0.504747
     2  H    0.251617
     3  H    0.253130
     4  O   -0.504643
     5  H    0.251249
     6  H    0.253393
 Sum of Mulliken charges =  -0.00000

 Dipole moment (field-independent basis, Debye):
    X=             -0.8665    Y=             -0.2056    Z=              0.0000  Tot=              0.8906
 Quadrupole moment (field-independent basis, Debye-Ang):
   XX=             -8.2074   YY=             10.0807   ZZ=            -14.7106
   XY=             -1.7902   XZ=              0.0000   YZ=              0.0000

 Normal termination of Gaussian 16 at Sat Aug 27 04:01:18 2022.
