 Gaussian 16, Revision A.03,
 Gaussian 16:  ES64L-G16RevA.03 25-Dec-2016

 ------------------
 #p CCSD(T)/cc-pVTZ
 ------------------

 ------------
 H2O_H2O_4513
 ------------
 Symbolic Z-matrix:
 Charge =  0 Multiplicity = 1

                         Standard orientation:
 ---------------------------------------------------------------------
 Center     Atomic      Atomic             Coordinates (Angstroms)
 Number     Number       Type             X           Y           Z
 ---------------------------------------------------------------------
      1          8           0        0.042962   -3.175784    0.000000
      2          1           0       -0.757269   -3.745991    0.000000
      3          1           0        0.841872   -3.747841    0.000000
      4          8           0        0.042962    3.214596    0.000000
      5          1           0        0.141888    4.192206    0.000000
      6          1           0       -0.913891    2.991126    0.000000
 ---------------------------------------------------------------------

 SCF Done:  E(RHF) =  -152.107129052     A.U. after   10 cycles
 E2 =    -0.5259033566D+00 EUMP2 =    -0.15263303240831D+03
 CCSD(T)
 CCSD(T)= -0.15266025848D+03

 The electronic state is 1-A'.
 Alpha  occ. eigenvalues --  -20.55402 -20.55182  -1.32699  -1.32478  -0.70106
 Alpha  occ. eigenvalues --   -0.69881  -0.56133  -0.55913  -0.49809  -0.49589
 Alpha virt. eigenvalues --    0.14248   0.14474   0.20311   0.20544   0.54459
 Alpha virt. eigenvalues --    0.54694   0.57353   0.57574   0.68070   0.68308
 Alpha virt. eigenvalues --    0.79071   0.79288   0.80507   0.80745   0.82434

 Mulliken charges:
               1
     1  O   -0.507234
     2  H    0.252680
     3  H    0.254554
     4  O   -0.507075
     5  H    0.252025
     6  H    0.255049
 Sum of Mulliken charges =  -0.00000

 Dipole moment (field-independent basis, Debye):
    X=             -1.4766    Y=             -0.6775    Z=              0.0000  Tot=              1.6246
 Quadrupole moment (field-independent basis, Debye-Ang):
   XX=             -8.9645   YY=             10.2944   ZZ=            -14.7114
   XY=             -3.8956   XZ=              0.0000   YZ=              0.0000

 Normal termination of Gaussian 16 at Sat Aug 27 07:44:54 2022.
