 Gaussian 16, Revision A.03,
 Gaussian 16:  ES64L-G16RevA.03 25-Dec-2016

 ------------------
 #p CCSD(T)/cc-pVTZ
 ------------------

 ------------
 H2O_H2O_4870
 ------------
 Symbolic Z-matrix:
 Charge =  0 Multiplicity = 1

                         Standard orientation:
 ---------------------------------------------------------------------
 Center     Atomic      Atomic             Coordinates (Angstroms)
 Number     Number       Type             X           Y           Z
 ---------------------------------------------------------------------
      1          8           0        0.055227   -3.337111    0.000000
      2          1           0       -0.745146   -3.907119    0.000000
      3          1           0        0.853994   -3.909366    0.000000
      4          8           0        0.055227    3.421619    0.000000
      5          1           0       -0.288207    4.342248    0.000000
      6          1           0       -0.704265    2.798178    0.000000
 ---------------------------------------------------------------------

 SCF Done:  E(RHF) =  -152.107479588     A.U. after   10 cycles
 E2 =    -0.5258685440D+00 EUMP2 =    -0.15263334813240D+03
 CCSD(T)
 CCSD(T)= -0.15266056699D+03

 The electronic state is 1-A'.
 Alpha  occ. eigenvalues --  -20.55638 -20.55214  -1.32937  -1.32513  -0.70343
 Alpha  occ. eigenvalues --   -0.69914  -0.56387  -0.55961  -0.50049  -0.49626
 Alpha virt. eigenvalues --    0.14044   0.14469   0.20123   0.20571   0.54218
 Alpha virt. eigenvalues --    0.54658   0.57143   0.57566   0.67794   0.68234
 Alpha virt. eigenvalues --    0.78830   0.79248   0.80260   0.80709   0.82184

 Mulliken charges:
               1
     1  O   -0.509306
     2  H    0.253674
     3  H    0.255632
     4  O   -0.509078
     5  H    0.252625
     6  H    0.256452
 Sum of Mulliken charges =  -0.00000

 Dipole moment (field-independent basis, Debye):
    X=             -1.8999    Y=             -1.4734    Z=              0.0000  Tot=              2.4043
 Quadrupole moment (field-independent basis, Debye-Ang):
   XX=             -9.7245   YY=              6.8012   ZZ=            -14.7121
   XY=             -6.1513   XZ=              0.0000   YZ=              0.0000

 Normal termination of Gaussian 16 at Sat Aug 27 09:48:04 2022.
