 Gaussian 16, Revision A.03,
 Gaussian 16:  ES64L-G16RevA.03 25-Dec-2016

 ------------------
 #p CCSD(T)/cc-pVTZ
 ------------------

 ------------
 H2O_H2O_4671
 ------------
 Symbolic Z-matrix:
 Charge =  0 Multiplicity = 1

                         Standard orientation:
 ---------------------------------------------------------------------
 Center     Atomic      Atomic             Coordinates (Angstroms)
 Number     Number       Type             X           Y           Z
 ---------------------------------------------------------------------
      1          8           0        0.056083   -3.226796    0.000000
      2          1           0       -0.744328   -3.796749    0.000000
      3          1           0        0.854812   -3.799106    0.000000
      4          8           0        0.056083    3.318573    0.000000
      5          1           0       -0.346765    4.214798    0.000000
      6          1           0       -0.661054    2.646843    0.000000
 ---------------------------------------------------------------------

 SCF Done:  E(RHF) =  -152.107532199     A.U. after   10 cycles
 E2 =    -0.5258660896D+00 EUMP2 =    -0.15263339828839D+03
 CCSD(T)
 CCSD(T)= -0.15266061589D+03

 The electronic state is 1-A'.
 Alpha  occ. eigenvalues --  -20.55672 -20.55181  -1.32972  -1.32479  -0.70378
 Alpha  occ. eigenvalues --   -0.69879  -0.56425  -0.55929  -0.50084  -0.49593
 Alpha virt. eigenvalues --    0.14009   0.14509   0.20095   0.20618   0.54182
 Alpha virt. eigenvalues --    0.54693   0.57112   0.57604   0.67745   0.68271
 Alpha virt. eigenvalues --    0.78796   0.79279   0.80224   0.80742   0.82153

 Mulliken charges:
               1
     1  O   -0.509624
     2  H    0.253733
     3  H    0.255891
     4  O   -0.509344
     5  H    0.252494
     6  H    0.256849
 Sum of Mulliken charges =  -0.00000

 Dipole moment (field-independent basis, Debye):
    X=             -1.9287    Y=             -1.6019    Z=              0.0000  Tot=              2.5072
 Quadrupole moment (field-independent basis, Debye-Ang):
   XX=             -9.7845   YY=              5.4808   ZZ=            -14.7123
   XY=             -6.1704   XZ=              0.0000   YZ=              0.0000

 Normal termination of Gaussian 16 at Sat Aug 27 08:40:06 2022.
