 Gaussian 16, Revision A.03,
 Gaussian 16:  ES64L-G16RevA.03 25-Dec-2016

 ------------------
 #p CCSD(T)/cc-pVTZ
 ------------------

 ------------
 H2O_H2O_4515
 ------------
 Symbolic Z-matrix:
 Charge =  0 Multiplicity = 1

                         Standard orientation:
 ---------------------------------------------------------------------
 Center     Atomic      Atomic             Coordinates (Angstroms)
 Number     Number       Type             X           Y           Z
 ---------------------------------------------------------------------
      1          8           0        0.047520   -3.169358    0.000000
      2          1           0       -0.752781   -3.739466    0.000000
      3          1           0        0.846360   -3.741513    0.000000
      4          8           0        0.047520    3.220002    0.000000
      5          1           0        0.018116    4.202164    0.000000
      6          1           0       -0.872021    2.873664    0.000000
 ---------------------------------------------------------------------

 SCF Done:  E(RHF) =  -152.107220169     A.U. after   10 cycles
 E2 =    -0.5258955723D+00 EUMP2 =    -0.15263311574096D+03
 CCSD(T)
 CCSD(T)= -0.15266033985D+03

 The electronic state is 1-A'.
 Alpha  occ. eigenvalues --  -20.55463 -20.55177  -1.32761  -1.32473  -0.70168
 Alpha  occ. eigenvalues --   -0.69875  -0.56200  -0.55911  -0.49872  -0.49584
 Alpha virt. eigenvalues --    0.14193   0.14488   0.20261   0.20566   0.54396
 Alpha virt. eigenvalues --    0.54701   0.57298   0.57586   0.67995   0.68305
 Alpha virt. eigenvalues --    0.79008   0.79291   0.80443   0.80751   0.82369

 Mulliken charges:
               1
     1  O   -0.507776
     2  H    0.252857
     3  H    0.254918
     4  O   -0.507583
     5  H    0.252051
     6  H    0.255533
 Sum of Mulliken charges =  -0.00000

 Dipole moment (field-independent basis, Debye):
    X=             -1.6334    Y=             -0.8842    Z=              0.0000  Tot=              1.8574
 Quadrupole moment (field-independent basis, Debye-Ang):
   XX=             -9.2244   YY=              9.2107   ZZ=            -14.7116
   XY=             -4.4854   XZ=              0.0000   YZ=              0.0000

 Normal termination of Gaussian 16 at Sat Aug 27 07:45:34 2022.
