 Gaussian 16, Revision A.03,
 Gaussian 16:  ES64L-G16RevA.03 25-Dec-2016

 ------------------
 #p CCSD(T)/cc-pVTZ
 ------------------

 ------------
 H2O_H2O_4128
 ------------
 Symbolic Z-matrix:
 Charge =  0 Multiplicity = 1

                         Standard orientation:
 ---------------------------------------------------------------------
 Center     Atomic      Atomic             Coordinates (Angstroms)
 Number     Number       Type             X           Y           Z
 ---------------------------------------------------------------------
      1          8           0        0.011143   -2.996236    0.000000
      2          1           0       -0.788611   -3.567112    0.000000
      3          1           0        0.810531   -3.567624    0.000000
      4          8           0        0.011143    2.998424    0.000000
      5          1           0        0.684157    3.714354    0.000000
      6          1           0       -0.884358    3.402879    0.000000
 ---------------------------------------------------------------------

 SCF Done:  E(RHF) =  -152.106719443     A.U. after   10 cycles
 E2 =    -0.5259433167D+00 EUMP2 =    -0.15263266275984D+03
 CCSD(T)
 CCSD(T)= -0.15265989730D+03

 The electronic state is 1-A'.
 Alpha  occ. eigenvalues --  -20.55149 -20.55135  -1.32445  -1.32431  -0.69852
 Alpha  occ. eigenvalues --   -0.69838  -0.55860  -0.55846  -0.49551  -0.49537
 Alpha virt. eigenvalues --    0.14448   0.14507   0.20503   0.20531   0.54714
 Alpha virt. eigenvalues --    0.54737   0.57573   0.57592   0.68314   0.68468
 Alpha virt. eigenvalues --    0.79327   0.79341   0.80773   0.80789   0.82704

 Mulliken charges:
               1
     1  O   -0.504805
     2  H    0.252109
     3  H    0.252696
     4  O   -0.504788
     5  H    0.251988
     6  H    0.252800
 Sum of Mulliken charges =  -0.00000

 Dipole moment (field-independent basis, Debye):
    X=             -0.3825    Y=             -0.0382    Z=              0.0000  Tot=              0.3844
 Quadrupole moment (field-independent basis, Debye-Ang):
   XX=             -7.8829   YY=             11.7881   ZZ=            -14.7105
   XY=             -0.8065   XZ=              0.0000   YZ=              0.0000

 Normal termination of Gaussian 16 at Sat Aug 27 05:32:11 2022.
