 Gaussian 16, Revision A.03,
 Gaussian 16:  ES64L-G16RevA.03 25-Dec-2016

 ------------------
 #p CCSD(T)/cc-pVTZ
 ------------------

 ------------
 H2O_H2O_2279
 ------------
 Symbolic Z-matrix:
 Charge =  0 Multiplicity = 1

                         Standard orientation:
 ---------------------------------------------------------------------
 Center     Atomic      Atomic             Coordinates (Angstroms)
 Number     Number       Type             X           Y           Z
 ---------------------------------------------------------------------
      1          8           0        0.014783   -2.011423    0.000000
      2          1           0       -0.785149   -2.582049    0.000000
      3          1           0        0.813993   -2.583060    0.000000
      4          8           0        0.014783    2.015296    0.000000
      5          1           0        0.639770    2.773517    0.000000
      6          1           0       -0.905146    2.360605    0.000000
 ---------------------------------------------------------------------

 SCF Done:  E(RHF) =  -152.105243697     A.U. after   10 cycles
 E2 =    -0.5262744709D+00 EUMP2 =    -0.15263151816778D+03
 CCSD(T)
 CCSD(T)= -0.15265876545D+03

 The electronic state is 1-A'.
 Alpha  occ. eigenvalues --  -20.54624 -20.54567  -1.31909  -1.31849  -0.69326
 Alpha  occ. eigenvalues --   -0.69264  -0.55377  -0.55033  -0.49013  -0.48941
 Alpha virt. eigenvalues --    0.14184   0.15593   0.20607   0.21118   0.54311
 Alpha virt. eigenvalues --    0.56039   0.57882   0.58137   0.62718   0.74495
 Alpha virt. eigenvalues --    0.79527   0.80243   0.80752   0.81281   0.82056

 Mulliken charges:
               1
     1  O   -0.494904
     2  H    0.246326
     3  H    0.248628
     4  O   -0.494790
     5  H    0.245973
     6  H    0.248767
 Sum of Mulliken charges =  -0.00000

 Dipole moment (field-independent basis, Debye):
    X=             -0.4998    Y=             -0.0701    Z=              0.0000  Tot=              0.5047
 Quadrupole moment (field-independent basis, Debye-Ang):
   XX=             -7.9704   YY=              3.8277   ZZ=            -14.7095
   XY=             -0.5875   XZ=              0.0000   YZ=              0.0000

 Normal termination of Gaussian 16 at Sat Aug 27 09:37:12 2022.
