 Gaussian 16, Revision A.03,
 Gaussian 16:  ES64L-G16RevA.03 25-Dec-2016

 ------------------
 #p CCSD(T)/cc-pVTZ
 ------------------

 ------------
 H2O_H2O_1133
 ------------
 Symbolic Z-matrix:
 Charge =  0 Multiplicity = 1

                         Standard orientation:
 ---------------------------------------------------------------------
 Center     Atomic      Atomic             Coordinates (Angstroms)
 Number     Number       Type             X           Y           Z
 ---------------------------------------------------------------------
      1          8           0        0.028570   -1.393657    0.000000
      2          1           0       -0.772002   -1.963385    0.000000
      3          1           0        0.827138   -1.966191    0.000000
      4          8           0        0.028570    1.408860    0.000000
      5          1           0        0.437023    2.302545    0.000000
      6          1           0       -0.949277    1.505405    0.000000
 ---------------------------------------------------------------------

 SCF Done:  E(RHF) =  -152.100317261     A.U. after   11 cycles
 E2 =    -0.5279073173D+00 EUMP2 =    -0.15262822457849D+03
 CCSD(T)
 CCSD(T)= -0.15265550530D+03

 The electronic state is 1-A'.
 Alpha  occ. eigenvalues --  -20.53967 -20.53555  -1.31400  -1.30790  -0.68804
 Alpha  occ. eigenvalues --   -0.68257  -0.55996  -0.52449  -0.48605  -0.47734
 Alpha virt. eigenvalues --    0.14250   0.16966   0.20457   0.22311   0.52216
 Alpha virt. eigenvalues --    0.58340   0.58645   0.60129   0.68871   0.76546
 Alpha virt. eigenvalues --    0.76990   0.77931   0.80753   0.83187   0.85984

 Mulliken charges:
               1
     1  O   -0.472757
     2  H    0.231096
     3  H    0.241664
     4  O   -0.465484
     5  H    0.226324
     6  H    0.239157
 Sum of Mulliken charges =  -0.00000

 Dipole moment (field-independent basis, Debye):
    X=             -0.9201    Y=             -0.2903    Z=              0.0000  Tot=              0.9648
 Quadrupole moment (field-independent basis, Debye-Ang):
   XX=             -8.4190   YY=             -1.5700   ZZ=            -14.7153
   XY=             -0.6633   XZ=              0.0000   YZ=              0.0000

 Normal termination of Gaussian 16 at Sat Aug 27 02:23:00 2022.
