 Gaussian 16, Revision A.03,
 Gaussian 16:  ES64L-G16RevA.03 25-Dec-2016

 ------------------
 #p CCSD(T)/cc-pVTZ
 ------------------

 ------------
 H2O_H2O_1007
 ------------
 Symbolic Z-matrix:
 Charge =  0 Multiplicity = 1

                         Standard orientation:
 ---------------------------------------------------------------------
 Center     Atomic      Atomic             Coordinates (Angstroms)
 Number     Number       Type             X           Y           Z
 ---------------------------------------------------------------------
      1          8           0        0.025270   -1.329081    0.000000
      2          1           0       -0.775230   -1.898910    0.000000
      3          1           0        0.823910   -1.901515    0.000000
      4          8           0        0.025270    1.340779    0.000000
      5          1           0        0.491188    2.205895    0.000000
      6          1           0       -0.944189    1.500949    0.000000
 ---------------------------------------------------------------------

 SCF Done:  E(RHF) =  -152.097889373     A.U. after   11 cycles
 E2 =    -0.5283763028D+00 EUMP2 =    -0.15262626567541D+03
 CCSD(T)
 CCSD(T)= -0.15265355645D+03

 The electronic state is 1-A'.
 Alpha  occ. eigenvalues --  -20.53695 -20.53364  -1.31259  -1.30567  -0.68631
 Alpha  occ. eigenvalues --   -0.68077  -0.56312  -0.51643  -0.48505  -0.47441
 Alpha virt. eigenvalues --    0.14331   0.17151   0.20489   0.22381   0.51765
 Alpha virt. eigenvalues --    0.58488   0.58752   0.61172   0.70502   0.76668
 Alpha virt. eigenvalues --    0.76723   0.78363   0.81933   0.83528   0.86144

 Mulliken charges:
               1
     1  O   -0.468958
     2  H    0.229010
     3  H    0.239341
     4  O   -0.460239
     5  H    0.223931
     6  H    0.236916
 Sum of Mulliken charges =  -0.00000

 Dipole moment (field-independent basis, Debye):
    X=             -0.8050    Y=             -0.2245    Z=              0.0000  Tot=              0.8358
 Quadrupole moment (field-independent basis, Debye-Ang):
   XX=             -8.3315   YY=             -2.1210   ZZ=            -14.7182
   XY=             -0.5077   XZ=              0.0000   YZ=              0.0000

 Normal termination of Gaussian 16 at Sat Aug 27 01:19:46 2022.
