 Gaussian 16, Revision A.03,
 Gaussian 16:  ES64L-G16RevA.03 25-Dec-2016

 ------------------
 #p CCSD(T)/cc-pVTZ
 ------------------

 -----------
 H2O_H2O_885
 -----------
 Symbolic Z-matrix:
 Charge =  0 Multiplicity = 1

                         Standard orientation:
 ---------------------------------------------------------------------
 Center     Atomic      Atomic             Coordinates (Angstroms)
 Number     Number       Type             X           Y           Z
 ---------------------------------------------------------------------
      1          8           0        0.034796   -1.256223    0.000000
      2          1           0       -0.766121   -1.825466    0.000000
      3          1           0        0.833017   -1.829241    0.000000
      4          8           0        0.034796    1.279663    0.000000
      5          1           0        0.323674    2.218842    0.000000
      6          1           0       -0.947307    1.248343    0.000000
 ---------------------------------------------------------------------

 SCF Done:  E(RHF) =  -152.096080057     A.U. after   11 cycles
 E2 =    -0.5290071961D+00 EUMP2 =    -0.15262508725289D+03
 CCSD(T)
 CCSD(T)= -0.15265233878D+03

 The electronic state is 1-A'.
 Alpha  occ. eigenvalues --  -20.53852 -20.53125  -1.31525  -1.30320  -0.68881
 Alpha  occ. eigenvalues --   -0.67908  -0.56637  -0.51234  -0.48763  -0.47188
 Alpha virt. eigenvalues --    0.14225   0.17309   0.20371   0.22806   0.52618
 Alpha virt. eigenvalues --    0.58288   0.58434   0.61137   0.70380   0.76248
 Alpha virt. eigenvalues --    0.76986   0.78807   0.83570   0.84791   0.85948

 Mulliken charges:
               1
     1  O   -0.468942
     2  H    0.227000
     3  H    0.241776
     4  O   -0.455110
     5  H    0.215626
     6  H    0.239651
 Sum of Mulliken charges =  -0.00000

 Dipole moment (field-independent basis, Debye):
    X=             -1.0923    Y=             -0.4552    Z=              0.0000  Tot=              1.1834
 Quadrupole moment (field-independent basis, Debye-Ang):
   XX=             -8.6936   YY=             -2.8940   ZZ=            -14.7228
   XY=             -0.7503   XZ=              0.0000   YZ=              0.0000

 Normal termination of Gaussian 16 at Fri Aug 26 20:51:54 2022.
