 Gaussian 16, Revision A.03,
 Gaussian 16:  ES64L-G16RevA.03 25-Dec-2016

 ------------------
 #p CCSD(T)/cc-pVTZ
 ------------------

 ------------
 H2O_H2O_2825
 ------------
 Symbolic Z-matrix:
 Charge =  0 Multiplicity = 1

                         Standard orientation:
 ---------------------------------------------------------------------
 Center     Atomic      Atomic             Coordinates (Angstroms)
 Number     Number       Type             X           Y           Z
 ---------------------------------------------------------------------
      1          8           0        0.000000   -0.000000    2.306037
      2          1           0        0.000000    0.799571    2.877169
      3          1           0       -0.000000   -0.799571    2.877169
      4          8           0        0.000000   -0.000000   -2.306037
      5          1           0       -0.000000   -0.799571   -2.877169
      6          1           0        0.000000    0.799571   -2.877169
 ---------------------------------------------------------------------

 SCF Done:  E(RHF) =  -152.105823508     A.U. after   10 cycles
 E2 =    -0.5260845275D+00 EUMP2 =    -0.15263190803526D+03
 CCSD(T)
 CCSD(T)= -0.15265915686D+03

 The electronic state is 1-AG.
 Alpha  occ. eigenvalues --  -20.54802 -20.54802  -1.32094  -1.32092  -0.69507
 Alpha  occ. eigenvalues --   -0.69503  -0.55503  -0.55418  -0.49198  -0.49189
 Alpha virt. eigenvalues --    0.14379   0.15092   0.20626   0.20842   0.54819
 Alpha virt. eigenvalues --    0.55324   0.57796   0.57907   0.66123   0.71414
 Alpha virt. eigenvalues --    0.79610   0.79749   0.81114   0.81173   0.82370

 Mulliken charges:
               1
     1  O   -0.499477
     2  H    0.249738
     3  H    0.249738
     4  O   -0.499477
     5  H    0.249738
     6  H    0.249738
 Sum of Mulliken charges =  -0.00000

 Dipole moment (field-independent basis, Debye):
    X=             -0.0000    Y=              0.0000    Z=             -0.0000  Tot=              0.0000
 Quadrupole moment (field-independent basis, Debye-Ang):
   XX=            -14.7096   YY=             -7.8208   ZZ=              6.3602
   XY=              0.0000   XZ=              0.0000   YZ=             -0.0000

 \MP4DQ=-152.6410208\MP4SDQ=-152.6440913\CCSD=-152.6434988\CCSD(T)=-152
 Normal termination of Gaussian 16 at Fri Aug 26 16:31:39 2022.
