 Gaussian 16, Revision A.03,
 Gaussian 16:  ES64L-G16RevA.03 25-Dec-2016

 ------------------
 #p CCSD(T)/cc-pVTZ
 ------------------

 ------------
 H2O_H2O_3044
 ------------
 Symbolic Z-matrix:
 Charge =  0 Multiplicity = 1

                         Standard orientation:
 ---------------------------------------------------------------------
 Center     Atomic      Atomic             Coordinates (Angstroms)
 Number     Number       Type             X           Y           Z
 ---------------------------------------------------------------------
      1          8           0        0.054157   -2.370422    0.000000
      2          1           0       -0.746516   -2.940008    0.000000
      3          1           0        0.852623   -2.943098    0.000000
      4          8           0        0.054157    2.447723    0.000000
      5          1           0       -0.227833    3.388991    0.000000
      6          1           0       -0.744786    1.875712    0.000000
 ---------------------------------------------------------------------

 SCF Done:  E(RHF) =  -152.107449200     A.U. after   10 cycles
 E2 =    -0.5259582001D+00 EUMP2 =    -0.15263340739983D+03
 CCSD(T)
 CCSD(T)= -0.15266061834D+03

 The electronic state is 1-A'.
 Alpha  occ. eigenvalues --  -20.55600 -20.54785  -1.32894  -1.32079  -0.70301
 Alpha  occ. eigenvalues --   -0.69468  -0.56339  -0.55521  -0.50006  -0.49195
 Alpha virt. eigenvalues --    0.13626   0.15198   0.20096   0.21208   0.54150
 Alpha virt. eigenvalues --    0.54921   0.57195   0.57896   0.66819   0.70385
 Alpha virt. eigenvalues --    0.78880   0.79668   0.80046   0.80791   0.82793

 Mulliken charges:
               1
     1  O   -0.508344
     2  H    0.251754
     3  H    0.256909
     4  O   -0.508207
     5  H    0.249275
     6  H    0.258612
 Sum of Mulliken charges =  -0.00000

 Dipole moment (field-independent basis, Debye):
    X=             -1.8493    Y=             -1.3751    Z=              0.0000  Tot=              2.3045
 Quadrupole moment (field-independent basis, Debye-Ang):
   XX=             -9.6477   YY=              2.4456   ZZ=            -14.7129
   XY=             -4.1199   XZ=              0.0000   YZ=              0.0000

 Normal termination of Gaussian 16 at Fri Aug 26 18:49:20 2022.
