 Gaussian 16, Revision A.03,
 Gaussian 16:  ES64L-G16RevA.03 25-Dec-2016

 ------------------
 #p CCSD(T)/cc-pVTZ
 ------------------

 ------------
 H2O_H2O_1244
 ------------
 Symbolic Z-matrix:
 Charge =  0 Multiplicity = 1

                         Standard orientation:
 ---------------------------------------------------------------------
 Center     Atomic      Atomic             Coordinates (Angstroms)
 Number     Number       Type             X           Y           Z
 ---------------------------------------------------------------------
      1          8           0        0.054206   -1.413189    0.000000
      2          1           0       -0.747192   -1.981754    0.000000
      3          1           0        0.851942   -1.986882    0.000000
      4          8           0        0.054206    1.490351    0.000000
      5          1           0       -0.226585    2.431978    0.000000
      6          1           0       -0.745465    0.919359    0.000000
 ---------------------------------------------------------------------

 SCF Done:  E(RHF) =  -152.106285258     A.U. after   10 cycles
 E2 =    -0.5276859077D+00 EUMP2 =    -0.15263397116531D+03
 CCSD(T)
 CCSD(T)= -0.15266110656D+03

 The electronic state is 1-A'.
 Alpha  occ. eigenvalues --  -20.55763 -20.53313  -1.33117  -1.30589  -0.70531
 Alpha  occ. eigenvalues --   -0.68119  -0.56411  -0.53938  -0.50231  -0.47696
 Alpha virt. eigenvalues --    0.13405   0.17208   0.19829   0.24111   0.53211
 Alpha virt. eigenvalues --    0.56564   0.57097   0.58650   0.69018   0.75240
 Alpha virt. eigenvalues --    0.75742   0.77800   0.80875   0.82301   0.84619

 Mulliken charges:
               1
     1  O   -0.484212
     2  H    0.238758
     3  H    0.255168
     4  O   -0.497108
     5  H    0.230363
     6  H    0.257030
 Sum of Mulliken charges =  -0.00000

 Dipole moment (field-independent basis, Debye):
    X=             -1.7556    Y=             -1.5123    Z=              0.0000  Tot=              2.3171
 Quadrupole moment (field-independent basis, Debye-Ang):
   XX=             -9.6708   YY=             -2.8721   ZZ=            -14.7234
   XY=             -2.3945   XZ=              0.0000   YZ=              0.0000

 Normal termination of Gaussian 16 at Sat Aug 27 03:18:29 2022.
