 Gaussian 16, Revision A.03,
 Gaussian 16:  ES64L-G16RevA.03 25-Dec-2016

 ------------------
 #p CCSD(T)/cc-pVTZ
 ------------------

 ------------
 H2O_H2O_1100
 ------------
 Symbolic Z-matrix:
 Charge =  0 Multiplicity = 1

                         Standard orientation:
 ---------------------------------------------------------------------
 Center     Atomic      Atomic             Coordinates (Angstroms)
 Number     Number       Type             X           Y           Z
 ---------------------------------------------------------------------
      1          8           0        0.000000   -0.000000    1.388619
      2          1           0        0.000000    0.799571    1.959751
      3          1           0       -0.000000   -0.799571    1.959751
      4          8           0        0.000000   -0.000000   -1.388619
      5          1           0       -0.000000   -0.799571   -1.959751
      6          1           0        0.000000    0.799571   -1.959751
 ---------------------------------------------------------------------

 SCF Done:  E(RHF) =  -152.098548000     A.U. after   10 cycles
 E2 =    -0.5279828445D+00 EUMP2 =    -0.15262653084420D+03
 CCSD(T)
 CCSD(T)= -0.15265385009D+03

 The electronic state is 1-AG.
 Alpha  occ. eigenvalues --  -20.53525 -20.53525  -1.31098  -1.30679  -0.68475
 Alpha  occ. eigenvalues --   -0.68178  -0.56043  -0.51869  -0.48339  -0.47558
 Alpha virt. eigenvalues --    0.14456   0.17059   0.20568   0.22056   0.50900
 Alpha virt. eigenvalues --    0.58521   0.58774   0.61430   0.70428   0.76374
 Alpha virt. eigenvalues --    0.77135   0.78071   0.79375   0.83376   0.86303

 Mulliken charges:
               1
     1  O   -0.466272
     2  H    0.233136
     3  H    0.233136
     4  O   -0.466272
     5  H    0.233136
     6  H    0.233136
 Sum of Mulliken charges =   0.00000

 Dipole moment (field-independent basis, Debye):
    X=             -0.0000    Y=              0.0000    Z=              0.0000  Tot=              0.0000
 Quadrupole moment (field-independent basis, Debye-Ang):
   XX=            -14.7144   YY=             -7.9297   ZZ=             -1.4776
   XY=              0.0000   XZ=             -0.0000   YZ=             -0.0000

 MP4DQ=-152.6353475\MP4SDQ=-152.6385301\CCSD=-152.6378978\CCSD(T)=-152.
 Normal termination of Gaussian 16 at Sat Aug 27 02:07:58 2022.
