 Gaussian 16, Revision A.03,
 Gaussian 16:  ES64L-G16RevA.03 25-Dec-2016

 ------------------
 #p CCSD(T)/cc-pVTZ
 ------------------

 ------------
 H2O_H2O_4005
 ------------
 Symbolic Z-matrix:
 Charge =  0 Multiplicity = 1

                         Standard orientation:
 ---------------------------------------------------------------------
 Center     Atomic      Atomic             Coordinates (Angstroms)
 Number     Number       Type             X           Y           Z
 ---------------------------------------------------------------------
      1          8           0        0.018360   -2.927663    0.000000
      2          1           0       -0.781519   -3.498364    0.000000
      3          1           0        0.817623   -3.499226    0.000000
      4          8           0        0.018360    2.933705    0.000000
      5          1           0        0.592344    3.731232    0.000000
      6          1           0       -0.922209    3.218021    0.000000
 ---------------------------------------------------------------------

 SCF Done:  E(RHF) =  -152.106703644     A.U. after   10 cycles
 E2 =    -0.5259472559D+00 EUMP2 =    -0.15263265090020D+03
 CCSD(T)
 CCSD(T)= -0.15265988563D+03

 The electronic state is 1-A'.
 Alpha  occ. eigenvalues --  -20.55151 -20.55110  -1.32446  -1.32405  -0.69854
 Alpha  occ. eigenvalues --   -0.69812  -0.55861  -0.55820  -0.49552  -0.49512
 Alpha virt. eigenvalues --    0.14441   0.14535   0.20499   0.20556   0.54712
 Alpha virt. eigenvalues --    0.54765   0.57571   0.57616   0.68286   0.68525
 Alpha virt. eigenvalues --    0.79326   0.79366   0.80771   0.80817   0.82704

 Mulliken charges:
               1
     1  O   -0.504717
     2  H    0.251843
     3  H    0.252874
     4  O   -0.504666
     5  H    0.251614
     6  H    0.253051
 Sum of Mulliken charges =   0.00000

 Dipole moment (field-independent basis, Debye):
    X=             -0.6300    Y=             -0.1057    Z=              0.0000  Tot=              0.6388
 Quadrupole moment (field-independent basis, Debye-Ang):
   XX=             -8.0175   YY=             10.9918   ZZ=            -14.7105
   XY=             -1.3096   XZ=              0.0000   YZ=              0.0000

 Normal termination of Gaussian 16 at Sat Aug 27 04:50:36 2022.
