 Gaussian 16, Revision A.03,
 Gaussian 16:  ES64L-G16RevA.03 25-Dec-2016

 ------------------
 #p CCSD(T)/cc-pVTZ
 ------------------

 ------------
 H2O_H2O_4487
 ------------
 Symbolic Z-matrix:
 Charge =  0 Multiplicity = 1

                         Standard orientation:
 ---------------------------------------------------------------------
 Center     Atomic      Atomic             Coordinates (Angstroms)
 Number     Number       Type             X           Y           Z
 ---------------------------------------------------------------------
      1          8           0        0.040403   -3.165445    0.000000
      2          1           0       -0.759791   -3.735703    0.000000
      3          1           0        0.839350   -3.737450    0.000000
      4          8           0        0.040403    3.198813    0.000000
      5          1           0        0.202993    4.167869    0.000000
      6          1           0       -0.929006    3.038341    0.000000
 ---------------------------------------------------------------------

 SCF Done:  E(RHF) =  -152.107082490     A.U. after   10 cycles
 E2 =    -0.5259076221D+00 EUMP2 =    -0.15263299011179D+03
 CCSD(T)
 CCSD(T)= -0.15266021717D+03

 The electronic state is 1-A'.
 Alpha  occ. eigenvalues --  -20.55371 -20.55181  -1.32668  -1.32477  -0.70075
 Alpha  occ. eigenvalues --   -0.69880  -0.56100  -0.55909  -0.49777  -0.49587
 Alpha virt. eigenvalues --    0.14275   0.14472   0.20336   0.20537   0.54491
 Alpha virt. eigenvalues --    0.54695   0.57381   0.57572   0.68107   0.68315
 Alpha virt. eigenvalues --    0.79102   0.79290   0.80540   0.80746   0.82467

 Mulliken charges:
               1
     1  O   -0.506957
     2  H    0.252585
     3  H    0.254372
     4  O   -0.506811
     5  H    0.251995
     6  H    0.254817
 Sum of Mulliken charges =  -0.00000

 Dipole moment (field-independent basis, Debye):
    X=             -1.3885    Y=             -0.5825    Z=              0.0000  Tot=              1.5058
 Quadrupole moment (field-independent basis, Debye-Ang):
   XX=             -8.8302   YY=             10.6876   ZZ=            -14.7113
   XY=             -3.5761   XZ=              0.0000   YZ=              0.0000

 Normal termination of Gaussian 16 at Sat Aug 27 07:35:41 2022.
