 Gaussian 16, Revision A.03,
 Gaussian 16:  ES64L-G16RevA.03 25-Dec-2016

 ------------------
 #p CCSD(T)/cc-pVTZ
 ------------------

 ------------
 H2O_H2O_4262
 ------------
 Symbolic Z-matrix:
 Charge =  0 Multiplicity = 1

                         Standard orientation:
 ---------------------------------------------------------------------
 Center     Atomic      Atomic             Coordinates (Angstroms)
 Number     Number       Type             X           Y           Z
 ---------------------------------------------------------------------
      1          8           0        0.040404   -3.045783    0.000000
      2          1           0       -0.759815   -3.616007    0.000000
      3          1           0        0.839326   -3.617823    0.000000
      4          8           0        0.040404    3.079148    0.000000
      5          1           0        0.203035    4.048197    0.000000
      6          1           0       -0.929013    2.918717    0.000000
 ---------------------------------------------------------------------

 SCF Done:  E(RHF) =  -152.107033812     A.U. after   10 cycles
 E2 =    -0.5259152175D+00 EUMP2 =    -0.15263294902967D+03
 CCSD(T)
 CCSD(T)= -0.15266017692D+03

 The electronic state is 1-A'.
 Alpha  occ. eigenvalues --  -20.55349 -20.55143  -1.32646  -1.32439  -0.70053
 Alpha  occ. eigenvalues --   -0.69841  -0.56076  -0.55869  -0.49755  -0.49548
 Alpha virt. eigenvalues --    0.14287   0.14512   0.20350   0.20571   0.54512
 Alpha virt. eigenvalues --    0.54736   0.57399   0.57606   0.68117   0.68378
 Alpha virt. eigenvalues --    0.79125   0.79328   0.80563   0.80787   0.82492

 Mulliken charges:
               1
     1  O   -0.506675
     2  H    0.252340
     3  H    0.254336
     4  O   -0.506502
     5  H    0.251687
     6  H    0.254815
 Sum of Mulliken charges =  -0.00000

 Dipole moment (field-independent basis, Debye):
    X=             -1.3877    Y=             -0.5832    Z=              0.0000  Tot=              1.5053
 Quadrupole moment (field-independent basis, Debye-Ang):
   XX=             -8.8306   YY=              9.8700   ZZ=            -14.7112
   XY=             -3.4113   XZ=              0.0000   YZ=              0.0000

 Normal termination of Gaussian 16 at Sat Aug 27 06:19:17 2022.
