 Gaussian 16, Revision A.03,
 Gaussian 16:  ES64L-G16RevA.03 25-Dec-2016

 ------------------
 #p CCSD(T)/cc-pVTZ
 ------------------

 ------------
 H2O_H2O_4117
 ------------
 Symbolic Z-matrix:
 Charge =  0 Multiplicity = 1

                         Standard orientation:
 ---------------------------------------------------------------------
 Center     Atomic      Atomic             Coordinates (Angstroms)
 Number     Number       Type             X           Y           Z
 ---------------------------------------------------------------------
      1          8           0        0.051270   -2.949612    0.000000
      2          1           0       -0.749145   -3.519561    0.000000
      3          1           0        0.849996   -3.521926    0.000000
      4          8           0        0.051270    3.013166    0.000000
      5          1           0       -0.105886    3.983119    0.000000
      6          1           0       -0.815290    2.549939    0.000000
 ---------------------------------------------------------------------

 SCF Done:  E(RHF) =  -152.107286027     A.U. after   10 cycles
 E2 =    -0.5258970882D+00 EUMP2 =    -0.15263318311522D+03
 CCSD(T)
 CCSD(T)= -0.15266040533D+03

 The electronic state is 1-A'.
 Alpha  occ. eigenvalues --  -20.55514 -20.55098  -1.32813  -1.32394  -0.70219
 Alpha  occ. eigenvalues --   -0.69793  -0.56254  -0.55835  -0.49923  -0.49507
 Alpha virt. eigenvalues --    0.14121   0.14591   0.20214   0.20671   0.54340
 Alpha virt. eigenvalues --    0.54785   0.57251   0.57668   0.67877   0.68441
 Alpha virt. eigenvalues --    0.78957   0.79367   0.80389   0.80822   0.82345

 Mulliken charges:
               1
     1  O   -0.508182
     2  H    0.252745
     3  H    0.255439
     4  O   -0.507883
     5  H    0.251561
     6  H    0.256318
 Sum of Mulliken charges =  -0.00000

 Dipole moment (field-independent basis, Debye):
    X=             -1.7605    Y=             -1.1128    Z=              0.0000  Tot=              2.0827
 Quadrupole moment (field-independent basis, Debye-Ang):
   XX=             -9.4576   YY=              6.7492   ZZ=            -14.7118
   XY=             -4.6749   XZ=              0.0000   YZ=              0.0000

 Normal termination of Gaussian 16 at Sat Aug 27 05:28:22 2022.
