 Gaussian 16, Revision A.03,
 Gaussian 16:  ES64L-G16RevA.03 25-Dec-2016

 ------------------
 #p CCSD(T)/cc-pVTZ
 ------------------

 ------------
 H2O_H2O_2569
 ------------
 Symbolic Z-matrix:
 Charge =  0 Multiplicity = 1

                         Standard orientation:
 ---------------------------------------------------------------------
 Center     Atomic      Atomic             Coordinates (Angstroms)
 Number     Number       Type             X           Y           Z
 ---------------------------------------------------------------------
      1          8           0        0.054166   -2.117813    0.000000
      2          1           0       -0.746636   -2.687217    0.000000
      3          1           0        0.852502   -2.690669    0.000000
      4          8           0        0.054166    2.195088    0.000000
      5          1           0       -0.227612    3.136422    0.000000
      6          1           0       -0.744907    1.623258    0.000000
 ---------------------------------------------------------------------

 SCF Done:  E(RHF) =  -152.107533081     A.U. after   10 cycles
 E2 =    -0.5260656708D+00 EUMP2 =    -0.15263359875158D+03
 CCSD(T)
 CCSD(T)= -0.15266079615D+03

 The electronic state is 1-A'.
 Alpha  occ. eigenvalues --  -20.55628 -20.54568  -1.32914  -1.31860  -0.70323
 Alpha  occ. eigenvalues --   -0.69240  -0.56352  -0.55300  -0.50026  -0.48978
 Alpha virt. eigenvalues --    0.13355   0.15629   0.20047   0.21736   0.54045
 Alpha virt. eigenvalues --    0.54710   0.57197   0.58181   0.66071   0.72870
 Alpha virt. eigenvalues --    0.78838   0.79712   0.79902   0.81763   0.82454

 Mulliken charges:
               1
     1  O   -0.506222
     2  H    0.250258
     3  H    0.257086
     4  O   -0.507977
     5  H    0.247365
     6  H    0.259489
 Sum of Mulliken charges =  -0.00000

 Dipole moment (field-independent basis, Debye):
    X=             -1.8395    Y=             -1.3950    Z=              0.0000  Tot=              2.3086
 Quadrupole moment (field-independent basis, Debye-Ang):
   XX=             -9.6484   YY=              1.0996   ZZ=            -14.7139
   XY=             -3.6592   XZ=              0.0000   YZ=              0.0000

 Normal termination of Gaussian 16 at Fri Aug 26 13:50:17 2022.
