 Gaussian 16, Revision A.03,
 Gaussian 16:  ES64L-G16RevA.03 25-Dec-2016

 ------------------
 #p CCSD(T)/cc-pVTZ
 ------------------

 ------------
 H2O_H2O_3526
 ------------
 Symbolic Z-matrix:
 Charge =  0 Multiplicity = 1

                         Standard orientation:
 ---------------------------------------------------------------------
 Center     Atomic      Atomic             Coordinates (Angstroms)
 Number     Number       Type             X           Y           Z
 ---------------------------------------------------------------------
      1          8           0        0.003735   -2.678190    0.000000
      2          1           0       -0.795904   -3.249226    0.000000
      3          1           0        0.803238   -3.249418    0.000000
      4          8           0        0.003735    2.678433    0.000000
      5          1           0        0.764316    3.300546    0.000000
      6          1           0       -0.831415    3.196149    0.000000
 ---------------------------------------------------------------------

 SCF Done:  E(RHF) =  -152.106394932     A.U. after   10 cycles
 E2 =    -0.5259863065D+00 EUMP2 =    -0.15263238123882D+03
 CCSD(T)
 CCSD(T)= -0.15265962183D+03

 The electronic state is 1-A'.
 Alpha  occ. eigenvalues --  -20.55012 -20.55010  -1.32306  -1.32304  -0.69715
 Alpha  occ. eigenvalues --   -0.69713  -0.55709  -0.55700  -0.49410  -0.49408
 Alpha virt. eigenvalues --    0.14477   0.14686   0.20568   0.20640   0.54817
 Alpha virt. eigenvalues --    0.54900   0.57673   0.57707   0.68090   0.69042
 Alpha virt. eigenvalues --    0.79462   0.79473   0.80896   0.80944   0.82786

 Mulliken charges:
               1
     1  O   -0.502902
     2  H    0.251316
     3  H    0.251585
     4  O   -0.502898
     5  H    0.251271
     6  H    0.251628
 Sum of Mulliken charges =  -0.00000

 Dipole moment (field-independent basis, Debye):
    X=             -0.1279    Y=             -0.0043    Z=              0.0000  Tot=              0.1280
 Quadrupole moment (field-independent basis, Debye-Ang):
   XX=             -7.8190   YY=              9.3621   ZZ=            -14.7101
   XY=             -0.2276   XZ=              0.0000   YZ=              0.0000

 Normal termination of Gaussian 16 at Sat Aug 27 01:14:29 2022.
