 Gaussian 16, Revision A.03,
 Gaussian 16:  ES64L-G16RevA.03 25-Dec-2016

 ------------------
 #p CCSD(T)/cc-pVTZ
 ------------------

 -----------
 H2O_H2O_271
 -----------
 Symbolic Z-matrix:
 Charge =  0 Multiplicity = 1

                         Standard orientation:
 ---------------------------------------------------------------------
 Center     Atomic      Atomic             Coordinates (Angstroms)
 Number     Number       Type             X           Y           Z
 ---------------------------------------------------------------------
      1          8           0        0.056253   -0.886932    0.000000
      2          1           0       -0.746261   -1.453923    0.000000
      3          1           0        0.852860   -1.462191    0.000000
      4          8           0        0.056253    0.978294    0.000000
      5          1           0       -0.343280    1.876001    0.000000
      6          1           0       -0.663363    0.309220    0.000000
 ---------------------------------------------------------------------

 SCF Done:  E(RHF) =  -152.009605140     A.U. after   11 cycles
 E2 =    -0.5417883883D+00 EUMP2 =    -0.15255139352780D+03
 CCSD(T)
 CCSD(T)= -0.15257715903D+03

 The electronic state is 1-A'.
 Alpha  occ. eigenvalues --  -20.55826 -20.49225  -1.37930  -1.26880  -0.75655
 Alpha  occ. eigenvalues --   -0.71041  -0.53435  -0.51995  -0.47432  -0.43814
 Alpha virt. eigenvalues --    0.13082   0.18725   0.19719   0.26137   0.49956
 Alpha virt. eigenvalues --    0.54677   0.62244   0.67097   0.72788   0.75737
 Alpha virt. eigenvalues --    0.79530   0.79607   0.84016   0.85215   0.88191

 Mulliken charges:
               1
     1  O   -0.350907
     2  H    0.183817
     3  H    0.225002
     4  O   -0.479249
     5  H    0.161847
     6  H    0.259490
 Sum of Mulliken charges =  -0.00000

 Dipole moment (field-independent basis, Debye):
    X=             -1.5608    Y=             -2.1871    Z=              0.0000  Tot=              2.6869
 Quadrupole moment (field-independent basis, Debye-Ang):
   XX=             -9.8070   YY=             -7.5264   ZZ=            -14.6148
   XY=             -1.7194   XZ=              0.0000   YZ=              0.0000

 Normal termination of Gaussian 16 at Fri Aug 26 14:44:28 2022.
