 Gaussian 16, Revision A.03,
 Gaussian 16:  ES64L-G16RevA.03 25-Dec-2016

 ------------------
 #p CCSD(T)/cc-pVTZ
 ------------------

 ------------
 H2O_H2O_1319
 ------------
 Symbolic Z-matrix:
 Charge =  0 Multiplicity = 1

                         Standard orientation:
 ---------------------------------------------------------------------
 Center     Atomic      Atomic             Coordinates (Angstroms)
 Number     Number       Type             X           Y           Z
 ---------------------------------------------------------------------
      1          8           0        0.054203   -1.453071    0.000000
      2          1           0       -0.747147   -2.021705    0.000000
      3          1           0        0.851988   -2.026696    0.000000
      4          8           0        0.054203    1.530243    0.000000
      5          1           0       -0.226669    2.471847    0.000000
      6          1           0       -0.745419    0.959182    0.000000
 ---------------------------------------------------------------------

 SCF Done:  E(RHF) =  -152.106734442     A.U. after   10 cycles
 E2 =    -0.5274567212D+00 EUMP2 =    -0.15263419116339D+03
 CCSD(T)
 CCSD(T)= -0.15266133127D+03

 The electronic state is 1-A'.
 Alpha  occ. eigenvalues --  -20.55765 -20.53431  -1.33093  -1.30706  -0.70507
 Alpha  occ. eigenvalues --   -0.68184  -0.56426  -0.54074  -0.50208  -0.47819
 Alpha virt. eigenvalues --    0.13398   0.17100   0.19840   0.23992   0.53443
 Alpha virt. eigenvalues --    0.56079   0.57085   0.58494   0.68312   0.75329
 Alpha virt. eigenvalues --    0.76102   0.77289   0.80413   0.82137   0.84635

 Mulliken charges:
               1
     1  O   -0.485964
     2  H    0.239613
     3  H    0.255297
     4  O   -0.498514
     5  H    0.232245
     6  H    0.257323
 Sum of Mulliken charges =  -0.00000

 Dipole moment (field-independent basis, Debye):
    X=             -1.7645    Y=             -1.5028    Z=              0.0000  Tot=              2.3178
 Quadrupole moment (field-independent basis, Debye-Ang):
   XX=             -9.6680   YY=             -2.6251   ZZ=            -14.7226
   XY=             -2.4645   XZ=              0.0000   YZ=              0.0000

 Normal termination of Gaussian 16 at Sat Aug 27 03:52:53 2022.
