 Gaussian 16, Revision A.03,
 Gaussian 16:  ES64L-G16RevA.03 25-Dec-2016

 ------------------
 #p CCSD(T)/cc-pVTZ
 ------------------

 ------------
 H2O_H2O_2846
 ------------
 Symbolic Z-matrix:
 Charge =  0 Multiplicity = 1

                         Standard orientation:
 ---------------------------------------------------------------------
 Center     Atomic      Atomic             Coordinates (Angstroms)
 Number     Number       Type             X           Y           Z
 ---------------------------------------------------------------------
      1          8           0        0.056112   -2.256231    0.000000
      2          1           0       -0.744654   -2.825687    0.000000
      3          1           0        0.854485   -2.829037    0.000000
      4          8           0        0.056112    2.347938    0.000000
      5          1           0       -0.346180    3.244413    0.000000
      6          1           0       -0.661443    1.676654    0.000000
 ---------------------------------------------------------------------

 SCF Done:  E(RHF) =  -152.107826456     A.U. after   10 cycles
 E2 =    -0.5259802733D+00 EUMP2 =    -0.15263380672934D+03
 CCSD(T)
 CCSD(T)= -0.15266100321D+03

 The electronic state is 1-A'.
 Alpha  occ. eigenvalues --  -20.55764 -20.54676  -1.33054  -1.31973  -0.70461
 Alpha  occ. eigenvalues --   -0.69356  -0.56511  -0.55425  -0.50169  -0.49092
 Alpha virt. eigenvalues --    0.13338   0.15426   0.19987   0.21545   0.54014
 Alpha virt. eigenvalues --    0.54823   0.57076   0.58033   0.66555   0.71133
 Alpha virt. eigenvalues --    0.78721   0.79694   0.79766   0.80699   0.82739

 Mulliken charges:
               1
     1  O   -0.509018
     2  H    0.251984
     3  H    0.257847
     4  O   -0.509904
     5  H    0.248888
     6  H    0.260203
 Sum of Mulliken charges =  -0.00000

 Dipole moment (field-independent basis, Debye):
    X=             -1.9125    Y=             -1.6429    Z=              0.0000  Tot=              2.5213
 Quadrupole moment (field-independent basis, Debye-Ang):
   XX=             -9.7823   YY=              0.8383   ZZ=            -14.7142
   XY=             -4.3195   XZ=              0.0000   YZ=              0.0000

 Normal termination of Gaussian 16 at Fri Aug 26 16:43:37 2022.
