 Gaussian 16, Revision A.03,
 Gaussian 16:  ES64L-G16RevA.03 25-Dec-2016

 ------------------
 #p CCSD(T)/cc-pVTZ
 ------------------

 ------------
 H2O_H2O_1770
 ------------
 Symbolic Z-matrix:
 Charge =  0 Multiplicity = 1

                         Standard orientation:
 ---------------------------------------------------------------------
 Center     Atomic      Atomic             Coordinates (Angstroms)
 Number     Number       Type             X           Y           Z
 ---------------------------------------------------------------------
      1          8           0        0.055283   -1.688495    0.000000
      2          1           0       -0.745852   -2.257431    0.000000
      3          1           0        0.853284   -2.261819    0.000000
      4          8           0        0.055283    1.772855    0.000000
      5          1           0       -0.286918    2.693944    0.000000
      6          1           0       -0.705043    1.150432    0.000000
 ---------------------------------------------------------------------

 SCF Done:  E(RHF) =  -152.108060036     A.U. after   10 cycles
 E2 =    -0.5266021925D+00 EUMP2 =    -0.15263466222845D+03
 CCSD(T)
 CCSD(T)= -0.15266181179D+03

 The electronic state is 1-A'.
 Alpha  occ. eigenvalues --  -20.55874 -20.53942  -1.33146  -1.31226  -0.70557
 Alpha  occ. eigenvalues --   -0.68600  -0.56570  -0.54670  -0.50263  -0.48354
 Alpha virt. eigenvalues --    0.13228   0.16560   0.19863   0.23496   0.53722
 Alpha virt. eigenvalues --    0.54948   0.56950   0.58360   0.65802   0.75609
 Alpha virt. eigenvalues --    0.77735   0.77847   0.78917   0.81020   0.84578

 Mulliken charges:
               1
     1  O   -0.496086
     2  H    0.245173
     3  H    0.256507
     4  O   -0.507236
     5  H    0.240869
     6  H    0.260773
 Sum of Mulliken charges =  -0.00000

 Dipole moment (field-independent basis, Debye):
    X=             -1.8415    Y=             -1.5919    Z=              0.0000  Tot=              2.4341
 Quadrupole moment (field-independent basis, Debye-Ang):
   XX=             -9.7280   YY=             -1.5795   ZZ=            -14.7187
   XY=             -3.0715   XZ=              0.0000   YZ=              0.0000

 Normal termination of Gaussian 16 at Sat Aug 27 06:41:31 2022.
