 Gaussian 16, Revision A.03,
 Gaussian 16:  ES64L-G16RevA.03 25-Dec-2016

 ------------------
 #p CCSD(T)/cc-pVTZ
 ------------------

 ------------
 H2O_H2O_2328
 ------------
 Symbolic Z-matrix:
 Charge =  0 Multiplicity = 1

                         Standard orientation:
 ---------------------------------------------------------------------
 Center     Atomic      Atomic             Coordinates (Angstroms)
 Number     Number       Type             X           Y           Z
 ---------------------------------------------------------------------
      1          8           0        0.011143   -2.038932    0.000000
      2          1           0       -0.788697   -2.609688    0.000000
      3          1           0        0.810445   -2.610440    0.000000
      4          8           0        0.011143    2.041116    0.000000
      5          1           0        0.684264    2.756947    0.000000
      6          1           0       -0.884297    2.445706    0.000000
 ---------------------------------------------------------------------

 SCF Done:  E(RHF) =  -152.105270718     A.U. after   10 cycles
 E2 =    -0.5262508846D+00 EUMP2 =    -0.15263152160237D+03
 CCSD(T)
 CCSD(T)= -0.15265877033D+03

 The electronic state is 1-A'.
 Alpha  occ. eigenvalues --  -20.54625 -20.54594  -1.31911  -1.31877  -0.69327
 Alpha  occ. eigenvalues --   -0.69292  -0.55376  -0.55069  -0.49017  -0.48967
 Alpha virt. eigenvalues --    0.14216   0.15538   0.20622   0.21078   0.54432
 Alpha virt. eigenvalues --    0.56000   0.57878   0.58116   0.62936   0.74258
 Alpha virt. eigenvalues --    0.79561   0.80184   0.80901   0.81348   0.81905

 Mulliken charges:
               1
     1  O   -0.495307
     2  H    0.246826
     3  H    0.248504
     4  O   -0.495234
     5  H    0.246593
     6  H    0.248617
 Sum of Mulliken charges =   0.00000

 Dipole moment (field-independent basis, Debye):
    X=             -0.3771    Y=             -0.0394    Z=              0.0000  Tot=              0.3791
 Quadrupole moment (field-independent basis, Debye-Ang):
   XX=             -7.9104   YY=              4.1060   ZZ=            -14.7095
   XY=             -0.4468   XZ=              0.0000   YZ=              0.0000

 Normal termination of Gaussian 16 at Sat Aug 27 09:53:55 2022.
