 Gaussian 16, Revision A.03,
 Gaussian 16:  ES64L-G16RevA.03 25-Dec-2016

 ------------------
 #p CCSD(T)/cc-pVTZ
 ------------------

 ------------
 H2O_H2O_4645
 ------------
 Symbolic Z-matrix:
 Charge =  0 Multiplicity = 1

                         Standard orientation:
 ---------------------------------------------------------------------
 Center     Atomic      Atomic             Coordinates (Angstroms)
 Number     Number       Type             X           Y           Z
 ---------------------------------------------------------------------
      1          8           0        0.055229   -3.217451    0.000000
      2          1           0       -0.745174   -3.787417    0.000000
      3          1           0        0.853967   -3.789747    0.000000
      4          8           0        0.055229    3.301952    0.000000
      5          1           0       -0.288157    4.222600    0.000000
      6          1           0       -0.704295    2.678551    0.000000
 ---------------------------------------------------------------------

 SCF Done:  E(RHF) =  -152.107480984     A.U. after   10 cycles
 E2 =    -0.5258710427D+00 EUMP2 =    -0.15263335202625D+03
 CCSD(T)
 CCSD(T)= -0.15266057068D+03

 The electronic state is 1-A'.
 Alpha  occ. eigenvalues --  -20.55637 -20.55180  -1.32937  -1.32479  -0.70343
 Alpha  occ. eigenvalues --   -0.69879  -0.56387  -0.55926  -0.50049  -0.49592
 Alpha virt. eigenvalues --    0.14040   0.14505   0.20122   0.20610   0.54218
 Alpha virt. eigenvalues --    0.54694   0.57143   0.57601   0.67786   0.68276
 Alpha virt. eigenvalues --    0.78831   0.79281   0.80260   0.80744   0.82189

 Mulliken charges:
               1
     1  O   -0.509321
     2  H    0.253572
     3  H    0.255749
     4  O   -0.509058
     5  H    0.252405
     6  H    0.256653
 Sum of Mulliken charges =   0.00000

 Dipole moment (field-independent basis, Debye):
    X=             -1.8991    Y=             -1.4751    Z=              0.0000  Tot=              2.4047
 Quadrupole moment (field-independent basis, Debye-Ang):
   XX=             -9.7243   YY=              6.2002   ZZ=            -14.7122
   XY=             -5.9253   XZ=              0.0000   YZ=              0.0000

 Normal termination of Gaussian 16 at Sat Aug 27 08:31:08 2022.
