 Gaussian 16, Revision A.03,
 Gaussian 16:  ES64L-G16RevA.03 25-Dec-2016

 ------------------
 #p CCSD(T)/cc-pVTZ
 ------------------

 ------------
 H2O_H2O_4986
 ------------
 Symbolic Z-matrix:
 Charge =  0 Multiplicity = 1

                         Standard orientation:
 ---------------------------------------------------------------------
 Center     Atomic      Atomic             Coordinates (Angstroms)
 Number     Number       Type             X           Y           Z
 ---------------------------------------------------------------------
      1          8           0        0.037671   -3.434129    0.000000
      2          1           0       -0.762437   -4.004509    0.000000
      3          1           0        0.836704   -4.006012    0.000000
      4          8           0        0.037671    3.462404    0.000000
      5          1           0        0.263146    4.418787    0.000000
      6          1           0       -0.940145    3.365529    0.000000
 ---------------------------------------------------------------------

 SCF Done:  E(RHF) =  -152.107137968     A.U. after   10 cycles
 E2 =    -0.5258975361D+00 EUMP2 =    -0.15263303550454D+03
 CCSD(T)
 CCSD(T)= -0.15266026171D+03

 The electronic state is 1-A'.
 Alpha  occ. eigenvalues --  -20.55390 -20.55253  -1.32687  -1.32550  -0.70094
 Alpha  occ. eigenvalues --   -0.69954  -0.56122  -0.55985  -0.49797  -0.49660
 Alpha virt. eigenvalues --    0.14265   0.14401   0.20326   0.20468   0.54472
 Alpha virt. eigenvalues --    0.54617   0.57366   0.57503   0.68089   0.68227
 Alpha virt. eigenvalues --    0.79083   0.79218   0.80520   0.80667   0.82444

 Mulliken charges:
               1
     1  O   -0.507277
     2  H    0.252977
     3  H    0.254300
     4  O   -0.507186
     5  H    0.252552
     6  H    0.254634
 Sum of Mulliken charges =  -0.00000

 Dipole moment (field-independent basis, Debye):
    X=             -1.2960    Y=             -0.4924    Z=              0.0000  Tot=              1.3864
 Quadrupole moment (field-independent basis, Debye-Ang):
   XX=             -8.6950   YY=             12.9903   ZZ=            -14.7113
   XY=             -3.6162   XZ=              0.0000   YZ=              0.0000

 Normal termination of Gaussian 16 at Sat Aug 27 10:29:31 2022.
