 Gaussian 16, Revision A.03,
 Gaussian 16:  ES64L-G16RevA.03 25-Dec-2016

 ------------------
 #p CCSD(T)/cc-pVTZ
 ------------------

 ------------
 H2O_H2O_3631
 ------------
 Symbolic Z-matrix:
 Charge =  0 Multiplicity = 1

                         Standard orientation:
 ---------------------------------------------------------------------
 Center     Atomic      Atomic             Coordinates (Angstroms)
 Number     Number       Type             X           Y           Z
 ---------------------------------------------------------------------
      1          8           0        0.021859   -2.726800    0.000000
      2          1           0       -0.778105   -3.297381    0.000000
      3          1           0        0.821037   -3.298482    0.000000
      4          8           0        0.021859    2.735465    0.000000
      5          1           0        0.542578    3.568746    0.000000
      6          1           0       -0.935258    2.957799    0.000000
 ---------------------------------------------------------------------

 SCF Done:  E(RHF) =  -152.106554669     A.U. after   10 cycles
 E2 =    -0.5259699212D+00 EUMP2 =    -0.15263252459026D+03
 CCSD(T)
 CCSD(T)= -0.15265976193D+03

 The electronic state is 1-A'.
 Alpha  occ. eigenvalues --  -20.55096 -20.55029  -1.32391  -1.32323  -0.69799
 Alpha  occ. eigenvalues --   -0.69730  -0.55798  -0.55730  -0.49496  -0.49429
 Alpha virt. eigenvalues --    0.14434   0.14650   0.20520   0.20631   0.54754
 Alpha virt. eigenvalues --    0.54862   0.57611   0.57689   0.68128   0.68864
 Alpha virt. eigenvalues --    0.79381   0.79448   0.80825   0.80909   0.82755

 Mulliken charges:
               1
     1  O   -0.503849
     2  H    0.251177
     3  H    0.252673
     4  O   -0.503749
     5  H    0.250842
     6  H    0.252906
 Sum of Mulliken charges =  -0.00000

 Dipole moment (field-independent basis, Debye):
    X=             -0.7489    Y=             -0.1521    Z=              0.0000  Tot=              0.7641
 Quadrupole moment (field-independent basis, Debye-Ang):
   XX=             -8.1086   YY=              9.2637   ZZ=            -14.7104
   XY=             -1.4292   XZ=              0.0000   YZ=              0.0000

 Normal termination of Gaussian 16 at Sat Aug 27 02:04:10 2022.
