 Gaussian 16, Revision A.03,
 Gaussian 16:  ES64L-G16RevA.03 25-Dec-2016

 ------------------
 #p CCSD(T)/cc-pVTZ
 ------------------

 -----------
 H2O_H2O_587
 -----------
 Symbolic Z-matrix:
 Charge =  0 Multiplicity = 1

                         Standard orientation:
 ---------------------------------------------------------------------
 Center     Atomic      Atomic             Coordinates (Angstroms)
 Number     Number       Type             X           Y           Z
 ---------------------------------------------------------------------
      1          8           0        0.040437   -1.091369    0.000000
      2          1           0       -0.760922   -1.659990    0.000000
      3          1           0        0.838212   -1.665007    0.000000
      4          8           0        0.040437    1.124572    0.000000
      5          1           0        0.205009    2.093293    0.000000
      6          1           0       -0.929299    0.966083    0.000000
 ---------------------------------------------------------------------

 SCF Done:  E(RHF) =  -152.081766868     A.U. after   11 cycles
 E2 =    -0.5316763869D+00 EUMP2 =    -0.15261344325458D+03
 CCSD(T)
 CCSD(T)= -0.15264054063D+03

 The electronic state is 1-A'.
 Alpha  occ. eigenvalues --  -20.53599 -20.52434  -1.32109  -1.29474  -0.69330
 Alpha  occ. eigenvalues --   -0.67670  -0.57613  -0.49307  -0.48928  -0.46223
 Alpha virt. eigenvalues --    0.14181   0.17788   0.20219   0.23394   0.53112
 Alpha virt. eigenvalues --    0.57809   0.58245   0.62400   0.71027   0.75970
 Alpha virt. eigenvalues --    0.78688   0.81191   0.83500   0.85675   0.87784

 Mulliken charges:
               1
     1  O   -0.457075
     2  H    0.219137
     3  H    0.237981
     4  O   -0.434438
     5  H    0.193763
     6  H    0.240632
 Sum of Mulliken charges =  -0.00000

 Dipole moment (field-independent basis, Debye):
    X=             -1.2157    Y=             -0.6615    Z=              0.0000  Tot=              1.3840
 Quadrupole moment (field-independent basis, Debye-Ang):
   XX=             -8.9943   YY=             -4.5691   ZZ=            -14.7280
   XY=             -0.7967   XZ=              0.0000   YZ=              0.0000

 Normal termination of Gaussian 16 at Fri Aug 26 17:53:54 2022.
