 Gaussian 16, Revision A.03,
 Gaussian 16:  ES64L-G16RevA.03 25-Dec-2016

 ------------------
 #p CCSD(T)/cc-pVTZ
 ------------------

 ------------
 H2O_H2O_3339
 ------------
 Symbolic Z-matrix:
 Charge =  0 Multiplicity = 1

                         Standard orientation:
 ---------------------------------------------------------------------
 Center     Atomic      Atomic             Coordinates (Angstroms)
 Number     Number       Type             X           Y           Z
 ---------------------------------------------------------------------
      1          8           0        0.045345   -2.547758    0.000000
      2          1           0       -0.755092   -3.117676    0.000000
      3          1           0        0.844048   -3.120103    0.000000
      4          8           0        0.045345    2.592311    0.000000
      5          1           0        0.080474    3.574284    0.000000
      6          1           0       -0.894947    2.307077    0.000000
 ---------------------------------------------------------------------

 SCF Done:  E(RHF) =  -152.106905573     A.U. after   10 cycles
 E2 =    -0.5259584916D+00 EUMP2 =    -0.15263286406443D+03
 CCSD(T)
 CCSD(T)= -0.15266009229D+03

 The electronic state is 1-A'.
 Alpha  occ. eigenvalues --  -20.55322 -20.54924  -1.32618  -1.32217  -0.70026
 Alpha  occ. eigenvalues --   -0.69614  -0.56041  -0.55640  -0.49726  -0.49327
 Alpha virt. eigenvalues --    0.14113   0.14871   0.20316   0.20843   0.54488
 Alpha virt. eigenvalues --    0.54963   0.57413   0.57800   0.67521   0.69387
 Alpha virt. eigenvalues --    0.79154   0.79544   0.80556   0.80986   0.82697

 Mulliken charges:
               1
     1  O   -0.505914
     2  H    0.251129
     3  H    0.254819
     4  O   -0.505498
     5  H    0.249817
     6  H    0.255647
 Sum of Mulliken charges =   0.00000

 Dipole moment (field-independent basis, Debye):
    X=             -1.5514    Y=             -0.7860    Z=              0.0000  Tot=              1.7391
 Quadrupole moment (field-independent basis, Debye-Ang):
   XX=             -9.0986   YY=              5.7350   ZZ=            -14.7113
   XY=             -3.2296   XZ=              0.0000   YZ=              0.0000

 Normal termination of Gaussian 16 at Fri Aug 26 21:30:04 2022.
