 Gaussian 16, Revision A.03,
 Gaussian 16:  ES64L-G16RevA.03 25-Dec-2016

 ------------------
 #p CCSD(T)/cc-pVTZ
 ------------------

 ------------
 H2O_H2O_3832
 ------------
 Symbolic Z-matrix:
 Charge =  0 Multiplicity = 1

                         Standard orientation:
 ---------------------------------------------------------------------
 Center     Atomic      Atomic             Coordinates (Angstroms)
 Number     Number       Type             X           Y           Z
 ---------------------------------------------------------------------
      1          8           0        0.025265   -2.831496    0.000000
      2          1           0       -0.774743   -3.402015    0.000000
      3          1           0        0.824398   -3.403241    0.000000
      4          8           0        0.025265    2.843237    0.000000
      5          1           0        0.490437    3.708755    0.000000
      6          1           0       -0.944332    3.002572    0.000000
 ---------------------------------------------------------------------

 SCF Done:  E(RHF) =  -152.106685900     A.U. after   10 cycles
 E2 =    -0.5259530945D+00 EUMP2 =    -0.15263263899433D+03
 CCSD(T)
 CCSD(T)= -0.15265987386D+03

 The electronic state is 1-A'.
 Alpha  occ. eigenvalues --  -20.55156 -20.55072  -1.32451  -1.32366  -0.69859
 Alpha  occ. eigenvalues --   -0.69772  -0.55865  -0.55780  -0.49558  -0.49473
 Alpha virt. eigenvalues --    0.14418   0.14586   0.20487   0.20597   0.54704
 Alpha virt. eigenvalues --    0.54809   0.57564   0.57653   0.68212   0.68639
 Alpha virt. eigenvalues --    0.79321   0.79404   0.80766   0.80861   0.82701

 Mulliken charges:
               1
     1  O   -0.504620
     2  H    0.251533
     3  H    0.253087
     4  O   -0.504511
     5  H    0.251157
     6  H    0.253353
 Sum of Mulliken charges =  -0.00000

 Dipole moment (field-independent basis, Debye):
    X=             -0.8663    Y=             -0.2057    Z=              0.0000  Tot=              0.8904
 Quadrupole moment (field-independent basis, Debye-Ang):
   XX=             -8.2077   YY=              9.8779   ZZ=            -14.7106
   XY=             -1.7674   XZ=              0.0000   YZ=              0.0000

 Normal termination of Gaussian 16 at Sat Aug 27 03:39:20 2022.
