 Gaussian 16, Revision A.03,
 Gaussian 16:  ES64L-G16RevA.03 25-Dec-2016

 ------------------
 #p CCSD(T)/cc-pVTZ
 ------------------

 ------------
 H2O_H2O_1376
 ------------
 Symbolic Z-matrix:
 Charge =  0 Multiplicity = 1

                         Standard orientation:
 ---------------------------------------------------------------------
 Center     Atomic      Atomic             Coordinates (Angstroms)
 Number     Number       Type             X           Y           Z
 ---------------------------------------------------------------------
      1          8           0        0.003735   -1.534742    0.000000
      2          1           0       -0.795955   -2.105707    0.000000
      3          1           0        0.803187   -2.106041    0.000000
      4          8           0        0.003735    1.534985    0.000000
      5          1           0        0.764372    2.157029    0.000000
      6          1           0       -0.831369    2.052775    0.000000
 ---------------------------------------------------------------------

 SCF Done:  E(RHF) =  -152.101768105     A.U. after   10 cycles
 E2 =    -0.5272642979D+00 EUMP2 =    -0.15262903240295D+03
 CCSD(T)
 CCSD(T)= -0.15265632557D+03

 The electronic state is 1-A'.
 Alpha  occ. eigenvalues --  -20.53901 -20.53895  -1.31295  -1.31105  -0.68707
 Alpha  occ. eigenvalues --   -0.68562  -0.55552  -0.53155  -0.48485  -0.48072
 Alpha virt. eigenvalues --    0.14381   0.16633   0.20573   0.21787   0.51859
 Alpha virt. eigenvalues --    0.58270   0.58635   0.59707   0.64984   0.76123
 Alpha virt. eigenvalues --    0.77959   0.78032   0.79369   0.82522   0.86096

 Mulliken charges:
               1
     1  O   -0.473770
     2  H    0.236287
     3  H    0.237489
     4  O   -0.473694
     5  H    0.236328
     6  H    0.237359
 Sum of Mulliken charges =  -0.00000

 Dipole moment (field-independent basis, Debye):
    X=             -0.1227    Y=             -0.0046    Z=              0.0000  Tot=              0.1228
 Quadrupole moment (field-independent basis, Debye-Ang):
   XX=             -7.9008   YY=             -0.1285   ZZ=            -14.7098
   XY=             -0.0856   XZ=              0.0000   YZ=              0.0000

 Normal termination of Gaussian 16 at Sat Aug 27 04:20:46 2022.
