 Gaussian 16, Revision A.03,
 Gaussian 16:  ES64L-G16RevA.03 25-Dec-2016

 ------------------
 #p CCSD(T)/cc-pVTZ
 ------------------

 ------------
 H2O_H2O_3763
 ------------
 Symbolic Z-matrix:
 Charge =  0 Multiplicity = 1

                         Standard orientation:
 ---------------------------------------------------------------------
 Center     Atomic      Atomic             Coordinates (Angstroms)
 Number     Number       Type             X           Y           Z
 ---------------------------------------------------------------------
      1          8           0        0.042966   -2.776914    0.000000
      2          1           0       -0.757360   -3.346988    0.000000
      3          1           0        0.841781   -3.349102    0.000000
      4          8           0        0.042966    2.815712    0.000000
      5          1           0        0.142052    3.793305    0.000000
      6          1           0       -0.913924    2.592401    0.000000
 ---------------------------------------------------------------------

 SCF Done:  E(RHF) =  -152.106958556     A.U. after   10 cycles
 E2 =    -0.5259336232D+00 EUMP2 =    -0.15263289217972D+03
 CCSD(T)
 CCSD(T)= -0.15266012091D+03

 The electronic state is 1-A'.
 Alpha  occ. eigenvalues --  -20.55328 -20.55039  -1.32625  -1.32333  -0.70032
 Alpha  occ. eigenvalues --   -0.69734  -0.56051  -0.55760  -0.49733  -0.49443
 Alpha virt. eigenvalues --    0.14247   0.14655   0.20347   0.20686   0.54524
 Alpha virt. eigenvalues --    0.54850   0.57411   0.57704   0.67974   0.68681
 Alpha virt. eigenvalues --    0.79146   0.79431   0.80583   0.80889   0.82547

 Mulliken charges:
               1
     1  O   -0.506251
     2  H    0.251751
     3  H    0.254504
     4  O   -0.505964
     5  H    0.250816
     6  H    0.255144
 Sum of Mulliken charges =  -0.00000

 Dipole moment (field-independent basis, Debye):
    X=             -1.4732    Y=             -0.6809    Z=              0.0000  Tot=              1.6229
 Quadrupole moment (field-independent basis, Debye-Ang):
   XX=             -8.9659   YY=              7.6410   ZZ=            -14.7112
   XY=             -3.3120   XZ=              0.0000   YZ=              0.0000

 Normal termination of Gaussian 16 at Sat Aug 27 03:07:08 2022.
