 Gaussian 16, Revision A.03,
 Gaussian 16:  ES64L-G16RevA.03 25-Dec-2016

 ------------------
 #p CCSD(T)/cc-pVTZ
 ------------------

 ------------
 H2O_H2O_1624
 ------------
 Symbolic Z-matrix:
 Charge =  0 Multiplicity = 1

                         Standard orientation:
 ---------------------------------------------------------------------
 Center     Atomic      Atomic             Coordinates (Angstroms)
 Number     Number       Type             X           Y           Z
 ---------------------------------------------------------------------
      1          8           0        0.057283   -1.592685    0.000000
      2          1           0       -0.743986   -2.161432    0.000000
      3          1           0        0.855148   -2.166198    0.000000
      4          8           0        0.057283    1.706571    0.000000
      5          1           0       -0.511463    2.507840    0.000000
      6          1           0       -0.516229    0.908705    0.000000
 ---------------------------------------------------------------------

 SCF Done:  E(RHF) =  -152.110068266     A.U. after   10 cycles
 E2 =    -0.5268510401D+00 EUMP2 =    -0.15263691930571D+03
 CCSD(T)
 CCSD(T)= -0.15266400993D+03

 The electronic state is 1-A'.
 Alpha  occ. eigenvalues --  -20.56604 -20.53539  -1.33879  -1.30865  -0.71274
 Alpha  occ. eigenvalues --   -0.68296  -0.57366  -0.54359  -0.51002  -0.48003
 Alpha virt. eigenvalues --    0.12867   0.16990   0.19564   0.25426   0.52314
 Alpha virt. eigenvalues --    0.55691   0.56635   0.58099   0.67970   0.75214
 Alpha virt. eigenvalues --    0.76297   0.76627   0.80700   0.81305   0.84033

 Mulliken charges:
               1
     1  O   -0.497285
     2  H    0.248076
     3  H    0.260492
     4  O   -0.518577
     5  H    0.241258
     6  H    0.266036
 Sum of Mulliken charges =  -0.00000

 Dipole moment (field-independent basis, Debye):
    X=             -1.9006    Y=             -2.2024    Z=              0.0000  Tot=              2.9091
 Quadrupole moment (field-independent basis, Debye-Ang):
   XX=             -9.8600   YY=             -3.5800   ZZ=            -14.7251
   XY=             -3.5590   XZ=              0.0000   YZ=              0.0000

 Normal termination of Gaussian 16 at Sat Aug 27 05:50:38 2022.
