 Gaussian 16, Revision A.03,
 Gaussian 16:  ES64L-G16RevA.03 25-Dec-2016

 ------------------
 #p CCSD(T)/cc-pVTZ
 ------------------

 -----------
 H2O_H2O_707
 -----------
 Symbolic Z-matrix:
 Charge =  0 Multiplicity = 1

                         Standard orientation:
 ---------------------------------------------------------------------
 Center     Atomic      Atomic             Coordinates (Angstroms)
 Number     Number       Type             X           Y           Z
 ---------------------------------------------------------------------
      1          8           0        0.025271   -1.169536    0.000000
      2          1           0       -0.775355   -1.739188    0.000000
      3          1           0        0.823784   -1.742147    0.000000
      4          8           0        0.025271    1.181223    0.000000
      5          1           0        0.491381    2.046236    0.000000
      6          1           0       -0.944153    1.341607    0.000000
 ---------------------------------------------------------------------

 SCF Done:  E(RHF) =  -152.087429594     A.U. after   11 cycles
 E2 =    -0.5302735691D+00 EUMP2 =    -0.15261770316297D+03
 CCSD(T)
 CCSD(T)= -0.15264492793D+03

 The electronic state is 1-A'.
 Alpha  occ. eigenvalues --  -20.53128 -20.52763  -1.31300  -1.29837  -0.68521
 Alpha  occ. eigenvalues --   -0.67532  -0.57613  -0.49169  -0.48599  -0.46548
 Alpha virt. eigenvalues --    0.14433   0.17617   0.20480   0.22726   0.51551
 Alpha virt. eigenvalues --    0.58667   0.58746   0.63138   0.71010   0.76514
 Alpha virt. eigenvalues --    0.77211   0.80615   0.83971   0.86345   0.87063

 Mulliken charges:
               1
     1  O   -0.460002
     2  H    0.222860
     3  H    0.235424
     4  O   -0.444995
     5  H    0.211347
     6  H    0.235367
 Sum of Mulliken charges =  -0.00000

 Dipole moment (field-independent basis, Debye):
    X=             -0.7766    Y=             -0.2296    Z=              0.0000  Tot=              0.8098
 Quadrupole moment (field-independent basis, Debye-Ang):
   XX=             -8.3944   YY=             -3.6899   ZZ=            -14.7304
   XY=             -0.3892   XZ=              0.0000   YZ=              0.0000

 Normal termination of Gaussian 16 at Fri Aug 26 19:17:35 2022.
