 Gaussian 16, Revision A.03,
 Gaussian 16:  ES64L-G16RevA.03 25-Dec-2016

 ------------------
 #p CCSD(T)/cc-pVTZ
 ------------------

 ------------
 H2O_H2O_1324
 ------------
 Symbolic Z-matrix:
 Charge =  0 Multiplicity = 1

                         Standard orientation:
 ---------------------------------------------------------------------
 Center     Atomic      Atomic             Coordinates (Angstroms)
 Number     Number       Type             X           Y           Z
 ---------------------------------------------------------------------
      1          8           0        0.057301   -1.433153    0.000000
      2          1           0       -0.744150   -2.001644    0.000000
      3          1           0        0.854984   -2.006920    0.000000
      4          8           0        0.057301    1.547002    0.000000
      5          1           0       -0.511189    2.348454    0.000000
      6          1           0       -0.516466    0.749320    0.000000
 ---------------------------------------------------------------------

 SCF Done:  E(RHF) =  -152.109805699     A.U. after   10 cycles
 E2 =    -0.5276522831D+00 EUMP2 =    -0.15263745798241D+03
 CCSD(T)
 CCSD(T)= -0.15266449956D+03

 The electronic state is 1-A'.
 Alpha  occ. eigenvalues --  -20.56850 -20.52979  -1.34196  -1.30346  -0.71572
 Alpha  occ. eigenvalues --   -0.68024  -0.57506  -0.53853  -0.51304  -0.47476
 Alpha virt. eigenvalues --    0.12857   0.17477   0.19455   0.26337   0.51459
 Alpha virt. eigenvalues --    0.55958   0.56858   0.59046   0.69269   0.74303
 Alpha virt. eigenvalues --    0.74736   0.77951   0.82007   0.83309   0.83830

 Mulliken charges:
               1
     1  O   -0.491821
     2  H    0.246544
     3  H    0.261436
     4  O   -0.521251
     5  H    0.236485
     6  H    0.268607
 Sum of Mulliken charges =  -0.00000

 Dipole moment (field-independent basis, Debye):
    X=             -1.8714    Y=             -2.2801    Z=              0.0000  Tot=              2.9497
 Quadrupole moment (field-independent basis, Debye-Ang):
   XX=             -9.8586   YY=             -4.3128   ZZ=            -14.7282
   XY=             -3.2606   XZ=              0.0000   YZ=              0.0000

 Normal termination of Gaussian 16 at Sat Aug 27 03:55:20 2022.
