 Gaussian 16, Revision A.03,
 Gaussian 16:  ES64L-G16RevA.03 25-Dec-2016

 ------------------
 #p CCSD(T)/cc-pVTZ
 ------------------

 ------------
 H2O_H2O_1429
 ------------
 Symbolic Z-matrix:
 Charge =  0 Multiplicity = 1

                         Standard orientation:
 ---------------------------------------------------------------------
 Center     Atomic      Atomic             Coordinates (Angstroms)
 Number     Number       Type             X           Y           Z
 ---------------------------------------------------------------------
      1          8           0        0.014784   -1.559365    0.000000
      2          1           0       -0.785253   -2.129845    0.000000
      3          1           0        0.813889   -2.131148    0.000000
      4          8           0        0.014784    1.563233    0.000000
      5          1           0        0.639909    2.321339    0.000000
      6          1           0       -0.905082    1.908709    0.000000
 ---------------------------------------------------------------------

 SCF Done:  E(RHF) =  -152.102382300     A.U. after   10 cycles
 E2 =    -0.5271663024D+00 EUMP2 =    -0.15262954860246D+03
 CCSD(T)
 CCSD(T)= -0.15265682966D+03

 The electronic state is 1-A'.
 Alpha  occ. eigenvalues --  -20.54036 -20.53947  -1.31380  -1.31189  -0.68798
 Alpha  occ. eigenvalues --   -0.68634  -0.55518  -0.53407  -0.48558  -0.48177
 Alpha virt. eigenvalues --    0.14312   0.16563   0.20551   0.21787   0.52182
 Alpha virt. eigenvalues --    0.58245   0.58538   0.59068   0.64519   0.76448
 Alpha virt. eigenvalues --    0.78071   0.78262   0.79386   0.82338   0.86000

 Mulliken charges:
               1
     1  O   -0.476223
     2  H    0.235926
     3  H    0.240427
     4  O   -0.475364
     5  H    0.235473
     6  H    0.239760
 Sum of Mulliken charges =   0.00000

 Dipole moment (field-independent basis, Debye):
    X=             -0.4866    Y=             -0.0728    Z=              0.0000  Tot=              0.4920
 Quadrupole moment (field-independent basis, Debye-Ang):
   XX=             -8.0204   YY=              0.0409   ZZ=            -14.7098
   XY=             -0.3675   XZ=              0.0000   YZ=              0.0000

 Normal termination of Gaussian 16 at Sat Aug 27 04:42:53 2022.
