 Gaussian 16, Revision A.03,
 Gaussian 16:  ES64L-G16RevA.03 25-Dec-2016

 ------------------
 #p CCSD(T)/cc-pVTZ
 ------------------

 ------------
 H2O_H2O_2818
 ------------
 Symbolic Z-matrix:
 Charge =  0 Multiplicity = 1

                         Standard orientation:
 ---------------------------------------------------------------------
 Center     Atomic      Atomic             Coordinates (Angstroms)
 Number     Number       Type             X           Y           Z
 ---------------------------------------------------------------------
      1          8           0        0.052836   -2.254558    0.000000
      2          1           0       -0.747867   -2.824103    0.000000
      3          1           0        0.851272   -2.827275    0.000000
      4          8           0        0.052836    2.324862    0.000000
      5          1           0       -0.166939    3.282571    0.000000
      6          1           0       -0.781835    1.806373    0.000000
 ---------------------------------------------------------------------

 SCF Done:  E(RHF) =  -152.107312214     A.U. after   10 cycles
 E2 =    -0.5260053992D+00 EUMP2 =    -0.15263331761330D+03
 CCSD(T)
 CCSD(T)= -0.15266052793D+03

 The electronic state is 1-A'.
 Alpha  occ. eigenvalues --  -20.55534 -20.54703  -1.32825  -1.31995  -0.70234
 Alpha  occ. eigenvalues --   -0.69382  -0.56261  -0.55431  -0.49936  -0.49111
 Alpha virt. eigenvalues --    0.13569   0.15363   0.20119   0.21350   0.54126
 Alpha virt. eigenvalues --    0.54891   0.57259   0.57976   0.66468   0.71495
 Alpha virt. eigenvalues --    0.78945   0.79756   0.80015   0.81192   0.82771

 Mulliken charges:
               1
     1  O   -0.506960
     2  H    0.250832
     3  H    0.256625
     4  O   -0.507221
     5  H    0.248345
     6  H    0.258378
 Sum of Mulliken charges =  -0.00000

 Dipole moment (field-independent basis, Debye):
    X=             -1.8001    Y=             -1.2573    Z=              0.0000  Tot=              2.1957
 Quadrupole moment (field-independent basis, Debye-Ang):
   XX=             -9.5594   YY=              2.2867   ZZ=            -14.7129
   XY=             -3.6906   XZ=              0.0000   YZ=              0.0000

 Normal termination of Gaussian 16 at Fri Aug 26 16:27:49 2022.
