 Gaussian 16, Revision A.03,
 Gaussian 16:  ES64L-G16RevA.03 25-Dec-2016

 ------------------
 #p CCSD(T)/cc-pVTZ
 ------------------

 ------------
 H2O_H2O_2954
 ------------
 Symbolic Z-matrix:
 Charge =  0 Multiplicity = 1

                         Standard orientation:
 ---------------------------------------------------------------------
 Center     Atomic      Atomic             Coordinates (Angstroms)
 Number     Number       Type             X           Y           Z
 ---------------------------------------------------------------------
      1          8           0        0.014783   -2.370411    0.000000
      2          1           0       -0.785094   -2.941114    0.000000
      3          1           0        0.814048   -2.941972    0.000000
      4          8           0        0.014783    2.374288    0.000000
      5          1           0        0.639697    3.132567    0.000000
      6          1           0       -0.905179    2.719507    0.000000
 ---------------------------------------------------------------------

 SCF Done:  E(RHF) =  -152.106013912     A.U. after   10 cycles
 E2 =    -0.5260548099D+00 EUMP2 =    -0.15263206872191D+03
 CCSD(T)
 CCSD(T)= -0.15265931474D+03

 The electronic state is 1-A'.
 Alpha  occ. eigenvalues --  -20.54882 -20.54842  -1.32174  -1.32134  -0.69585
 Alpha  occ. eigenvalues --   -0.69543  -0.55567  -0.55497  -0.49276  -0.49235
 Alpha virt. eigenvalues --    0.14376   0.15007   0.20594   0.20809   0.54807
 Alpha virt. eigenvalues --    0.55199   0.57754   0.57860   0.66724   0.70759
 Alpha virt. eigenvalues --    0.79569   0.79668   0.81015   0.81145   0.82543

 Mulliken charges:
               1
     1  O   -0.500644
     2  H    0.249578
     3  H    0.251071
     4  O   -0.500550
     5  H    0.249319
     6  H    0.251227
 Sum of Mulliken charges =  -0.00000

 Dipole moment (field-independent basis, Debye):
    X=             -0.5042    Y=             -0.0686    Z=              0.0000  Tot=              0.5088
 Quadrupole moment (field-independent basis, Debye-Ang):
   XX=             -7.9546   YY=              6.7109   ZZ=            -14.7098
   XY=             -0.7652   XZ=              0.0000   YZ=              0.0000

 Normal termination of Gaussian 16 at Fri Aug 26 17:46:47 2022.
