 Gaussian 16, Revision A.03,
 Gaussian 16:  ES64L-G16RevA.03 25-Dec-2016

 ------------------
 #p CCSD(T)/cc-pVTZ
 ------------------

 ------------
 H2O_H2O_2653
 ------------
 Symbolic Z-matrix:
 Charge =  0 Multiplicity = 1

                         Standard orientation:
 ---------------------------------------------------------------------
 Center     Atomic      Atomic             Coordinates (Angstroms)
 Number     Number       Type             X           Y           Z
 ---------------------------------------------------------------------
      1          8           0        0.011143   -2.211779    0.000000
      2          1           0       -0.788676   -2.782564    0.000000
      3          1           0        0.810466   -2.783257    0.000000
      4          8           0        0.011143    2.213964    0.000000
      5          1           0        0.684238    2.929818    0.000000
      6          1           0       -0.884312    2.618521    0.000000
 ---------------------------------------------------------------------

 SCF Done:  E(RHF) =  -152.105682388     A.U. after   10 cycles
 E2 =    -0.5261255822D+00 EUMP2 =    -0.15263180797008D+03
 CCSD(T)
 CCSD(T)= -0.15265905691D+03

 The electronic state is 1-A'.
 Alpha  occ. eigenvalues --  -20.54761 -20.54735  -1.32050  -1.32023  -0.69463
 Alpha  occ. eigenvalues --   -0.69435  -0.55464  -0.55326  -0.49152  -0.49121
 Alpha virt. eigenvalues --    0.14307   0.15239   0.20619   0.20920   0.54724
 Alpha virt. eigenvalues --    0.55500   0.57817   0.57970   0.65141   0.72391
 Alpha virt. eigenvalues --    0.79613   0.79857   0.81178   0.81198   0.82145

 Mulliken charges:
               1
     1  O   -0.498506
     2  H    0.248579
     3  H    0.249936
     4  O   -0.498435
     5  H    0.248378
     6  H    0.250049
 Sum of Mulliken charges =   0.00000

 Dipole moment (field-independent basis, Debye):
    X=             -0.3788    Y=             -0.0390    Z=              0.0000  Tot=              0.3808
 Quadrupole moment (field-independent basis, Debye-Ang):
   XX=             -7.9017   YY=              5.5078   ZZ=            -14.7096
   XY=             -0.5112   XZ=              0.0000   YZ=              0.0000

 Normal termination of Gaussian 16 at Fri Aug 26 14:45:32 2022.
