 Gaussian 16, Revision A.03,
 Gaussian 16:  ES64L-G16RevA.03 25-Dec-2016

 ------------------
 #p CCSD(T)/cc-pVTZ
 ------------------

 ------------
 H2O_H2O_2989
 ------------
 Symbolic Z-matrix:
 Charge =  0 Multiplicity = 1

                         Standard orientation:
 ---------------------------------------------------------------------
 Center     Atomic      Atomic             Coordinates (Angstroms)
 Number     Number       Type             X           Y           Z
 ---------------------------------------------------------------------
      1          8           0        0.045347   -2.361621    0.000000
      2          1           0       -0.755157   -2.931444    0.000000
      3          1           0        0.843983   -2.934060    0.000000
      4          8           0        0.045347    2.406162    0.000000
      5          1           0        0.080593    3.388132    0.000000
      6          1           0       -0.894978    2.121042    0.000000
 ---------------------------------------------------------------------

 SCF Done:  E(RHF) =  -152.106784698     A.U. after   10 cycles
 E2 =    -0.5260009725D+00 EUMP2 =    -0.15263278567083D+03
 CCSD(T)
 CCSD(T)= -0.15266001343D+03

 The electronic state is 1-A'.
 Alpha  occ. eigenvalues --  -20.55279 -20.54810  -1.32573  -1.32100  -0.69982
 Alpha  occ. eigenvalues --   -0.69496  -0.55988  -0.55517  -0.49679  -0.49211
 Alpha virt. eigenvalues --    0.13968   0.15114   0.20304   0.21012   0.54416
 Alpha virt. eigenvalues --    0.55040   0.57452   0.57879   0.66841   0.70613
 Alpha virt. eigenvalues --    0.79197   0.79661   0.80504   0.81225   0.82912

 Mulliken charges:
               1
     1  O   -0.504996
     2  H    0.250284
     3  H    0.254829
     4  O   -0.504573
     5  H    0.248714
     6  H    0.255742
 Sum of Mulliken charges =  -0.00000

 Dipole moment (field-independent basis, Debye):
    X=             -1.5474    Y=             -0.7907    Z=              0.0000  Tot=              1.7378
 Quadrupole moment (field-independent basis, Debye-Ang):
   XX=             -9.1001   YY=              4.5246   ZZ=            -14.7114
   XY=             -2.9445   XZ=              0.0000   YZ=              0.0000

 Normal termination of Gaussian 16 at Fri Aug 26 18:11:06 2022.
