 Gaussian 16, Revision A.03,
 Gaussian 16:  ES64L-G16RevA.03 25-Dec-2016

 ------------------
 #p CCSD(T)/cc-pVTZ
 ------------------

 ------------
 H2O_H2O_3633
 ------------
 Symbolic Z-matrix:
 Charge =  0 Multiplicity = 1

                         Standard orientation:
 ---------------------------------------------------------------------
 Center     Atomic      Atomic             Coordinates (Angstroms)
 Number     Number       Type             X           Y           Z
 ---------------------------------------------------------------------
      1          8           0        0.028563   -2.723222    0.000000
      2          1           0       -0.771521   -3.293634    0.000000
      3          1           0        0.827620   -3.295074    0.000000
      4          8           0        0.028563    2.738474    0.000000
      5          1           0        0.436252    3.632508    0.000000
      6          1           0       -0.949366    2.834184    0.000000
 ---------------------------------------------------------------------

 SCF Done:  E(RHF) =  -152.106633031     A.U. after   10 cycles
 E2 =    -0.5259637780D+00 EUMP2 =    -0.15263259680876D+03
 CCSD(T)
 CCSD(T)= -0.15265983243D+03

 The electronic state is 1-A'.
 Alpha  occ. eigenvalues --  -20.55143 -20.55025  -1.32439  -1.32319  -0.69847
 Alpha  occ. eigenvalues --   -0.69724  -0.55849  -0.55730  -0.49544  -0.49426
 Alpha virt. eigenvalues --    0.14394   0.14658   0.20484   0.20647   0.54708
 Alpha virt. eigenvalues --    0.54866   0.57570   0.57697   0.68084   0.68847
 Alpha virt. eigenvalues --    0.79334   0.79451   0.80777   0.80914   0.82719

 Mulliken charges:
               1
     1  O   -0.504318
     2  H    0.251181
     3  H    0.253139
     4  O   -0.504155
     5  H    0.250690
     6  H    0.253464
 Sum of Mulliken charges =   0.00000

 Dipole moment (field-independent basis, Debye):
    X=             -0.9786    Y=             -0.2677    Z=              0.0000  Tot=              1.0146
 Quadrupole moment (field-independent basis, Debye-Ang):
   XX=             -8.3204   YY=              8.8362   ZZ=            -14.7105
   XY=             -1.9265   XZ=              0.0000   YZ=              0.0000

 Normal termination of Gaussian 16 at Sat Aug 27 02:05:15 2022.
