 Gaussian 16, Revision A.03,
 Gaussian 16:  ES64L-G16RevA.03 25-Dec-2016

 ------------------
 #p CCSD(T)/cc-pVTZ
 ------------------

 ------------
 H2O_H2O_2052
 ------------
 Symbolic Z-matrix:
 Charge =  0 Multiplicity = 1

                         Standard orientation:
 ---------------------------------------------------------------------
 Center     Atomic      Atomic             Coordinates (Angstroms)
 Number     Number       Type             X           Y           Z
 ---------------------------------------------------------------------
      1          8           0        0.007455   -1.893336    0.000000
      2          1           0       -0.792309   -2.464197    0.000000
      3          1           0        0.806832   -2.464738    0.000000
      4          8           0        0.007455    1.894308    0.000000
      5          1           0        0.725865    2.564675    0.000000
      6          1           0       -0.859668    2.356482    0.000000
 ---------------------------------------------------------------------

 SCF Done:  E(RHF) =  -152.104742147     A.U. after   10 cycles
 E2 =    -0.5264229211D+00 EUMP2 =    -0.15263116506772D+03
 CCSD(T)
 CCSD(T)= -0.15265841510D+03

 The electronic state is 1-A'.
 Alpha  occ. eigenvalues --  -20.54467 -20.54451  -1.31755  -1.31723  -0.69175
 Alpha  occ. eigenvalues --   -0.69144  -0.55320  -0.54741  -0.48875  -0.48793
 Alpha virt. eigenvalues --    0.14201   0.15815   0.20623   0.21236   0.54010
 Alpha virt. eigenvalues --    0.56699   0.57936   0.58262   0.61348   0.75364
 Alpha virt. eigenvalues --    0.79381   0.80349   0.80637   0.80876   0.82610

 Mulliken charges:
               1
     1  O   -0.490833
     2  H    0.244754
     3  H    0.246102
     4  O   -0.490817
     5  H    0.244600
     6  H    0.246194
 Sum of Mulliken charges =  -0.00000

 Dipole moment (field-independent basis, Debye):
    X=             -0.2509    Y=             -0.0178    Z=              0.0000  Tot=              0.2515
 Quadrupole moment (field-independent basis, Debye-Ang):
   XX=             -7.8784   YY=              2.9446   ZZ=            -14.7092
   XY=             -0.2599   XZ=              0.0000   YZ=              0.0000

 78144\MP4DQ=-152.6402187\MP4SDQ=-152.6433107\CCSD=-152.642708\CCSD(T)=
 Normal termination of Gaussian 16 at Sat Aug 27 08:19:03 2022.
