 Gaussian 16, Revision A.03,
 Gaussian 16:  ES64L-G16RevA.03 25-Dec-2016

 ------------------
 #p CCSD(T)/cc-pVTZ
 ------------------

 ------------
 H2O_H2O_1003
 ------------
 Symbolic Z-matrix:
 Charge =  0 Multiplicity = 1

                         Standard orientation:
 ---------------------------------------------------------------------
 Center     Atomic      Atomic             Coordinates (Angstroms)
 Number     Number       Type             X           Y           Z
 ---------------------------------------------------------------------
      1          8           0        0.011143   -1.334252    0.000000
      2          1           0       -0.788838   -1.904810    0.000000
      3          1           0        0.810304   -1.905958    0.000000
      4          8           0        0.011143    1.336431    0.000000
      5          1           0        0.684442    2.052093    0.000000
      6          1           0       -0.884196    1.741243    0.000000
 ---------------------------------------------------------------------

 SCF Done:  E(RHF) =  -152.096882927     A.U. after   11 cycles
 E2 =    -0.5283677505D+00 EUMP2 =    -0.15262525067751D+03
 CCSD(T)
 CCSD(T)= -0.15265256610D+03

 The electronic state is 1-A'.
 Alpha  occ. eigenvalues --  -20.53422 -20.53362  -1.31077  -1.30509  -0.68429
 Alpha  occ. eigenvalues --   -0.68030  -0.56335  -0.51319  -0.48339  -0.47349
 Alpha virt. eigenvalues --    0.14449   0.17208   0.20559   0.22194   0.50862
 Alpha virt. eigenvalues --    0.58628   0.58814   0.61903   0.71841   0.76549
 Alpha virt. eigenvalues --    0.76870   0.78647   0.80540   0.83624   0.86348

 Mulliken charges:
               1
     1  O   -0.464864
     2  H    0.229903
     3  H    0.234725
     4  O   -0.462624
     5  H    0.229041
     6  H    0.233819
 Sum of Mulliken charges =  -0.00000

 Dipole moment (field-independent basis, Debye):
    X=             -0.3555    Y=             -0.0417    Z=              0.0000  Tot=              0.3580
 Quadrupole moment (field-independent basis, Debye-Ang):
   XX=             -8.0224   YY=             -2.0118   ZZ=            -14.7177
   XY=             -0.1924   XZ=              0.0000   YZ=              0.0000

 Normal termination of Gaussian 16 at Sat Aug 27 01:18:02 2022.
