 Gaussian 16, Revision A.03,
 Gaussian 16:  ES64L-G16RevA.03 25-Dec-2016

 ------------------
 #p CCSD(T)/cc-pVTZ
 ------------------

 ------------
 H2O_H2O_1778
 ------------
 Symbolic Z-matrix:
 Charge =  0 Multiplicity = 1

                         Standard orientation:
 ---------------------------------------------------------------------
 Center     Atomic      Atomic             Coordinates (Angstroms)
 Number     Number       Type             X           Y           Z
 ---------------------------------------------------------------------
      1          8           0        0.011143   -1.746423    0.000000
      2          1           0       -0.788741   -2.317116    0.000000
      3          1           0        0.810400   -2.317994    0.000000
      4          8           0        0.011143    1.748606    0.000000
      5          1           0        0.684321    2.464382    0.000000
      6          1           0       -0.884265    2.153266    0.000000
 ---------------------------------------------------------------------

 SCF Done:  E(RHF) =  -152.104030741     A.U. after   10 cycles
 E2 =    -0.5266720493D+00 EUMP2 =    -0.15263070278999D+03
 CCSD(T)
 CCSD(T)= -0.15265795908D+03

 The electronic state is 1-A'.
 Alpha  occ. eigenvalues --  -20.54309 -20.54266  -1.31603  -1.31529  -0.69025
 Alpha  occ. eigenvalues --   -0.68956  -0.55332  -0.54295  -0.48741  -0.48575
 Alpha virt. eigenvalues --    0.14225   0.16123   0.20592   0.21451   0.53263
 Alpha virt. eigenvalues --    0.57465   0.58033   0.58424   0.61418   0.75967
 Alpha virt. eigenvalues --    0.78971   0.79366   0.80288   0.81276   0.83957

 Mulliken charges:
               1
     1  O   -0.484963
     2  H    0.241289
     3  H    0.243756
     4  O   -0.484940
     5  H    0.241051
     6  H    0.243807
 Sum of Mulliken charges =  -0.00000

 Dipole moment (field-independent basis, Debye):
    X=             -0.3721    Y=             -0.0405    Z=              0.0000  Tot=              0.3743
 Quadrupole moment (field-independent basis, Debye-Ang):
   XX=             -7.9350   YY=              1.6837   ZZ=            -14.7089
   XY=             -0.3388   XZ=              0.0000   YZ=              0.0000

 Normal termination of Gaussian 16 at Sat Aug 27 06:44:08 2022.
