 Gaussian 16, Revision A.03,
 Gaussian 16:  ES64L-G16RevA.03 25-Dec-2016

 ------------------
 #p CCSD(T)/cc-pVTZ
 ------------------

 ------------
 H2O_H2O_4049
 ------------
 Symbolic Z-matrix:
 Charge =  0 Multiplicity = 1

                         Standard orientation:
 ---------------------------------------------------------------------
 Center     Atomic      Atomic             Coordinates (Angstroms)
 Number     Number       Type             X           Y           Z
 ---------------------------------------------------------------------
      1          8           0        0.057209   -2.882310    0.000000
      2          1           0       -0.743317   -3.452104    0.000000
      3          1           0        0.855823   -3.454779    0.000000
      4          8           0        0.057209    2.996346    0.000000
      5          1           0       -0.512585    3.796871    0.000000
      6          1           0       -0.515260    2.197730    0.000000
 ---------------------------------------------------------------------

 SCF Done:  E(RHF) =  -152.107786393     A.U. after   10 cycles
 E2 =    -0.5258565965D+00 EUMP2 =    -0.15263364298929D+03
 CCSD(T)
 CCSD(T)= -0.15266085418D+03

 The electronic state is 1-A'.
 Alpha  occ. eigenvalues --  -20.55812 -20.55047  -1.33113  -1.32348  -0.70518
 Alpha  occ. eigenvalues --   -0.69744  -0.56578  -0.55804  -0.50227  -0.49464
 Alpha virt. eigenvalues --    0.13813   0.14709   0.19984   0.20828   0.54035
 Alpha virt. eigenvalues --    0.54813   0.56990   0.57737   0.67421   0.68536
 Alpha virt. eigenvalues --    0.78655   0.79402   0.80074   0.80699   0.82291

 Mulliken charges:
               1
     1  O   -0.511126
     2  H    0.254140
     3  H    0.257008
     4  O   -0.510584
     5  H    0.252040
     6  H    0.258523
 Sum of Mulliken charges =  -0.00000

 Dipole moment (field-independent basis, Debye):
    X=             -1.9643    Y=             -1.9998    Z=              0.0000  Tot=              2.8032
 Quadrupole moment (field-independent basis, Debye-Ang):
   XX=             -9.8639   YY=              1.6427   ZZ=            -14.7131
   XY=             -6.0423   XZ=              0.0000   YZ=              0.0000

 Normal termination of Gaussian 16 at Sat Aug 27 05:06:06 2022.
