 Gaussian 16, Revision A.03,
 Gaussian 16:  ES64L-G16RevA.03 25-Dec-2016

 ------------------
 #p CCSD(T)/cc-pVTZ
 ------------------

 ------------
 H2O_H2O_2110
 ------------
 Symbolic Z-matrix:
 Charge =  0 Multiplicity = 1

                         Standard orientation:
 ---------------------------------------------------------------------
 Center     Atomic      Atomic             Coordinates (Angstroms)
 Number     Number       Type             X           Y           Z
 ---------------------------------------------------------------------
      1          8           0        0.034787   -1.907694    0.000000
      2          1           0       -0.765674   -2.477578    0.000000
      3          1           0        0.833466   -2.480072    0.000000
      4          8           0        0.034787    1.931190    0.000000
      5          1           0        0.322912    2.870599    0.000000
      6          1           0       -0.947291    1.899082    0.000000
 ---------------------------------------------------------------------

 SCF Done:  E(RHF) =  -152.105606480     A.U. after   10 cycles
 E2 =    -0.5263542009D+00 EUMP2 =    -0.15263196068141D+03
 CCSD(T)
 CCSD(T)= -0.15265918994D+03

 The electronic state is 1-A'.
 Alpha  occ. eigenvalues --  -20.54831 -20.54439  -1.32111  -1.31714  -0.69529
 Alpha  occ. eigenvalues --   -0.69114  -0.55538  -0.54966  -0.49215  -0.48816
 Alpha virt. eigenvalues --    0.13904   0.15850   0.20424   0.21442   0.53502
 Alpha virt. eigenvalues --    0.55610   0.57804   0.58249   0.63242   0.75502
 Alpha virt. eigenvalues --    0.79240   0.79868   0.80437   0.81032   0.83073

 Mulliken charges:
               1
     1  O   -0.495083
     2  H    0.244752
     3  H    0.250857
     4  O   -0.495239
     5  H    0.243297
     6  H    0.251415
 Sum of Mulliken charges =  -0.00000

 Dipole moment (field-independent basis, Debye):
    X=             -1.1714    Y=             -0.4293    Z=              0.0000  Tot=              1.2476
 Quadrupole moment (field-independent basis, Debye-Ang):
   XX=             -8.5882   YY=              2.3601   ZZ=            -14.7108
   XY=             -1.4863   XZ=              0.0000   YZ=              0.0000

 Normal termination of Gaussian 16 at Sat Aug 27 08:38:45 2022.
