 Gaussian 16, Revision A.03,
 Gaussian 16:  ES64L-G16RevA.03 25-Dec-2016

 ------------------
 #p CCSD(T)/cc-pVTZ
 ------------------

 -----------
 H2O_H2O_292
 -----------
 Symbolic Z-matrix:
 Charge =  0 Multiplicity = 1

                         Standard orientation:
 ---------------------------------------------------------------------
 Center     Atomic      Atomic             Coordinates (Angstroms)
 Number     Number       Type             X           Y           Z
 ---------------------------------------------------------------------
      1          8           0        0.051371   -0.915508    0.000000
      2          1           0       -0.750850   -1.482912    0.000000
      3          1           0        0.848274   -1.490357    0.000000
      4          8           0        0.051371    0.978736    0.000000
      5          1           0       -0.102704    1.949183    0.000000
      6          1           0       -0.816656    0.518263    0.000000
 ---------------------------------------------------------------------

 SCF Done:  E(RHF) =  -152.031973051     A.U. after   11 cycles
 E2 =    -0.5389416934D+00 EUMP2 =    -0.15257091474433D+03
 CCSD(T)
 CCSD(T)= -0.15259729647D+03

 The electronic state is 1-A'.
 Alpha  occ. eigenvalues --  -20.54110 -20.51055  -1.35236  -1.27840  -0.72643
 Alpha  occ. eigenvalues --   -0.69281  -0.55735  -0.51591  -0.46254  -0.44686
 Alpha virt. eigenvalues --    0.13731   0.18728   0.19675   0.24574   0.51838
 Alpha virt. eigenvalues --    0.56478   0.60116   0.64590   0.72614   0.76138
 Alpha virt. eigenvalues --    0.80501   0.81834   0.84031   0.84093   0.88333

 Mulliken charges:
               1
     1  O   -0.393773
     2  H    0.188725
     3  H    0.221497
     4  O   -0.419977
     5  H    0.159646
     6  H    0.243883
 Sum of Mulliken charges =  -0.00000

 Dipole moment (field-independent basis, Debye):
    X=             -1.4425    Y=             -1.3626    Z=              0.0000  Tot=              1.9843
 Quadrupole moment (field-independent basis, Debye-Ang):
   XX=             -9.5801   YY=             -6.8015   ZZ=            -14.6703
   XY=             -1.1833   XZ=              0.0000   YZ=              0.0000

 Normal termination of Gaussian 16 at Fri Aug 26 14:55:46 2022.
