 Gaussian 16, Revision A.03,
 Gaussian 16:  ES64L-G16RevA.03 25-Dec-2016

 ------------------
 #p CCSD(T)/cc-pVTZ
 ------------------

 ------------
 H2O_H2O_2690
 ------------
 Symbolic Z-matrix:
 Charge =  0 Multiplicity = 1

                         Standard orientation:
 ---------------------------------------------------------------------
 Center     Atomic      Atomic             Coordinates (Angstroms)
 Number     Number       Type             X           Y           Z
 ---------------------------------------------------------------------
      1          8           0        0.047534   -2.198784    0.000000
      2          1           0       -0.753085   -2.768446    0.000000
      3          1           0        0.846054   -2.771385    0.000000
      4          8           0        0.047534    2.249375    0.000000
      5          1           0        0.018679    3.231554    0.000000
      6          1           0       -0.872200    1.903550    0.000000
 ---------------------------------------------------------------------

 SCF Done:  E(RHF) =  -152.106815351     A.U. after   10 cycles
 E2 =    -0.5260558843D+00 EUMP2 =    -0.15263287123528D+03
 CCSD(T)
 CCSD(T)= -0.15266009212D+03

 The electronic state is 1-A'.
 Alpha  occ. eigenvalues --  -20.55308 -20.54681  -1.32598  -1.31969  -0.70009
 Alpha  occ. eigenvalues --   -0.69360  -0.56011  -0.55383  -0.49706  -0.49081
 Alpha virt. eigenvalues --    0.13740   0.15396   0.20243   0.21269   0.54168
 Alpha virt. eigenvalues --    0.55009   0.57441   0.57990   0.66049   0.72310
 Alpha virt. eigenvalues --    0.79157   0.79803   0.80287   0.81660   0.83111

 Mulliken charges:
               1
     1  O   -0.504360
     2  H    0.249510
     3  H    0.255218
     4  O   -0.504317
     5  H    0.247518
     6  H    0.256431
 Sum of Mulliken charges =  -0.00000

 Dipole moment (field-independent basis, Debye):
    X=             -1.6169    Y=             -0.9059    Z=              0.0000  Tot=              1.8534
 Quadrupole moment (field-independent basis, Debye-Ang):
   XX=             -9.2284   YY=              3.1334   ZZ=            -14.7119
   XY=             -2.9209   XZ=              0.0000   YZ=              0.0000

 Normal termination of Gaussian 16 at Fri Aug 26 15:07:56 2022.
