 Gaussian 16, Revision A.03,
 Gaussian 16:  ES64L-G16RevA.03 25-Dec-2016

 ------------------
 #p CCSD(T)/cc-pVTZ
 ------------------

 ------------
 H2O_H2O_1011
 ------------
 Symbolic Z-matrix:
 Charge =  0 Multiplicity = 1

                         Standard orientation:
 ---------------------------------------------------------------------
 Center     Atomic      Atomic             Coordinates (Angstroms)
 Number     Number       Type             X           Y           Z
 ---------------------------------------------------------------------
      1          8           0        0.037692   -1.320137    0.000000
      2          1           0       -0.763264   -1.889325    0.000000
      3          1           0        0.835873   -1.893210    0.000000
      4          8           0        0.037692    1.348301    0.000000
      5          1           0        0.264591    2.304346    0.000000
      6          1           0       -0.940267    1.252882    0.000000
 ---------------------------------------------------------------------

 SCF Done:  E(RHF) =  -152.099494291     A.U. after   11 cycles
 E2 =    -0.5283864116D+00 EUMP2 =    -0.15262788070287D+03
 CCSD(T)
 CCSD(T)= -0.15265513129D+03

 The electronic state is 1-A'.
 Alpha  occ. eigenvalues --  -20.54174 -20.53329  -1.31673  -1.30557  -0.69070
 Alpha  occ. eigenvalues --   -0.68073  -0.56254  -0.52190  -0.48869  -0.47506
 Alpha virt. eigenvalues --    0.14124   0.17145   0.20325   0.22771   0.52981
 Alpha virt. eigenvalues --    0.58135   0.58376   0.60056   0.69701   0.76388
 Alpha virt. eigenvalues --    0.76840   0.77460   0.82758   0.83309   0.85773

 Mulliken charges:
               1
     1  O   -0.472716
     2  H    0.229636
     3  H    0.244059
     4  O   -0.462790
     5  H    0.220049
     6  H    0.241763
 Sum of Mulliken charges =  -0.00000

 Dipole moment (field-independent basis, Debye):
    X=             -1.1986    Y=             -0.5442    Z=              0.0000  Tot=              1.3163
 Quadrupole moment (field-independent basis, Debye-Ang):
   XX=             -8.7986   YY=             -2.3765   ZZ=            -14.7197
   XY=             -0.9445   XZ=              0.0000   YZ=              0.0000

 Normal termination of Gaussian 16 at Sat Aug 27 01:21:51 2022.
