 Gaussian 16, Revision A.03,
 Gaussian 16:  ES64L-G16RevA.03 25-Dec-2016

 ------------------
 #p CCSD(T)/cc-pVTZ
 ------------------

 ------------
 H2O_H2O_4856
 ------------
 Symbolic Z-matrix:
 Charge =  0 Multiplicity = 1

                         Standard orientation:
 ---------------------------------------------------------------------
 Center     Atomic      Atomic             Coordinates (Angstroms)
 Number     Number       Type             X           Y           Z
 ---------------------------------------------------------------------
      1          8           0        0.021859   -3.378296    0.000000
      2          1           0       -0.778030   -3.948983    0.000000
      3          1           0        0.821112   -3.949873    0.000000
      4          8           0        0.021859    3.386967    0.000000
      5          1           0        0.542467    4.220317    0.000000
      6          1           0       -0.935288    3.609174    0.000000
 ---------------------------------------------------------------------

 SCF Done:  E(RHF) =  -152.106992671     A.U. after   10 cycles
 E2 =    -0.5259109036D+00 EUMP2 =    -0.15263290357490D+03
 CCSD(T)
 CCSD(T)= -0.15266013283D+03

 The electronic state is 1-A'.
 Alpha  occ. eigenvalues --  -20.55287 -20.55244  -1.32584  -1.32540  -0.69991
 Alpha  occ. eigenvalues --   -0.69946  -0.56012  -0.55969  -0.49692  -0.49649
 Alpha virt. eigenvalues --    0.14355   0.14399   0.20409   0.20454   0.54577
 Alpha virt. eigenvalues --    0.54624   0.57458   0.57501   0.68209   0.68254
 Alpha virt. eigenvalues --    0.79187   0.79230   0.80627   0.80675   0.82553

 Mulliken charges:
               1
     1  O   -0.506414
     2  H    0.252799
     3  H    0.253615
     4  O   -0.506378
     5  H    0.252593
     6  H    0.253785
 Sum of Mulliken charges =   0.00000

 Dipole moment (field-independent basis, Debye):
    X=             -0.7517    Y=             -0.1510    Z=              0.0000  Tot=              0.7668
 Quadrupole moment (field-independent basis, Debye-Ang):
   XX=             -8.1019   YY=             14.2873   ZZ=            -14.7110
   XY=             -1.9139   XZ=              0.0000   YZ=              0.0000

 Normal termination of Gaussian 16 at Sat Aug 27 09:43:25 2022.
