 Gaussian 16, Revision A.03,
 Gaussian 16:  ES64L-G16RevA.03 25-Dec-2016

 ------------------
 #p CCSD(T)/cc-pVTZ
 ------------------

 ------------
 H2O_H2O_3988
 ------------
 Symbolic Z-matrix:
 Charge =  0 Multiplicity = 1

                         Standard orientation:
 ---------------------------------------------------------------------
 Center     Atomic      Atomic             Coordinates (Angstroms)
 Number     Number       Type             X           Y           Z
 ---------------------------------------------------------------------
      1          8           0        0.042965   -2.896575    0.000000
      2          1           0       -0.757330   -3.466693    0.000000
      3          1           0        0.841811   -3.468720    0.000000
      4          8           0        0.042965    2.935378    0.000000
      5          1           0        0.141998    3.912976    0.000000
      6          1           0       -0.913913    2.712014    0.000000
 ---------------------------------------------------------------------

 SCF Done:  E(RHF) =  -152.107018743     A.U. after   10 cycles
 E2 =    -0.5259222383D+00 EUMP2 =    -0.15263294098113D+03
 CCSD(T)
 CCSD(T)= -0.15266016883D+03

 The electronic state is 1-A'.
 Alpha  occ. eigenvalues --  -20.55353 -20.55088  -1.32650  -1.32383  -0.70057
 Alpha  occ. eigenvalues --   -0.69784  -0.56079  -0.55812  -0.49759  -0.49493
 Alpha virt. eigenvalues --    0.14260   0.14583   0.20338   0.20634   0.54505
 Alpha virt. eigenvalues --    0.54797   0.57392   0.57660   0.68052   0.68502
 Alpha virt. eigenvalues --    0.79121   0.79382   0.80559   0.80843   0.82500

 Mulliken charges:
               1
     1  O   -0.506598
     2  H    0.252080
     3  H    0.254520
     4  O   -0.506360
     5  H    0.251244
     6  H    0.255115
 Sum of Mulliken charges =  -0.00000

 Dipole moment (field-independent basis, Debye):
    X=             -1.4744    Y=             -0.6796    Z=              0.0000  Tot=              1.6235
 Quadrupole moment (field-independent basis, Debye-Ang):
   XX=             -8.9654   YY=              8.4386   ZZ=            -14.7112
   XY=             -3.4868   XZ=              0.0000   YZ=              0.0000

 Normal termination of Gaussian 16 at Sat Aug 27 04:45:09 2022.
