 Gaussian 16, Revision A.03,
 Gaussian 16:  ES64L-G16RevA.03 25-Dec-2016

 ------------------
 #p CCSD(T)/cc-pVTZ
 ------------------

 ------------
 H2O_H2O_1738
 ------------
 Symbolic Z-matrix:
 Charge =  0 Multiplicity = 1

                         Standard orientation:
 ---------------------------------------------------------------------
 Center     Atomic      Atomic             Coordinates (Angstroms)
 Number     Number       Type             X           Y           Z
 ---------------------------------------------------------------------
      1          8           0        0.042982   -1.699982    0.000000
      2          1           0       -0.757815   -2.269394    0.000000
      3          1           0        0.841323   -2.272832    0.000000
      4          8           0        0.042982    1.738710    0.000000
      5          1           0        0.142878    2.716220    0.000000
      6          1           0       -0.914093    1.516190    0.000000
 ---------------------------------------------------------------------

 SCF Done:  E(RHF) =  -152.105584416     A.U. after   10 cycles
 E2 =    -0.5266792840D+00 EUMP2 =    -0.15263226369956D+03
 CCSD(T)
 CCSD(T)= -0.15265947443D+03

 The electronic state is 1-A'.
 Alpha  occ. eigenvalues --  -20.54956 -20.54134  -1.32234  -1.31397  -0.69656
 Alpha  occ. eigenvalues --   -0.68786  -0.55709  -0.54578  -0.49343  -0.48500
 Alpha virt. eigenvalues --    0.13771   0.16321   0.20265   0.22106   0.53406
 Alpha virt. eigenvalues --    0.55420   0.57712   0.58592   0.64015   0.76891
 Alpha virt. eigenvalues --    0.78475   0.78511   0.79700   0.81233   0.85298

 Mulliken charges:
               1
     1  O   -0.489867
     2  H    0.241012
     3  H    0.250717
     4  O   -0.491791
     5  H    0.238074
     6  H    0.251856
 Sum of Mulliken charges =  -0.00000

 Dipole moment (field-independent basis, Debye):
    X=             -1.4300    Y=             -0.7226    Z=              0.0000  Tot=              1.6022
 Quadrupole moment (field-independent basis, Debye-Ang):
   XX=             -8.9940   YY=              0.3314   ZZ=            -14.7128
   XY=             -1.7549   XZ=              0.0000   YZ=              0.0000

 Normal termination of Gaussian 16 at Sat Aug 27 06:30:30 2022.
