 Gaussian 16, Revision A.03,
 Gaussian 16:  ES64L-G16RevA.03 25-Dec-2016

 ------------------
 #p CCSD(T)/cc-pVTZ
 ------------------

 ------------
 H2O_H2O_2675
 ------------
 Symbolic Z-matrix:
 Charge =  0 Multiplicity = 1

                         Standard orientation:
 ---------------------------------------------------------------------
 Center     Atomic      Atomic             Coordinates (Angstroms)
 Number     Number       Type             X           Y           Z
 ---------------------------------------------------------------------
      1          8           0        0.000000   -0.000000    2.226261
      2          1           0        0.000000    0.799571    2.797393
      3          1           0       -0.000000   -0.799571    2.797393
      4          8           0        0.000000   -0.000000   -2.226261
      5          1           0       -0.000000   -0.799571   -2.797393
      6          1           0        0.000000    0.799571   -2.797393
 ---------------------------------------------------------------------

 SCF Done:  E(RHF) =  -152.105663334     A.U. after   10 cycles
 E2 =    -0.5261215606D+00 EUMP2 =    -0.15263178489463D+03
 CCSD(T)
 CCSD(T)= -0.15265903482D+03

 The electronic state is 1-AG.
 Alpha  occ. eigenvalues --  -20.54747 -20.54747  -1.32038  -1.32034  -0.69451
 Alpha  occ. eigenvalues --   -0.69447  -0.55458  -0.55329  -0.49143  -0.49128
 Alpha virt. eigenvalues --    0.14337   0.15212   0.20634   0.20900   0.54769
 Alpha virt. eigenvalues --    0.55489   0.57823   0.57963   0.65258   0.72265
 Alpha virt. eigenvalues --    0.79624   0.79848   0.81184   0.81225   0.82135

 Mulliken charges:
               1
     1  O   -0.498425
     2  H    0.249212
     3  H    0.249212
     4  O   -0.498425
     5  H    0.249212
     6  H    0.249212
 Sum of Mulliken charges =   0.00000

 Dipole moment (field-independent basis, Debye):
    X=             -0.0000    Y=              0.0000    Z=             -0.0000  Tot=              0.0000
 Quadrupole moment (field-independent basis, Debye-Ang):
   XX=            -14.7095   YY=             -7.8240   ZZ=              5.7102
   XY=              0.0000   XZ=              0.0000   YZ=             -0.0000

 \MP4DQ=-152.6408923\MP4SDQ=-152.6439651\CCSD=-152.6433715\CCSD(T)=-152
 Normal termination of Gaussian 16 at Fri Aug 26 14:57:28 2022.
