 Gaussian 16, Revision A.03,
 Gaussian 16:  ES64L-G16RevA.03 25-Dec-2016

 ------------------
 #p CCSD(T)/cc-pVTZ
 ------------------

 ------------
 H2O_H2O_4148
 ------------
 Symbolic Z-matrix:
 Charge =  0 Multiplicity = 1

                         Standard orientation:
 ---------------------------------------------------------------------
 Center     Atomic      Atomic             Coordinates (Angstroms)
 Number     Number       Type             X           Y           Z
 ---------------------------------------------------------------------
      1          8           0        0.057078   -2.939549    0.000000
      2          1           0       -0.743428   -3.509369    0.000000
      3          1           0        0.855712   -3.511991    0.000000
      4          8           0        0.057078    3.046117    0.000000
      5          1           0       -0.459167    3.882178    0.000000
      6          1           0       -0.566371    2.286632    0.000000
 ---------------------------------------------------------------------

 SCF Done:  E(RHF) =  -152.107697050     A.U. after   10 cycles
 E2 =    -0.5258612867D+00 EUMP2 =    -0.15263355833655D+03
 CCSD(T)
 CCSD(T)= -0.15266077172D+03

 The electronic state is 1-A'.
 Alpha  occ. eigenvalues --  -20.55764 -20.55074  -1.33064  -1.32374  -0.70470
 Alpha  occ. eigenvalues --   -0.69771  -0.56525  -0.55828  -0.50178  -0.49490
 Alpha virt. eigenvalues --    0.13880   0.14659   0.20021   0.20777   0.54085
 Alpha virt. eigenvalues --    0.54794   0.57032   0.57712   0.67532   0.68464
 Alpha virt. eigenvalues --    0.78704   0.79378   0.80126   0.80759   0.82211

 Mulliken charges:
               1
     1  O   -0.510609
     2  H    0.253925
     3  H    0.256695
     4  O   -0.510140
     5  H    0.252061
     6  H    0.258068
 Sum of Mulliken charges =  -0.00000

 Dipole moment (field-independent basis, Debye):
    X=             -1.9604    Y=             -1.8671    Z=              0.0000  Tot=              2.7073
 Quadrupole moment (field-independent basis, Debye-Ang):
   XX=             -9.8547   YY=              2.6413   ZZ=            -14.7128
   XY=             -5.9991   XZ=              0.0000   YZ=              0.0000

 Normal termination of Gaussian 16 at Sat Aug 27 05:39:00 2022.
