 Gaussian 16, Revision A.03,
 Gaussian 16:  ES64L-G16RevA.03 25-Dec-2016

 ------------------
 #p CCSD(T)/cc-pVTZ
 ------------------

 -----------
 H2O_H2O_417
 -----------
 Symbolic Z-matrix:
 Charge =  0 Multiplicity = 1

                         Standard orientation:
 ---------------------------------------------------------------------
 Center     Atomic      Atomic             Coordinates (Angstroms)
 Number     Number       Type             X           Y           Z
 ---------------------------------------------------------------------
      1          8           0        0.051361   -0.981972    0.000000
      2          1           0       -0.750687   -1.549620    0.000000
      3          1           0        0.848440   -1.556577    0.000000
      4          8           0        0.051361    1.045231    0.000000
      5          1           0       -0.103010    2.015630    0.000000
      6          1           0       -0.816525    0.584493    0.000000
 ---------------------------------------------------------------------

 SCF Done:  E(RHF) =  -152.060474652     A.U. after   11 cycles
 E2 =    -0.5354663995D+00 EUMP2 =    -0.15259594105134D+03
 CCSD(T)
 CCSD(T)= -0.15262267080D+03

 The electronic state is 1-A'.
 Alpha  occ. eigenvalues --  -20.54398 -20.51490  -1.34118  -1.28512  -0.71501
 Alpha  occ. eigenvalues --   -0.68752  -0.55896  -0.50863  -0.48546  -0.45365
 Alpha virt. eigenvalues --    0.13734   0.18442   0.19764   0.24524   0.51993
 Alpha virt. eigenvalues --    0.56773   0.59982   0.63495   0.72164   0.75502
 Alpha virt. eigenvalues --    0.79893   0.82516   0.83969   0.84230   0.88071

 Mulliken charges:
               1
     1  O   -0.419325
     2  H    0.203059
     3  H    0.229459
     4  O   -0.435646
     5  H    0.177097
     6  H    0.245355
 Sum of Mulliken charges =  -0.00000

 Dipole moment (field-independent basis, Debye):
    X=             -1.4895    Y=             -1.3287    Z=              0.0000  Tot=              1.9960
 Quadrupole moment (field-independent basis, Debye-Ang):
   XX=             -9.5636   YY=             -5.9950   ZZ=            -14.6953
   XY=             -1.3048   XZ=              0.0000   YZ=              0.0000

 Normal termination of Gaussian 16 at Fri Aug 26 16:16:15 2022.
