 Gaussian 16, Revision A.03,
 Gaussian 16:  ES64L-G16RevA.03 25-Dec-2016

 ------------------
 #p CCSD(T)/cc-pVTZ
 ------------------

 ------------
 H2O_H2O_2909
 ------------
 Symbolic Z-matrix:
 Charge =  0 Multiplicity = 1

                         Standard orientation:
 ---------------------------------------------------------------------
 Center     Atomic      Atomic             Coordinates (Angstroms)
 Number     Number       Type             X           Y           Z
 ---------------------------------------------------------------------
      1          8           0        0.031742   -2.335509    0.000000
      2          1           0       -0.768494   -2.905710    0.000000
      3          1           0        0.830647   -2.907572    0.000000
      4          8           0        0.031742    2.354686    0.000000
      5          1           0        0.380327    3.273378    0.000000
      6          1           0       -0.950345    2.386490    0.000000
 ---------------------------------------------------------------------

 SCF Done:  E(RHF) =  -152.106254376     A.U. after   10 cycles
 E2 =    -0.5260444796D+00 EUMP2 =    -0.15263229885535D+03
 CCSD(T)
 CCSD(T)= -0.15265953868D+03

 The electronic state is 1-A'.
 Alpha  occ. eigenvalues --  -20.55016 -20.54811  -1.32308  -1.32101  -0.69719
 Alpha  occ. eigenvalues --   -0.69504  -0.55701  -0.55489  -0.49411  -0.49206
 Alpha virt. eigenvalues --    0.14213   0.15084   0.20486   0.20898   0.54639
 Alpha virt. eigenvalues --    0.55174   0.57657   0.57883   0.66580   0.70943
 Alpha virt. eigenvalues --    0.79451   0.79679   0.80846   0.81225   0.82613

 Mulliken charges:
               1
     1  O   -0.502023
     2  H    0.249369
     3  H    0.252692
     4  O   -0.501660
     5  H    0.248542
     6  H    0.253079
 Sum of Mulliken charges =  -0.00000

 Dipole moment (field-independent basis, Debye):
    X=             -1.0822    Y=             -0.3402    Z=              0.0000  Tot=              1.1344
 Quadrupole moment (field-independent basis, Debye-Ang):
   XX=             -8.4468   YY=              5.7181   ZZ=            -14.7103
   XY=             -1.7665   XZ=              0.0000   YZ=              0.0000

 Normal termination of Gaussian 16 at Fri Aug 26 17:22:20 2022.
