 Gaussian 16, Revision A.03,
 Gaussian 16:  ES64L-G16RevA.03 25-Dec-2016

 ------------------
 #p CCSD(T)/cc-pVTZ
 ------------------

 -----------
 H2O_H2O_145
 -----------
 Symbolic Z-matrix:
 Charge =  0 Multiplicity = 1

                         Standard orientation:
 ---------------------------------------------------------------------
 Center     Atomic      Atomic             Coordinates (Angstroms)
 Number     Number       Type             X           Y           Z
 ---------------------------------------------------------------------
      1          8           0        0.055398   -0.824419    0.000000
      2          1           0       -0.747291   -1.391160    0.000000
      3          1           0        0.851827   -1.399925    0.000000
      4          8           0        0.055398    0.908476    0.000000
      5          1           0       -0.284280    1.830497    0.000000
      6          1           0       -0.706628    0.288136    0.000000
 ---------------------------------------------------------------------

 SCF Done:  E(RHF) =  -151.956895526     A.U. after   11 cycles
 E2 =    -0.5469528462D+00 EUMP2 =    -0.15250384837235D+03
 CCSD(T)
 CCSD(T)= -0.15252902161D+03

 The electronic state is 1-A'.
 Alpha  occ. eigenvalues --  -20.55260 -20.49153  -1.39645  -1.26318  -0.77031
 Alpha  occ. eigenvalues --   -0.71695  -0.54318  -0.52480  -0.43452  -0.43298
 Alpha virt. eigenvalues --    0.13212   0.18671   0.19959   0.25564   0.50222
 Alpha virt. eigenvalues --    0.54604   0.61814   0.67711   0.73116   0.76408
 Alpha virt. eigenvalues --    0.78699   0.80310   0.84182   0.84951   0.88620

 Mulliken charges:
               1
     1  O   -0.318539
     2  H    0.163562
     3  H    0.211267
     4  O   -0.446960
     5  H    0.133903
     6  H    0.256767
 Sum of Mulliken charges =  -0.00000

 Dipole moment (field-independent basis, Debye):
    X=             -1.4696    Y=             -2.0289    Z=              0.0000  Tot=              2.5053
 Quadrupole moment (field-independent basis, Debye-Ang):
   XX=             -9.7920   YY=             -8.3301   ZZ=            -14.5809
   XY=             -1.4081   XZ=              0.0000   YZ=              0.0000

 Normal termination of Gaussian 16 at Fri Aug 26 13:18:16 2022.
