 Gaussian 16, Revision A.03,
 Gaussian 16:  ES64L-G16RevA.03 25-Dec-2016

 ------------------
 #p CCSD(T)/cc-pVTZ
 ------------------

 ------------
 H2O_H2O_1718
 ------------
 Symbolic Z-matrix:
 Charge =  0 Multiplicity = 1

                         Standard orientation:
 ---------------------------------------------------------------------
 Center     Atomic      Atomic             Coordinates (Angstroms)
 Number     Number       Type             X           Y           Z
 ---------------------------------------------------------------------
      1          8           0        0.052859   -1.669575    0.000000
      2          1           0       -0.748231   -2.238575    0.000000
      3          1           0        0.850906   -2.242836    0.000000
      4          8           0        0.052859    1.739808    0.000000
      5          1           0       -0.166263    2.697666    0.000000
      6          1           0       -0.782164    1.221887    0.000000
 ---------------------------------------------------------------------

 SCF Done:  E(RHF) =  -152.107219286     A.U. after   10 cycles
 E2 =    -0.5266744045D+00 EUMP2 =    -0.15263389369024D+03
 CCSD(T)
 CCSD(T)= -0.15266106103D+03

 The electronic state is 1-A'.
 Alpha  occ. eigenvalues --  -20.55585 -20.53972  -1.32860  -1.31244  -0.70277
 Alpha  occ. eigenvalues --   -0.68620  -0.56269  -0.54634  -0.49975  -0.48365
 Alpha virt. eigenvalues --    0.13408   0.16527   0.19977   0.23050   0.54219
 Alpha virt. eigenvalues --    0.54517   0.57200   0.58444   0.65265   0.76142
 Alpha virt. eigenvalues --    0.77894   0.78068   0.78609   0.81178   0.84801

 Mulliken charges:
               1
     1  O   -0.493456
     2  H    0.243222
     3  H    0.254745
     4  O   -0.501630
     5  H    0.239143
     6  H    0.257975
 Sum of Mulliken charges =  -0.00000

 Dipole moment (field-independent basis, Debye):
    X=             -1.7565    Y=             -1.3234    Z=              0.0000  Tot=              2.1992
 Quadrupole moment (field-independent basis, Debye-Ang):
   XX=             -9.5708   YY=             -1.0467   ZZ=            -14.7171
   XY=             -2.6561   XZ=              0.0000   YZ=              0.0000

 Normal termination of Gaussian 16 at Sat Aug 27 06:23:33 2022.
