 Gaussian 16, Revision A.03,
 Gaussian 16:  ES64L-G16RevA.03 25-Dec-2016

 ------------------
 #p CCSD(T)/cc-pVTZ
 ------------------

 -----------
 H2O_H2O_908
 -----------
 Symbolic Z-matrix:
 Charge =  0 Multiplicity = 1

                         Standard orientation:
 ---------------------------------------------------------------------
 Center     Atomic      Atomic             Coordinates (Angstroms)
 Number     Number       Type             X           Y           Z
 ---------------------------------------------------------------------
      1          8           0        0.028571   -1.273998    0.000000
      2          1           0       -0.772094   -1.843596    0.000000
      3          1           0        0.827045   -1.846663    0.000000
      4          8           0        0.028571    1.289192    0.000000
      5          1           0        0.437170    2.182810    0.000000
      6          1           0       -0.949260    1.385897    0.000000
 ---------------------------------------------------------------------

 SCF Done:  E(RHF) =  -152.095883442     A.U. after   11 cycles
 E2 =    -0.5288622318D+00 EUMP2 =    -0.15262474567404D+03
 CCSD(T)
 CCSD(T)= -0.15265202029D+03

 The electronic state is 1-A'.
 Alpha  occ. eigenvalues --  -20.53637 -20.53185  -1.31315  -1.30369  -0.68661
 Alpha  occ. eigenvalues --   -0.67925  -0.56623  -0.51093  -0.48574  -0.47210
 Alpha virt. eigenvalues --    0.14321   0.17286   0.20456   0.22577   0.51974
 Alpha virt. eigenvalues --    0.58476   0.58691   0.61573   0.70719   0.76475
 Alpha virt. eigenvalues --    0.76826   0.78870   0.83672   0.84058   0.86133

 Mulliken charges:
               1
     1  O   -0.467621
     2  H    0.227225
     3  H    0.239496
     4  O   -0.455550
     5  H    0.219147
     6  H    0.237304
 Sum of Mulliken charges =  -0.00000

 Dipole moment (field-independent basis, Debye):
    X=             -0.9003    Y=             -0.2938    Z=              0.0000  Tot=              0.9470
 Quadrupole moment (field-independent basis, Debye-Ang):
   XX=             -8.4555   YY=             -2.6635   ZZ=            -14.7218
   XY=             -0.5573   XZ=              0.0000   YZ=              0.0000

 Normal termination of Gaussian 16 at Fri Aug 26 21:06:22 2022.
