 Gaussian 16, Revision A.03,
 Gaussian 16:  ES64L-G16RevA.03 25-Dec-2016

 ------------------
 #p CCSD(T)/cc-pVTZ
 ------------------

 -----------
 H2O_H2O_163
 -----------
 Symbolic Z-matrix:
 Charge =  0 Multiplicity = 1

                         Standard orientation:
 ---------------------------------------------------------------------
 Center     Atomic      Atomic             Coordinates (Angstroms)
 Number     Number       Type             X           Y           Z
 ---------------------------------------------------------------------
      1          8           0        0.043021   -0.862432    0.000000
      2          1           0       -0.758937   -1.430206    0.000000
      3          1           0        0.840191   -1.436911    0.000000
      4          8           0        0.043021    0.900983    0.000000
      5          1           0        0.144913    1.878287    0.000000
      6          1           0       -0.914506    0.680419    0.000000
 ---------------------------------------------------------------------

 SCF Done:  E(RHF) =  -151.994875631     A.U. after   11 cycles
 E2 =    -0.5428150122D+00 EUMP2 =    -0.15253769064320D+03
 CCSD(T)
 CCSD(T)= -0.15256359966D+03

 The electronic state is 1-A'.
 Alpha  occ. eigenvalues --  -20.52769 -20.51350  -1.35626  -1.27341  -0.72343
 Alpha  occ. eigenvalues --   -0.68875  -0.58946  -0.51876  -0.44004  -0.41035
 Alpha virt. eigenvalues --    0.14080   0.18805   0.19815   0.23846   0.53228
 Alpha virt. eigenvalues --    0.56610   0.58649   0.65042   0.72799   0.77305
 Alpha virt. eigenvalues --    0.80856   0.82144   0.82601   0.84405   0.88788

 Mulliken charges:
               1
     1  O   -0.381442
     2  H    0.178567
     3  H    0.206324
     4  O   -0.369592
     5  H    0.133689
     6  H    0.232454
 Sum of Mulliken charges =  -0.00000

 Dipole moment (field-independent basis, Debye):
    X=             -1.1761    Y=             -0.8543    Z=              0.0000  Tot=              1.4536
 Quadrupole moment (field-independent basis, Debye-Ang):
   XX=             -9.2157   YY=             -7.6051   ZZ=            -14.6797
   XY=             -0.6618   XZ=              0.0000   YZ=              0.0000

 Normal termination of Gaussian 16 at Fri Aug 26 13:30:53 2022.
