 Gaussian 16, Revision A.03,
 Gaussian 16:  ES64L-G16RevA.03 25-Dec-2016

 ------------------
 #p CCSD(T)/cc-pVTZ
 ------------------

 ------------
 H2O_H2O_1801
 ------------
 Symbolic Z-matrix:
 Charge =  0 Multiplicity = 1

                         Standard orientation:
 ---------------------------------------------------------------------
 Center     Atomic      Atomic             Coordinates (Angstroms)
 Number     Number       Type             X           Y           Z
 ---------------------------------------------------------------------
      1          8           0        0.003735   -1.760772    0.000000
      2          1           0       -0.795940   -2.331758    0.000000
      3          1           0        0.803202   -2.332050    0.000000
      4          8           0        0.003735    1.761016    0.000000
      5          1           0        0.764355    2.383080    0.000000
      6          1           0       -0.831383    2.278783    0.000000
 ---------------------------------------------------------------------

 SCF Done:  E(RHF) =  -152.104031668     A.U. after   10 cycles
 E2 =    -0.5266473823D+00 EUMP2 =    -0.15263067904997D+03
 CCSD(T)
 CCSD(T)= -0.15265793664D+03

 The electronic state is 1-A'.
 Alpha  occ. eigenvalues --  -20.54293 -20.54288  -1.31597  -1.31542  -0.69019
 Alpha  occ. eigenvalues --   -0.68971  -0.55316  -0.54319  -0.48736  -0.48586
 Alpha virt. eigenvalues --    0.14245   0.16088   0.20611   0.21412   0.53394
 Alpha virt. eigenvalues --    0.57625   0.58007   0.58405   0.61049   0.75852
 Alpha virt. eigenvalues --    0.79035   0.79546   0.80270   0.81220   0.83846

 Mulliken charges:
               1
     1  O   -0.485255
     2  H    0.242227
     3  H    0.243037
     4  O   -0.485253
     5  H    0.242173
     6  H    0.243071
 Sum of Mulliken charges =  -0.00000

 Dipole moment (field-independent basis, Debye):
    X=             -0.1248    Y=             -0.0045    Z=              0.0000  Tot=              0.1249
 Quadrupole moment (field-independent basis, Debye-Ang):
   XX=             -7.8658   YY=              1.8475   ZZ=            -14.7088
   XY=             -0.1130   XZ=              0.0000   YZ=              0.0000

 Normal termination of Gaussian 16 at Sat Aug 27 06:51:49 2022.
