 Gaussian 16, Revision A.03,
 Gaussian 16:  ES64L-G16RevA.03 25-Dec-2016

 ------------------
 #p CCSD(T)/cc-pVTZ
 ------------------

 ------------
 H2O_H2O_4979
 ------------
 Symbolic Z-matrix:
 Charge =  0 Multiplicity = 1

                         Standard orientation:
 ---------------------------------------------------------------------
 Center     Atomic      Atomic             Coordinates (Angstroms)
 Number     Number       Type             X           Y           Z
 ---------------------------------------------------------------------
      1          8           0        0.014783   -3.447377    0.000000
      2          1           0       -0.784999   -4.018214    0.000000
      3          1           0        0.814143   -4.018804    0.000000
      4          8           0        0.014783    3.451258    0.000000
      5          1           0        0.639570    4.209643    0.000000
      6          1           0       -0.905237    3.796325    0.000000
 ---------------------------------------------------------------------

 SCF Done:  E(RHF) =  -152.106992421     A.U. after   10 cycles
 E2 =    -0.5259098215D+00 EUMP2 =    -0.15263290224217D+03
 CCSD(T)
 CCSD(T)= -0.15266013157D+03

 The electronic state is 1-A'.
 Alpha  occ. eigenvalues --  -20.55280 -20.55261  -1.32577  -1.32558  -0.69983
 Alpha  occ. eigenvalues --   -0.69964  -0.56005  -0.55986  -0.49685  -0.49666
 Alpha virt. eigenvalues --    0.14363   0.14382   0.20416   0.20436   0.54584
 Alpha virt. eigenvalues --    0.54605   0.57465   0.57484   0.68216   0.68237
 Alpha virt. eigenvalues --    0.79194   0.79213   0.80635   0.80655   0.82560

 Mulliken charges:
               1
     1  O   -0.506411
     2  H    0.252945
     3  H    0.253466
     4  O   -0.506396
     5  H    0.252821
     6  H    0.253575
 Sum of Mulliken charges =  -0.00000

 Dipole moment (field-independent basis, Debye):
    X=             -0.5085    Y=             -0.0676    Z=              0.0000  Tot=              0.5130
 Quadrupole moment (field-independent basis, Debye-Ang):
   XX=             -7.9381   YY=             15.2209   ZZ=            -14.7109
   XY=             -1.3057   XZ=              0.0000   YZ=              0.0000

 Normal termination of Gaussian 16 at Sat Aug 27 10:27:08 2022.
