 Gaussian 16, Revision A.03,
 Gaussian 16:  ES64L-G16RevA.03 25-Dec-2016

 ------------------
 #p CCSD(T)/cc-pVTZ
 ------------------

 ------------
 H2O_H2O_3976
 ------------
 Symbolic Z-matrix:
 Charge =  0 Multiplicity = 1

                         Standard orientation:
 ---------------------------------------------------------------------
 Center     Atomic      Atomic             Coordinates (Angstroms)
 Number     Number       Type             X           Y           Z
 ---------------------------------------------------------------------
      1          8           0        0.003735   -2.917516    0.000000
      2          1           0       -0.795899   -3.488560    0.000000
      3          1           0        0.803243   -3.488736    0.000000
      4          8           0        0.003735    2.917760    0.000000
      5          1           0        0.764310    3.539880    0.000000
      6          1           0       -0.831421    3.435467    0.000000
 ---------------------------------------------------------------------

 SCF Done:  E(RHF) =  -152.106636876     A.U. after   10 cycles
 E2 =    -0.5259532190D+00 EUMP2 =    -0.15263259009470D+03
 CCSD(T)
 CCSD(T)= -0.15265982624D+03

 The electronic state is 1-A'.
 Alpha  occ. eigenvalues --  -20.55110 -20.55108  -1.32405  -1.32403  -0.69813
 Alpha  occ. eigenvalues --   -0.69811  -0.55816  -0.55814  -0.49511  -0.49509
 Alpha virt. eigenvalues --    0.14465   0.14543   0.20524   0.20554   0.54747
 Alpha virt. eigenvalues --    0.54771   0.57603   0.57617   0.68313   0.68558
 Alpha virt. eigenvalues --    0.79367   0.79369   0.80811   0.80821   0.82741

 Mulliken charges:
               1
     1  O   -0.504319
     2  H    0.252054
     3  H    0.252266
     4  O   -0.504317
     5  H    0.252014
     6  H    0.252303
 Sum of Mulliken charges =  -0.00000

 Dipole moment (field-independent basis, Debye):
    X=             -0.1281    Y=             -0.0043    Z=              0.0000  Tot=              0.1282
 Quadrupole moment (field-independent basis, Debye-Ang):
   XX=             -7.8148   YY=             11.2863   ZZ=            -14.7104
   XY=             -0.2579   XZ=              0.0000   YZ=              0.0000

 Normal termination of Gaussian 16 at Sat Aug 27 04:41:04 2022.
