 Gaussian 16, Revision A.03,
 Gaussian 16:  ES64L-G16RevA.03 25-Dec-2016

 ------------------
 #p CCSD(T)/cc-pVTZ
 ------------------

 -----------
 H2O_H2O_833
 -----------
 Symbolic Z-matrix:
 Charge =  0 Multiplicity = 1

                         Standard orientation:
 ---------------------------------------------------------------------
 Center     Atomic      Atomic             Coordinates (Angstroms)
 Number     Number       Type             X           Y           Z
 ---------------------------------------------------------------------
      1          8           0        0.028572   -1.234112    0.000000
      2          1           0       -0.772129   -1.803660    0.000000
      3          1           0        0.827010   -1.806826    0.000000
      4          8           0        0.028572    1.249303    0.000000
      5          1           0        0.437226    2.142896    0.000000
      6          1           0       -0.949254    1.346069    0.000000
 ---------------------------------------------------------------------

 SCF Done:  E(RHF) =  -152.093521537     A.U. after   11 cycles
 E2 =    -0.5293086456D+00 EUMP2 =    -0.15262283018288D+03
 CCSD(T)
 CCSD(T)= -0.15265009184D+03

 The electronic state is 1-A'.
 Alpha  occ. eigenvalues --  -20.53504 -20.53039  -1.31318  -1.30195  -0.68631
 Alpha  occ. eigenvalues --   -0.67799  -0.56920  -0.50510  -0.48592  -0.46996
 Alpha virt. eigenvalues --    0.14346   0.17398   0.20454   0.22665   0.51929
 Alpha virt. eigenvalues --    0.58515   0.58672   0.62053   0.70857   0.76399
 Alpha virt. eigenvalues --    0.76938   0.79530   0.83778   0.85858   0.86181

 Mulliken charges:
               1
     1  O   -0.465557
     2  H    0.225716
     3  H    0.238632
     4  O   -0.451703
     5  H    0.215944
     6  H    0.236967
 Sum of Mulliken charges =  -0.00000

 Dipole moment (field-independent basis, Debye):
    X=             -0.8924    Y=             -0.2952    Z=              0.0000  Tot=              0.9399
 Quadrupole moment (field-independent basis, Debye-Ang):
   XX=             -8.4702   YY=             -3.0468   ZZ=            -14.7246
   XY=             -0.5232   XZ=              0.0000   YZ=              0.0000

 Normal termination of Gaussian 16 at Fri Aug 26 20:25:18 2022.
