 Gaussian 16, Revision A.03,
 Gaussian 16:  ES64L-G16RevA.03 25-Dec-2016

 ------------------
 #p CCSD(T)/cc-pVTZ
 ------------------

 -----------
 H2O_H2O_486
 -----------
 Symbolic Z-matrix:
 Charge =  0 Multiplicity = 1

                         Standard orientation:
 ---------------------------------------------------------------------
 Center     Atomic      Atomic             Coordinates (Angstroms)
 Number     Number       Type             X           Y           Z
 ---------------------------------------------------------------------
      1          8           0        0.037701   -1.040949    0.000000
      2          1           0       -0.763621   -1.609621    0.000000
      3          1           0        0.835513   -1.614535    0.000000
      4          8           0        0.037701    1.069063    0.000000
      5          1           0        0.265215    2.024963    0.000000
      6          1           0       -0.940319    0.974274    0.000000
 ---------------------------------------------------------------------

 SCF Done:  E(RHF) =  -152.071024018     A.U. after   11 cycles
 E2 =    -0.5331371001D+00 EUMP2 =    -0.15260416111826D+03
 CCSD(T)
 CCSD(T)= -0.15263115309D+03

 The electronic state is 1-A'.
 Alpha  occ. eigenvalues --  -20.53160 -20.52191  -1.32251  -1.29092  -0.69351
 Alpha  occ. eigenvalues --   -0.67514  -0.58394  -0.49423  -0.47260  -0.45755
 Alpha virt. eigenvalues --    0.14282   0.17951   0.20238   0.23366   0.53037
 Alpha virt. eigenvalues --    0.57705   0.58359   0.63248   0.71021   0.76443
 Alpha virt. eigenvalues --    0.78915   0.81595   0.83579   0.85779   0.87946

 Mulliken charges:
               1
     1  O   -0.449593
     2  H    0.214585
     3  H    0.233494
     4  O   -0.421441
     5  H    0.185179
     6  H    0.237776
 Sum of Mulliken charges =  -0.00000

 Dipole moment (field-independent basis, Debye):
    X=             -1.1137    Y=             -0.5673    Z=              0.0000  Tot=              1.2498
 Quadrupole moment (field-independent basis, Debye-Ang):
   XX=             -8.8970   YY=             -5.1103   ZZ=            -14.7292
   XY=             -0.6340   XZ=              0.0000   YZ=              0.0000

 199814\MP4DQ=-152.6118906\MP4SDQ=-152.61531\CCSD=-152.61458\CCSD(T)=-1
 Normal termination of Gaussian 16 at Fri Aug 26 16:54:20 2022.
