 Gaussian 16, Revision A.03,
 Gaussian 16:  ES64L-G16RevA.03 25-Dec-2016

 ------------------
 #p CCSD(T)/cc-pVTZ
 ------------------

 -----------
 H2O_H2O_565
 -----------
 Symbolic Z-matrix:
 Charge =  0 Multiplicity = 1

                         Standard orientation:
 ---------------------------------------------------------------------
 Center     Atomic      Atomic             Coordinates (Angstroms)
 Number     Number       Type             X           Y           Z
 ---------------------------------------------------------------------
      1          8           0        0.047582   -1.068726    0.000000
      2          1           0       -0.754117   -1.636866    0.000000
      3          1           0        0.845014   -1.642842    0.000000
      4          8           0        0.047582    1.119137    0.000000
      5          1           0        0.020592    2.101368    0.000000
      6          1           0       -0.872807    0.775058    0.000000
 ---------------------------------------------------------------------

 SCF Done:  E(RHF) =  -152.080778953     A.U. after   11 cycles
 E2 =    -0.5322681944D+00 EUMP2 =    -0.15261304714757D+03
 CCSD(T)
 CCSD(T)= -0.15264007103D+03

 The electronic state is 1-A'.
 Alpha  occ. eigenvalues --  -20.54191 -20.52214  -1.32806  -1.29297  -0.70102
 Alpha  occ. eigenvalues --   -0.68024  -0.56824  -0.49885  -0.49668  -0.46130
 Alpha virt. eigenvalues --    0.13922   0.17972   0.20007   0.23920   0.52827
 Alpha virt. eigenvalues --    0.57431   0.58861   0.62148   0.71509   0.75362
 Alpha virt. eigenvalues --    0.79293   0.82440   0.83159   0.84985   0.87885

 Mulliken charges:
               1
     1  O   -0.449270
     2  H    0.217090
     3  H    0.237038
     4  O   -0.440603
     5  H    0.191400
     6  H    0.244345
 Sum of Mulliken charges =  -0.00000

 Dipole moment (field-independent basis, Debye):
    X=             -1.4232    Y=             -1.0179    Z=              0.0000  Tot=              1.7498
 Quadrupole moment (field-independent basis, Debye-Ang):
   XX=             -9.3471   YY=             -4.9368   ZZ=            -14.7201
   XY=             -1.1568   XZ=              0.0000   YZ=              0.0000

 Normal termination of Gaussian 16 at Fri Aug 26 17:41:52 2022.
