 Gaussian 16, Revision A.03,
 Gaussian 16:  ES64L-G16RevA.03 25-Dec-2016

 ------------------
 #p CCSD(T)/cc-pVTZ
 ------------------

 ------------
 H2O_H2O_2341
 ------------
 Symbolic Z-matrix:
 Charge =  0 Multiplicity = 1

                         Standard orientation:
 ---------------------------------------------------------------------
 Center     Atomic      Atomic             Coordinates (Angstroms)
 Number     Number       Type             X           Y           Z
 ---------------------------------------------------------------------
      1          8           0        0.049521   -2.009212    0.000000
      2          1           0       -0.751242   -2.578672    0.000000
      3          1           0        0.847897   -2.582013    0.000000
      4          8           0        0.049521    2.066118    0.000000
      5          1           0       -0.043264    3.044329    0.000000
      6          1           0       -0.845727    1.661104    0.000000
 ---------------------------------------------------------------------

 SCF Done:  E(RHF) =  -152.106899631     A.U. after   10 cycles
 E2 =    -0.5261757509D+00 EUMP2 =    -0.15263307538170D+03
 CCSD(T)
 CCSD(T)= -0.15266028174D+03

 The electronic state is 1-A'.
 Alpha  occ. eigenvalues --  -20.55361 -20.54492  -1.32644  -1.31775  -0.70056
 Alpha  occ. eigenvalues --   -0.69158  -0.56053  -0.55183  -0.49753  -0.48890
 Alpha virt. eigenvalues --    0.13519   0.15767   0.20169   0.21716   0.53826
 Alpha virt. eigenvalues --    0.54822   0.57411   0.58250   0.65159   0.74511
 Alpha virt. eigenvalues --    0.79020   0.79740   0.80073   0.81770   0.83687

 Mulliken charges:
               1
     1  O   -0.502276
     2  H    0.247996
     3  H    0.255351
     4  O   -0.503776
     5  H    0.245521
     6  H    0.257184
 Sum of Mulliken charges =  -0.00000

 Dipole moment (field-independent basis, Debye):
    X=             -1.6752    Y=             -1.0332    Z=              0.0000  Tot=              1.9682
 Quadrupole moment (field-independent basis, Debye-Ang):
   XX=             -9.3510   YY=              1.6187   ZZ=            -14.7130
   XY=             -2.8310   XZ=              0.0000   YZ=              0.0000

 Normal termination of Gaussian 16 at Sat Aug 27 09:58:37 2022.
