 Gaussian 16, Revision A.03,
 Gaussian 16:  ES64L-G16RevA.03 25-Dec-2016

 ------------------
 #p CCSD(T)/cc-pVTZ
 ------------------

 ------------
 H2O_H2O_3249
 ------------
 Symbolic Z-matrix:
 Charge =  0 Multiplicity = 1

                         Standard orientation:
 ---------------------------------------------------------------------
 Center     Atomic      Atomic             Coordinates (Angstroms)
 Number     Number       Type             X           Y           Z
 ---------------------------------------------------------------------
      1          8           0        0.057225   -2.456858    0.000000
      2          1           0       -0.743462   -3.026426    0.000000
      3          1           0        0.855677   -3.029553    0.000000
      4          8           0        0.057225    2.570861    0.000000
      5          1           0       -0.512342    3.371548    0.000000
      6          1           0       -0.515470    1.772408    0.000000
 ---------------------------------------------------------------------

 SCF Done:  E(RHF) =  -152.108081901     A.U. after   10 cycles
 E2 =    -0.5258972549D+00 EUMP2 =    -0.15263397915562D+03
 CCSD(T)
 CCSD(T)= -0.15266117632D+03

 The electronic state is 1-A'.
 Alpha  occ. eigenvalues --  -20.55909 -20.54810  -1.33204  -1.32112  -0.70609
 Alpha  occ. eigenvalues --   -0.69500  -0.56678  -0.55572  -0.50320  -0.49231
 Alpha virt. eigenvalues --    0.13387   0.15169   0.19913   0.21286   0.53919
 Alpha virt. eigenvalues --    0.54884   0.56932   0.57881   0.66797   0.69622
 Alpha virt. eigenvalues --    0.78571   0.79625   0.79729   0.80197   0.82806

 Mulliken charges:
               1
     1  O   -0.511773
     2  H    0.253858
     3  H    0.258338
     4  O   -0.511557
     5  H    0.250604
     6  H    0.260530
 Sum of Mulliken charges =  -0.00000

 Dipole moment (field-independent basis, Debye):
    X=             -1.9575    Y=             -2.0237    Z=              0.0000  Tot=              2.8156
 Quadrupole moment (field-independent basis, Debye-Ang):
   XX=             -9.8626   YY=             -0.0535   ZZ=            -14.7143
   XY=             -5.2139   XZ=              0.0000   YZ=              0.0000

 Normal termination of Gaussian 16 at Fri Aug 26 20:43:26 2022.
