 Gaussian 16, Revision A.03,
 Gaussian 16:  ES64L-G16RevA.03 25-Dec-2016

 ------------------
 #p CCSD(T)/cc-pVTZ
 ------------------

 ------------
 H2O_H2O_2650
 ------------
 Symbolic Z-matrix:
 Charge =  0 Multiplicity = 1

                         Standard orientation:
 ---------------------------------------------------------------------
 Center     Atomic      Atomic             Coordinates (Angstroms)
 Number     Number       Type             X           Y           Z
 ---------------------------------------------------------------------
      1          8           0        0.000000   -0.000000    2.212966
      2          1           0        0.000000    0.799571    2.784098
      3          1           0       -0.000000   -0.799571    2.784098
      4          8           0        0.000000   -0.000000   -2.212966
      5          1           0       -0.000000   -0.799571   -2.784098
      6          1           0        0.000000    0.799571   -2.784098
 ---------------------------------------------------------------------

 SCF Done:  E(RHF) =  -152.105635029     A.U. after   10 cycles
 E2 =    -0.5261286685D+00 EUMP2 =    -0.15263176369711D+03
 CCSD(T)
 CCSD(T)= -0.15265901375D+03

 The electronic state is 1-AG.
 Alpha  occ. eigenvalues --  -20.54737 -20.54737  -1.32028  -1.32024  -0.69442
 Alpha  occ. eigenvalues --   -0.69437  -0.55450  -0.55312  -0.49133  -0.49118
 Alpha virt. eigenvalues --    0.14330   0.15233   0.20635   0.20910   0.54757
 Alpha virt. eigenvalues --    0.55521   0.57828   0.57973   0.65098   0.72414
 Alpha virt. eigenvalues --    0.79625   0.79867   0.81182   0.81248   0.82091

 Mulliken charges:
               1
     1  O   -0.498231
     2  H    0.249115
     3  H    0.249115
     4  O   -0.498231
     5  H    0.249115
     6  H    0.249115
 Sum of Mulliken charges =  -0.00000

 Dipole moment (field-independent basis, Debye):
    X=             -0.0000    Y=              0.0000    Z=              0.0000  Tot=              0.0000
 Quadrupole moment (field-independent basis, Debye-Ang):
   XX=            -14.7095   YY=             -7.8246   ZZ=              5.6017
   XY=              0.0000   XZ=              0.0000   YZ=             -0.0000

 P4DQ=-152.64087\MP4SDQ=-152.6439433\CCSD=-152.6433494\CCSD(T)=-152.659
 Normal termination of Gaussian 16 at Fri Aug 26 14:43:56 2022.
