 Gaussian 16, Revision A.03,
 Gaussian 16:  ES64L-G16RevA.03 25-Dec-2016

 ------------------
 #p CCSD(T)/cc-pVTZ
 ------------------

 ------------
 H2O_H2O_4015
 ------------
 Symbolic Z-matrix:
 Charge =  0 Multiplicity = 1

                         Standard orientation:
 ---------------------------------------------------------------------
 Center     Atomic      Atomic             Coordinates (Angstroms)
 Number     Number       Type             X           Y           Z
 ---------------------------------------------------------------------
      1          8           0        0.047523   -2.903446    0.000000
      2          1           0       -0.752844   -3.473461    0.000000
      3          1           0        0.846296   -3.475693    0.000000
      4          8           0        0.047523    2.954079    0.000000
      5          1           0        0.018233    3.936244    0.000000
      6          1           0       -0.872058    2.607847    0.000000
 ---------------------------------------------------------------------

 SCF Done:  E(RHF) =  -152.107144355     A.U. after   10 cycles
 E2 =    -0.5259112838D+00 EUMP2 =    -0.15263305563928D+03
 CCSD(T)
 CCSD(T)= -0.15266028078D+03

 The electronic state is 1-A'.
 Alpha  occ. eigenvalues --  -20.55429 -20.55086  -1.32727  -1.32381  -0.70134
 Alpha  occ. eigenvalues --   -0.69781  -0.56162  -0.55816  -0.49837  -0.49492
 Alpha virt. eigenvalues --    0.14190   0.14597   0.20278   0.20660   0.54426
 Alpha virt. eigenvalues --    0.54799   0.57325   0.57671   0.67961   0.68489
 Alpha virt. eigenvalues --    0.79043   0.79382   0.80478   0.80840   0.82429

 Mulliken charges:
               1
     1  O   -0.507344
     2  H    0.252347
     3  H    0.255000
     4  O   -0.507067
     5  H    0.251321
     6  H    0.255744
 Sum of Mulliken charges =  -0.00000

 Dipole moment (field-independent basis, Debye):
    X=             -1.6312    Y=             -0.8870    Z=              0.0000  Tot=              1.8567
 Quadrupole moment (field-independent basis, Debye-Ang):
   XX=             -9.2247   YY=              7.5544   ZZ=            -14.7115
   XY=             -4.0546   XZ=              0.0000   YZ=              0.0000

 Normal termination of Gaussian 16 at Sat Aug 27 04:53:46 2022.
