 Gaussian 16, Revision A.03,
 Gaussian 16:  ES64L-G16RevA.03 25-Dec-2016

 ------------------
 #p CCSD(T)/cc-pVTZ
 ------------------

 ------------
 H2O_H2O_1325
 ------------
 Symbolic Z-matrix:
 Charge =  0 Multiplicity = 1

                         Standard orientation:
 ---------------------------------------------------------------------
 Center     Atomic      Atomic             Coordinates (Angstroms)
 Number     Number       Type             X           Y           Z
 ---------------------------------------------------------------------
      1          8           0        0.000000   -0.000000    1.508282
      2          1           0        0.000000    0.799571    2.079414
      3          1           0       -0.000000   -0.799571    2.079414
      4          8           0        0.000000   -0.000000   -1.508282
      5          1           0       -0.000000   -0.799571   -2.079414
      6          1           0        0.000000    0.799571   -2.079414
 ---------------------------------------------------------------------

 SCF Done:  E(RHF) =  -152.101320609     A.U. after   10 cycles
 E2 =    -0.5273685807D+00 EUMP2 =    -0.15262868919008D+03
 CCSD(T)
 CCSD(T)= -0.15265598831D+03

 The electronic state is 1-AG.
 Alpha  occ. eigenvalues --  -20.53836 -20.53836  -1.31255  -1.31035  -0.68663
 Alpha  occ. eigenvalues --   -0.68499  -0.55613  -0.52956  -0.48453  -0.47990
 Alpha virt. eigenvalues --    0.14399   0.16706   0.20572   0.21833   0.51658
 Alpha virt. eigenvalues --    0.58309   0.58662   0.60024   0.65833   0.76124
 Alpha virt. eigenvalues --    0.77806   0.77939   0.79292   0.82686   0.86134

 Mulliken charges:
               1
     1  O   -0.472302
     2  H    0.236151
     3  H    0.236151
     4  O   -0.472302
     5  H    0.236151
     6  H    0.236151
 Sum of Mulliken charges =  -0.00000

 Dipole moment (field-independent basis, Debye):
    X=             -0.0000    Y=              0.0000    Z=              0.0000  Tot=              0.0000
 Quadrupole moment (field-independent basis, Debye-Ang):
   XX=            -14.7103   YY=             -7.8980   ZZ=             -0.3650
   XY=              0.0000   XZ=             -0.0000   YZ=             -0.0000

 \MP4DQ=-152.6376029\MP4SDQ=-152.6407525\CCSD=-152.6401302\CCSD(T)=-152
 Normal termination of Gaussian 16 at Sat Aug 27 03:55:46 2022.
