 Gaussian 16, Revision A.03,
 Gaussian 16:  ES64L-G16RevA.03 25-Dec-2016

 ------------------
 #p CCSD(T)/cc-pVTZ
 ------------------

 ------------
 H2O_H2O_2814
 ------------
 Symbolic Z-matrix:
 Charge =  0 Multiplicity = 1

                         Standard orientation:
 ---------------------------------------------------------------------
 Center     Atomic      Atomic             Coordinates (Angstroms)
 Number     Number       Type             X           Y           Z
 ---------------------------------------------------------------------
      1          8           0        0.045349   -2.268553    0.000000
      2          1           0       -0.755193   -2.838322    0.000000
      3          1           0        0.843946   -2.841045    0.000000
      4          8           0        0.045349    2.313088    0.000000
      5          1           0        0.080660    3.295055    0.000000
      6          1           0       -0.894996    2.028030    0.000000
 ---------------------------------------------------------------------

 SCF Done:  E(RHF) =  -152.106717662     A.U. after   10 cycles
 E2 =    -0.5260331328D+00 EUMP2 =    -0.15263275079510D+03
 CCSD(T)
 CCSD(T)= -0.15265997725D+03

 The electronic state is 1-A'.
 Alpha  occ. eigenvalues --  -20.55256 -20.54743  -1.32548  -1.32032  -0.69958
 Alpha  occ. eigenvalues --   -0.69426  -0.55958  -0.55444  -0.49654  -0.49142
 Alpha virt. eigenvalues --    0.13880   0.15259   0.20295   0.21121   0.54320
 Alpha virt. eigenvalues --    0.55061   0.57476   0.57930   0.66367   0.71529
 Alpha virt. eigenvalues --    0.79215   0.79735   0.80454   0.81447   0.83042

 Mulliken charges:
               1
     1  O   -0.504325
     2  H    0.249736
     3  H    0.254792
     4  O   -0.503993
     5  H    0.248032
     6  H    0.255757
 Sum of Mulliken charges =  -0.00000

 Dipole moment (field-independent basis, Debye):
    X=             -1.5448    Y=             -0.7940    Z=              0.0000  Tot=              1.7369
 Quadrupole moment (field-independent basis, Debye-Ang):
   XX=             -9.1012   YY=              3.9179   ZZ=            -14.7115
   XY=             -2.8022   XZ=              0.0000   YZ=              0.0000

 Normal termination of Gaussian 16 at Fri Aug 26 16:25:38 2022.
