 Gaussian 16, Revision A.03,
 Gaussian 16:  ES64L-G16RevA.03 25-Dec-2016

 ------------------
 #p CCSD(T)/cc-pVTZ
 ------------------

 -----------
 H2O_H2O_391
 -----------
 Symbolic Z-matrix:
 Charge =  0 Multiplicity = 1

                         Standard orientation:
 ---------------------------------------------------------------------
 Center     Atomic      Atomic             Coordinates (Angstroms)
 Number     Number       Type             X           Y           Z
 ---------------------------------------------------------------------
      1          8           0        0.049583   -0.972243    0.000000
      2          1           0       -0.752412   -1.539967    0.000000
      3          1           0        0.846716   -1.546772    0.000000
      4          8           0        0.049583    1.028934    0.000000
      5          1           0       -0.041084    2.007344    0.000000
      6          1           0       -0.846541    0.625860    0.000000
 ---------------------------------------------------------------------

 SCF Done:  E(RHF) =  -152.056672170     A.U. after   11 cycles
 E2 =    -0.5357911697D+00 EUMP2 =    -0.15259246333939D+03
 CCSD(T)
 CCSD(T)= -0.15261918631D+03

 The electronic state is 1-A'.
 Alpha  occ. eigenvalues --  -20.54041 -20.51581  -1.33946  -1.28481  -0.71268
 Alpha  occ. eigenvalues --   -0.68584  -0.56512  -0.50719  -0.47675  -0.45291
 Alpha virt. eigenvalues --    0.13850   0.18399   0.19837   0.24277   0.52356
 Alpha virt. eigenvalues --    0.56974   0.59520   0.63531   0.72180   0.75790
 Alpha virt. eigenvalues --    0.80118   0.82686   0.83448   0.84388   0.88185

 Mulliken charges:
               1
     1  O   -0.420153
     2  H    0.201931
     3  H    0.227171
     4  O   -0.424642
     5  H    0.173164
     6  H    0.242529
 Sum of Mulliken charges =  -0.00000

 Dipole moment (field-independent basis, Debye):
    X=             -1.4298    Y=             -1.1821    Z=              0.0000  Tot=              1.8552
 Quadrupole moment (field-independent basis, Debye-Ang):
   XX=             -9.4748   YY=             -6.0411   ZZ=            -14.6983
   XY=             -1.1448   XZ=              0.0000   YZ=              0.0000

 Normal termination of Gaussian 16 at Fri Aug 26 15:58:20 2022.
