 Gaussian 16, Revision A.03,
 Gaussian 16:  ES64L-G16RevA.03 25-Dec-2016

 ------------------
 #p CCSD(T)/cc-pVTZ
 ------------------

 ------------
 H2O_H2O_3360
 ------------
 Symbolic Z-matrix:
 Charge =  0 Multiplicity = 1

                         Standard orientation:
 ---------------------------------------------------------------------
 Center     Atomic      Atomic             Coordinates (Angstroms)
 Number     Number       Type             X           Y           Z
 ---------------------------------------------------------------------
      1          8           0        0.034782   -2.572475    0.000000
      2          1           0       -0.765450   -3.142680    0.000000
      3          1           0        0.833691   -3.144532    0.000000
      4          8           0        0.034782    2.595999    0.000000
      5          1           0        0.322530    3.535523    0.000000
      6          1           0       -0.947282    2.563497    0.000000
 ---------------------------------------------------------------------

 SCF Done:  E(RHF) =  -152.106604178     A.U. after   10 cycles
 E2 =    -0.5259788063D+00 EUMP2 =    -0.15263258298468D+03
 CCSD(T)
 CCSD(T)= -0.15265981835D+03

 The electronic state is 1-A'.
 Alpha  occ. eigenvalues --  -20.55154 -20.54949  -1.32449  -1.32242  -0.69858
 Alpha  occ. eigenvalues --   -0.69644  -0.55858  -0.55651  -0.49555  -0.49349
 Alpha virt. eigenvalues --    0.14302   0.14799   0.20449   0.20747   0.54667
 Alpha virt. eigenvalues --    0.54960   0.57555   0.57770   0.67721   0.69326
 Alpha virt. eigenvalues --    0.79323   0.79526   0.80752   0.81008   0.82731

 Mulliken charges:
               1
     1  O   -0.504160
     2  H    0.250691
     3  H    0.253478
     4  O   -0.503869
     5  H    0.249919
     6  H    0.253941
 Sum of Mulliken charges =  -0.00000

 Dipole moment (field-independent basis, Debye):
    X=             -1.1900    Y=             -0.4143    Z=              0.0000  Tot=              1.2600
 Quadrupole moment (field-independent basis, Debye-Ang):
   XX=             -8.5689   YY=              7.2218   ZZ=            -14.7106
   XY=             -2.2638   XZ=              0.0000   YZ=              0.0000

 Normal termination of Gaussian 16 at Fri Aug 26 21:41:06 2022.
