 Gaussian 16, Revision A.03,
 Gaussian 16:  ES64L-G16RevA.03 25-Dec-2016

 ------------------
 #p CCSD(T)/cc-pVTZ
 ------------------

 ------------
 H2O_H2O_2466
 ------------
 Symbolic Z-matrix:
 Charge =  0 Multiplicity = 1

                         Standard orientation:
 ---------------------------------------------------------------------
 Center     Atomic      Atomic             Coordinates (Angstroms)
 Number     Number       Type             X           Y           Z
 ---------------------------------------------------------------------
      1          8           0        0.049519   -2.075687    0.000000
      2          1           0       -0.751206   -2.645200    0.000000
      3          1           0        0.847933   -2.648436    0.000000
      4          8           0        0.049519    2.132600    0.000000
      5          1           0       -0.043331    3.110806    0.000000
      6          1           0       -0.845702    1.727528    0.000000
 ---------------------------------------------------------------------

 SCF Done:  E(RHF) =  -152.106928740     A.U. after   10 cycles
 E2 =    -0.5261215903D+00 EUMP2 =    -0.15263305033021D+03
 CCSD(T)
 CCSD(T)= -0.15266026091D+03

 The electronic state is 1-A'.
 Alpha  occ. eigenvalues --  -20.55368 -20.54561  -1.32654  -1.31846  -0.70065
 Alpha  occ. eigenvalues --   -0.69231  -0.56066  -0.55260  -0.49762  -0.48960
 Alpha virt. eigenvalues --    0.13558   0.15640   0.20180   0.21565   0.53936
 Alpha virt. eigenvalues --    0.54875   0.57403   0.58151   0.65503   0.73766
 Alpha virt. eigenvalues --    0.79062   0.79949   0.79958   0.81945   0.83312

 Mulliken charges:
               1
     1  O   -0.503474
     2  H    0.248740
     3  H    0.255541
     4  O   -0.504392
     5  H    0.246373
     6  H    0.257211
 Sum of Mulliken charges =   0.00000

 Dipole moment (field-independent basis, Debye):
    X=             -1.6789    Y=             -1.0280    Z=              0.0000  Tot=              1.9686
 Quadrupole moment (field-independent basis, Debye-Ang):
   XX=             -9.3497   YY=              2.0258   ZZ=            -14.7127
   XY=             -2.9415   XZ=              0.0000   YZ=              0.0000

 Normal termination of Gaussian 16 at Sat Aug 27 10:42:51 2022.
