 Gaussian 16, Revision A.03,
 Gaussian 16:  ES64L-G16RevA.03 25-Dec-2016

 ------------------
 #p CCSD(T)/cc-pVTZ
 ------------------

 ------------
 H2O_H2O_2959
 ------------
 Symbolic Z-matrix:
 Charge =  0 Multiplicity = 1

                         Standard orientation:
 ---------------------------------------------------------------------
 Center     Atomic      Atomic             Coordinates (Angstroms)
 Number     Number       Type             X           Y           Z
 ---------------------------------------------------------------------
      1          8           0        0.031741   -2.362100    0.000000
      2          1           0       -0.768487   -2.932311    0.000000
      3          1           0        0.830654   -2.934153    0.000000
      4          8           0        0.031741    2.381278    0.000000
      5          1           0        0.380315    3.299974    0.000000
      6          1           0       -0.950346    2.413070    0.000000
 ---------------------------------------------------------------------

 SCF Done:  E(RHF) =  -152.106290349     A.U. after   10 cycles
 E2 =    -0.5260355717D+00 EUMP2 =    -0.15263232592093D+03
 CCSD(T)
 CCSD(T)= -0.15265956553D+03

 The electronic state is 1-A'.
 Alpha  occ. eigenvalues --  -20.55028 -20.54829  -1.32321  -1.32119  -0.69731
 Alpha  occ. eigenvalues --   -0.69522  -0.55715  -0.55510  -0.49425  -0.49224
 Alpha virt. eigenvalues --    0.14231   0.15046   0.20486   0.20876   0.54658
 Alpha virt. eigenvalues --    0.55146   0.57648   0.57869   0.66762   0.70704
 Alpha virt. eigenvalues --    0.79442   0.79658   0.80840   0.81200   0.82641

 Mulliken charges:
               1
     1  O   -0.502258
     2  H    0.249533
     3  H    0.252756
     4  O   -0.501906
     5  H    0.248727
     6  H    0.253147
 Sum of Mulliken charges =  -0.00000

 Dipole moment (field-independent basis, Debye):
    X=             -1.0827    Y=             -0.3399    Z=              0.0000  Tot=              1.1348
 Quadrupole moment (field-independent basis, Debye-Ang):
   XX=             -8.4462   YY=              5.9158   ZZ=            -14.7103
   XY=             -1.7949   XZ=              0.0000   YZ=              0.0000

 Normal termination of Gaussian 16 at Fri Aug 26 17:49:19 2022.
