 Gaussian 16, Revision A.03,
 Gaussian 16:  ES64L-G16RevA.03 25-Dec-2016

 ------------------
 #p CCSD(T)/cc-pVTZ
 ------------------

 ------------
 H2O_H2O_4300
 ------------
 Symbolic Z-matrix:
 Charge =  0 Multiplicity = 1

                         Standard orientation:
 ---------------------------------------------------------------------
 Center     Atomic      Atomic             Coordinates (Angstroms)
 Number     Number       Type             X           Y           Z
 ---------------------------------------------------------------------
      1          8           0        0.000000   -0.000000    3.090496
      2          1           0        0.000000    0.799571    3.661627
      3          1           0       -0.000000   -0.799571    3.661627
      4          8           0        0.000000   -0.000000   -3.090496
      5          1           0       -0.000000   -0.799571   -3.661627
      6          1           0        0.000000    0.799571   -3.661627
 ---------------------------------------------------------------------

 SCF Done:  E(RHF) =  -152.106768142     A.U. after   10 cycles
 E2 =    -0.5259362558D+00 EUMP2 =    -0.15263270439765D+03
 CCSD(T)
 CCSD(T)= -0.15265993807D+03

 The electronic state is 1-AG.
 Alpha  occ. eigenvalues --  -20.55167 -20.55167  -1.32462  -1.32462  -0.69869
 Alpha  occ. eigenvalues --   -0.69869  -0.55880  -0.55880  -0.49569  -0.49569
 Alpha virt. eigenvalues --    0.14440   0.14475   0.20492   0.20507   0.54696
 Alpha virt. eigenvalues --    0.54705   0.57558   0.57566   0.68318   0.68402
 Alpha virt. eigenvalues --    0.79310   0.79310   0.80754   0.80755   0.82684

 Mulliken charges:
               1
     1  O   -0.505090
     2  H    0.252545
     3  H    0.252545
     4  O   -0.505090
     5  H    0.252545
     6  H    0.252545
 Sum of Mulliken charges =   0.00000

 Dipole moment (field-independent basis, Debye):
    X=             -0.0000    Y=              0.0000    Z=              0.0000  Tot=              0.0000
 Quadrupole moment (field-independent basis, Debye-Ang):
   XX=            -14.7106   YY=             -7.8038   ZZ=             12.6891
   XY=              0.0000   XZ=              0.0000   YZ=             -0.0000

 MP4DQ=-152.6418302\MP4SDQ=-152.6448907\CCSD=-152.6443022\CCSD(T)=-152.
 Normal termination of Gaussian 16 at Sat Aug 27 06:32:23 2022.
