 Gaussian 16, Revision A.03,
 Gaussian 16:  ES64L-G16RevA.03 25-Dec-2016

 ------------------
 #p CCSD(T)/cc-pVTZ
 ------------------

 -----------
 H2O_H2O_383
 -----------
 Symbolic Z-matrix:
 Charge =  0 Multiplicity = 1

                         Standard orientation:
 ---------------------------------------------------------------------
 Center     Atomic      Atomic             Coordinates (Angstroms)
 Number     Number       Type             X           Y           Z
 ---------------------------------------------------------------------
      1          8           0        0.028575   -0.994800    0.000000
      2          1           0       -0.772394   -1.563970    0.000000
      3          1           0        0.826743   -1.567892    0.000000
      4          8           0        0.028575    1.009964    0.000000
      5          1           0        0.437652    1.903363    0.000000
      6          1           0       -0.949204    1.107191    0.000000
 ---------------------------------------------------------------------

 SCF Done:  E(RHF) =  -152.054047108     A.U. after   11 cycles
 E2 =    -0.5351280090D+00 EUMP2 =    -0.15258917511722D+03
 CCSD(T)
 CCSD(T)= -0.15261598427D+03

 The electronic state is 1-A'.
 Alpha  occ. eigenvalues --  -20.52380 -20.51893  -1.32327  -1.28604  -0.69125
 Alpha  occ. eigenvalues --   -0.67038  -0.60018  -0.49479  -0.45125  -0.44599
 Alpha virt. eigenvalues --    0.14480   0.18203   0.20319   0.23171   0.52208
 Alpha virt. eigenvalues --    0.58092   0.58708   0.64688   0.70319   0.77405
 Alpha virt. eigenvalues --    0.78703   0.82406   0.83887   0.86195   0.87900

 Mulliken charges:
               1
     1  O   -0.438659
     2  H    0.209579
     3  H    0.226617
     4  O   -0.410681
     5  H    0.180919
     6  H    0.232226
 Sum of Mulliken charges =  -0.00000

 Dipole moment (field-independent basis, Debye):
    X=             -0.8308    Y=             -0.3163    Z=              0.0000  Tot=              0.8890
 Quadrupole moment (field-independent basis, Debye-Ang):
   XX=             -8.5970   YY=             -5.7206   ZZ=            -14.7374
   XY=             -0.3546   XZ=              0.0000   YZ=              0.0000

 Normal termination of Gaussian 16 at Fri Aug 26 15:53:40 2022.
