 Gaussian 16, Revision A.03,
 Gaussian 16:  ES64L-G16RevA.03 25-Dec-2016

 ------------------
 #p CCSD(T)/cc-pVTZ
 ------------------

 ------------
 H2O_H2O_1644
 ------------
 Symbolic Z-matrix:
 Charge =  0 Multiplicity = 1

                         Standard orientation:
 ---------------------------------------------------------------------
 Center     Atomic      Atomic             Coordinates (Angstroms)
 Number     Number       Type             X           Y           Z
 ---------------------------------------------------------------------
      1          8           0        0.054190   -1.625900    0.000000
      2          1           0       -0.746975   -2.194794    0.000000
      3          1           0        0.852161   -2.199266    0.000000
      4          8           0        0.054190    1.703107    0.000000
      5          1           0       -0.226986    2.644619    0.000000
      6          1           0       -0.745247    1.131787    0.000000
 ---------------------------------------------------------------------

 SCF Done:  E(RHF) =  -152.107567515     A.U. after   10 cycles
 E2 =    -0.5267766414D+00 EUMP2 =    -0.15263434415637D+03
 CCSD(T)
 CCSD(T)= -0.15266149829D+03

 The electronic state is 1-A'.
 Alpha  occ. eigenvalues --  -20.55742 -20.53852  -1.33020  -1.31128  -0.70434
 Alpha  occ. eigenvalues --   -0.68511  -0.56425  -0.54542  -0.50136  -0.48252
 Alpha virt. eigenvalues --    0.13342   0.16667   0.19899   0.23447   0.53958
 Alpha virt. eigenvalues --    0.54863   0.57063   0.58329   0.65910   0.75999
 Alpha virt. eigenvalues --    0.77250   0.77496   0.78936   0.81339   0.84680

 Mulliken charges:
               1
     1  O   -0.492740
     2  H    0.243126
     3  H    0.255460
     4  O   -0.503351
     5  H    0.238531
     6  H    0.258974
 Sum of Mulliken charges =  -0.00000

 Dipole moment (field-independent basis, Debye):
    X=             -1.7954    Y=             -1.4660    Z=              0.0000  Tot=              2.3179
 Quadrupole moment (field-independent basis, Debye-Ang):
   XX=             -9.6583   YY=             -1.6012   ZZ=            -14.7188
   XY=             -2.7703   XZ=              0.0000   YZ=              0.0000

 Normal termination of Gaussian 16 at Sat Aug 27 05:57:37 2022.
