 Gaussian 16, Revision A.03,
 Gaussian 16:  ES64L-G16RevA.03 25-Dec-2016

 ------------------
 #p CCSD(T)/cc-pVTZ
 ------------------

 ------------
 H2O_H2O_2416
 ------------
 Symbolic Z-matrix:
 Charge =  0 Multiplicity = 1

                         Standard orientation:
 ---------------------------------------------------------------------
 Center     Atomic      Atomic             Coordinates (Angstroms)
 Number     Number       Type             X           Y           Z
 ---------------------------------------------------------------------
      1          8           0        0.049520   -2.049097    0.000000
      2          1           0       -0.751220   -2.618589    0.000000
      3          1           0        0.847919   -2.621867    0.000000
      4          8           0        0.049520    2.106008    0.000000
      5          1           0       -0.043304    3.084215    0.000000
      6          1           0       -0.845712    1.700958    0.000000
 ---------------------------------------------------------------------

 SCF Done:  E(RHF) =  -152.106917780     A.U. after   10 cycles
 E2 =    -0.5261418767D+00 EUMP2 =    -0.15263305965643D+03
 CCSD(T)
 CCSD(T)= -0.15266026861D+03

 The electronic state is 1-A'.
 Alpha  occ. eigenvalues --  -20.55365 -20.54534  -1.32650  -1.31819  -0.70062
 Alpha  occ. eigenvalues --   -0.69203  -0.56061  -0.55230  -0.49759  -0.48933
 Alpha virt. eigenvalues --    0.13541   0.15690   0.20175   0.21624   0.53891
 Alpha virt. eigenvalues --    0.54855   0.57406   0.58189   0.65364   0.74075
 Alpha virt. eigenvalues --    0.79048   0.79875   0.80001   0.81901   0.83460

 Mulliken charges:
               1
     1  O   -0.503027
     2  H    0.248459
     3  H    0.255475
     4  O   -0.504164
     5  H    0.246050
     6  H    0.257208
 Sum of Mulliken charges =  -0.00000

 Dipole moment (field-independent basis, Debye):
    X=             -1.6775    Y=             -1.0301    Z=              0.0000  Tot=              1.9685
 Quadrupole moment (field-independent basis, Debye-Ang):
   XX=             -9.3502   YY=              1.8632   ZZ=            -14.7128
   XY=             -2.8973   XZ=              0.0000   YZ=              0.0000

 Normal termination of Gaussian 16 at Sat Aug 27 10:26:18 2022.
