 Gaussian 16, Revision A.03,
 Gaussian 16:  ES64L-G16RevA.03 25-Dec-2016

 ------------------
 #p CCSD(T)/cc-pVTZ
 ------------------

 ------------
 H2O_H2O_1159
 ------------
 Symbolic Z-matrix:
 Charge =  0 Multiplicity = 1

                         Standard orientation:
 ---------------------------------------------------------------------
 Center     Atomic      Atomic             Coordinates (Angstroms)
 Number     Number       Type             X           Y           Z
 ---------------------------------------------------------------------
      1          8           0        0.031749   -1.404821    0.000000
      2          1           0       -0.768924   -1.974407    0.000000
      3          1           0        0.830215   -1.977496    0.000000
      4          8           0        0.031749    1.423949    0.000000
      5          1           0        0.381038    2.342373    0.000000
      6          1           0       -0.950313    1.456506    0.000000
 ---------------------------------------------------------------------

 SCF Done:  E(RHF) =  -152.100977896     A.U. after   11 cycles
 E2 =    -0.5278278818D+00 EUMP2 =    -0.15262880577773D+03
 CCSD(T)
 CCSD(T)= -0.15265607624D+03

 The electronic state is 1-A'.
 Alpha  occ. eigenvalues --  -20.54103 -20.53583  -1.31507  -1.30824  -0.68918
 Alpha  occ. eigenvalues --   -0.68282  -0.55953  -0.52678  -0.48695  -0.47795
 Alpha virt. eigenvalues --    0.14193   0.16932   0.20421   0.22367   0.52525
 Alpha virt. eigenvalues --    0.58254   0.58547   0.59741   0.68410   0.76504
 Alpha virt. eigenvalues --    0.77001   0.77720   0.80815   0.83083   0.85887

 Mulliken charges:
               1
     1  O   -0.474233
     2  H    0.231635
     3  H    0.242958
     4  O   -0.467096
     5  H    0.226159
     6  H    0.240576
 Sum of Mulliken charges =  -0.00000

 Dipole moment (field-independent basis, Debye):
    X=             -1.0241    Y=             -0.3654    Z=              0.0000  Tot=              1.0873
 Quadrupole moment (field-independent basis, Debye-Ang):
   XX=             -8.5313   YY=             -1.5229   ZZ=            -14.7153
   XY=             -0.7883   XZ=              0.0000   YZ=              0.0000

 Normal termination of Gaussian 16 at Sat Aug 27 02:36:42 2022.
