 Gaussian 16, Revision A.03,
 Gaussian 16:  ES64L-G16RevA.03 25-Dec-2016

 ------------------
 #p CCSD(T)/cc-pVTZ
 ------------------

 ------------
 H2O_H2O_1989
 ------------
 Symbolic Z-matrix:
 Charge =  0 Multiplicity = 1

                         Standard orientation:
 ---------------------------------------------------------------------
 Center     Atomic      Atomic             Coordinates (Angstroms)
 Number     Number       Type             X           Y           Z
 ---------------------------------------------------------------------
      1          8           0        0.045358   -1.829807    0.000000
      2          1           0       -0.755414   -2.399254    0.000000
      3          1           0        0.843724   -2.402621    0.000000
      4          8           0        0.045358    1.874305    0.000000
      5          1           0        0.081065    2.856258    0.000000
      6          1           0       -0.895102    1.589626    0.000000
 ---------------------------------------------------------------------

 SCF Done:  E(RHF) =  -152.106237576     A.U. after   10 cycles
 E2 =    -0.5264184743D+00 EUMP2 =    -0.15263265604982D+03
 CCSD(T)
 CCSD(T)= -0.15265986257D+03

 The electronic state is 1-A'.
 Alpha  occ. eigenvalues --  -20.55129 -20.54305  -1.32406  -1.31577  -0.69823
 Alpha  occ. eigenvalues --   -0.68962  -0.55814  -0.54902  -0.49513  -0.48688
 Alpha virt. eigenvalues --    0.13646   0.16078   0.20236   0.21922   0.53417
 Alpha virt. eigenvalues --    0.55030   0.57589   0.58458   0.64030   0.76185
 Alpha virt. eigenvalues --    0.78867   0.79001   0.80613   0.80711   0.84495

 Mulliken charges:
               1
     1  O   -0.495756
     2  H    0.244338
     3  H    0.252915
     4  O   -0.497794
     5  H    0.241834
     6  H    0.254463
 Sum of Mulliken charges =   0.00000

 Dipole moment (field-independent basis, Debye):
    X=             -1.5217    Y=             -0.8200    Z=              0.0000  Tot=              1.7286
 Quadrupole moment (field-independent basis, Debye-Ang):
   XX=             -9.1137   YY=              1.0234   ZZ=            -14.7127
   XY=             -2.1342   XZ=              0.0000   YZ=              0.0000

 Normal termination of Gaussian 16 at Sat Aug 27 07:57:16 2022.
