 Gaussian 16, Revision A.03,
 Gaussian 16:  ES64L-G16RevA.03 25-Dec-2016

 ------------------
 #p CCSD(T)/cc-pVTZ
 ------------------

 ------------
 H2O_H2O_3285
 ------------
 Symbolic Z-matrix:
 Charge =  0 Multiplicity = 1

                         Standard orientation:
 ---------------------------------------------------------------------
 Center     Atomic      Atomic             Coordinates (Angstroms)
 Number     Number       Type             X           Y           Z
 ---------------------------------------------------------------------
      1          8           0        0.034782   -2.532587    0.000000
      2          1           0       -0.765460   -3.102778    0.000000
      3          1           0        0.833681   -3.104660    0.000000
      4          8           0        0.034782    2.556110    0.000000
      5          1           0        0.322548    3.495630    0.000000
      6          1           0       -0.947283    2.523626    0.000000
 ---------------------------------------------------------------------

 SCF Done:  E(RHF) =  -152.106564641     A.U. after   10 cycles
 E2 =    -0.5259864764D+00 EUMP2 =    -0.15263255111722D+03
 CCSD(T)
 CCSD(T)= -0.15265978701D+03

 The electronic state is 1-A'.
 Alpha  occ. eigenvalues --  -20.55139 -20.54928  -1.32434  -1.32220  -0.69843
 Alpha  occ. eigenvalues --   -0.69622  -0.55841  -0.55628  -0.49539  -0.49327
 Alpha virt. eigenvalues --    0.14286   0.14841   0.20451   0.20772   0.54668
 Alpha virt. eigenvalues --    0.54988   0.57565   0.57788   0.67596   0.69515
 Alpha virt. eigenvalues --    0.79337   0.79548   0.80760   0.81040   0.82739

 Mulliken charges:
               1
     1  O   -0.503925
     2  H    0.250513
     3  H    0.253425
     4  O   -0.503615
     5  H    0.249712
     6  H    0.253891
 Sum of Mulliken charges =  -0.00000

 Dipole moment (field-independent basis, Debye):
    X=             -1.1894    Y=             -0.4147    Z=              0.0000  Tot=              1.2596
 Quadrupole moment (field-independent basis, Debye-Ang):
   XX=             -8.5694   YY=              6.9327   ZZ=            -14.7106
   XY=             -2.2169   XZ=              0.0000   YZ=              0.0000

 Normal termination of Gaussian 16 at Fri Aug 26 21:03:30 2022.
