 Gaussian 16, Revision A.03,
 Gaussian 16:  ES64L-G16RevA.03 25-Dec-2016

 ------------------
 #p CCSD(T)/cc-pVTZ
 ------------------

 ------------
 H2O_H2O_2143
 ------------
 Symbolic Z-matrix:
 Charge =  0 Multiplicity = 1

                         Standard orientation:
 ---------------------------------------------------------------------
 Center     Atomic      Atomic             Coordinates (Angstroms)
 Number     Number       Type             X           Y           Z
 ---------------------------------------------------------------------
      1          8           0        0.052849   -1.895589    0.000000
      2          1           0       -0.748064   -2.464838    0.000000
      3          1           0        0.851074   -2.468600    0.000000
      4          8           0        0.052849    1.965854    0.000000
      5          1           0       -0.166573    2.923644    0.000000
      6          1           0       -0.782013    1.447672    0.000000
 ---------------------------------------------------------------------

 SCF Done:  E(RHF) =  -152.107359528     A.U. after   10 cycles
 E2 =    -0.5262734399D+00 EUMP2 =    -0.15263363296802D+03
 CCSD(T)
 CCSD(T)= -0.15266081840D+03

 The electronic state is 1-A'.
 Alpha  occ. eigenvalues --  -20.55562 -20.54326  -1.32839  -1.31609  -0.70251
 Alpha  occ. eigenvalues --   -0.68983  -0.56258  -0.55032  -0.49951  -0.48729
 Alpha virt. eigenvalues --    0.13338   0.16042   0.20045   0.22292   0.54026
 Alpha virt. eigenvalues --    0.54431   0.57251   0.58491   0.65091   0.75173
 Alpha virt. eigenvalues --    0.78703   0.79116   0.80322   0.80927   0.84412

 Mulliken charges:
               1
     1  O   -0.501156
     2  H    0.247331
     3  H    0.256072
     4  O   -0.505492
     5  H    0.244235
     6  H    0.259010
 Sum of Mulliken charges =  -0.00000

 Dipole moment (field-independent basis, Debye):
    X=             -1.7800    Y=             -1.2911    Z=              0.0000  Tot=              2.1990
 Quadrupole moment (field-independent basis, Debye-Ang):
   XX=             -9.5633   YY=              0.2672   ZZ=            -14.7148
   XY=             -3.0537   XZ=              0.0000   YZ=              0.0000

 Normal termination of Gaussian 16 at Sat Aug 27 08:49:42 2022.
