 Gaussian 16, Revision A.03,
 Gaussian 16:  ES64L-G16RevA.03 25-Dec-2016

 ------------------
 #p CCSD(T)/cc-pVTZ
 ------------------

 ------------
 H2O_H2O_1185
 ------------
 Symbolic Z-matrix:
 Charge =  0 Multiplicity = 1

                         Standard orientation:
 ---------------------------------------------------------------------
 Center     Atomic      Atomic             Coordinates (Angstroms)
 Number     Number       Type             X           Y           Z
 ---------------------------------------------------------------------
      1          8           0        0.034793   -1.415764    0.000000
      2          1           0       -0.765974   -1.985219    0.000000
      3          1           0        0.833165   -1.988572    0.000000
      4          8           0        0.034793    1.439223    0.000000
      5          1           0        0.323423    2.378478    0.000000
      6          1           0       -0.947301    1.407644    0.000000
 ---------------------------------------------------------------------

 SCF Done:  E(RHF) =  -152.101627038     A.U. after   11 cycles
 E2 =    -0.5277516239D+00 EUMP2 =    -0.15262937866143D+03
 CCSD(T)
 CCSD(T)= -0.15265663818D+03

 The electronic state is 1-A'.
 Alpha  occ. eigenvalues --  -20.54245 -20.53606  -1.31627  -1.30851  -0.69044
 Alpha  occ. eigenvalues --   -0.68300  -0.55919  -0.52902  -0.48798  -0.47847
 Alpha virt. eigenvalues --    0.14132   0.16906   0.20379   0.22436   0.52829
 Alpha virt. eigenvalues --    0.58161   0.58406   0.59364   0.68026   0.76424
 Alpha virt. eigenvalues --    0.77007   0.77531   0.80824   0.82974   0.85784

 Mulliken charges:
               1
     1  O   -0.475622
     2  H    0.232245
     3  H    0.244213
     4  O   -0.469144
     5  H    0.226206
     6  H    0.242102
 Sum of Mulliken charges =  -0.00000

 Dipole moment (field-independent basis, Debye):
    X=             -1.1239    Y=             -0.4483    Z=              0.0000  Tot=              1.2100
 Quadrupole moment (field-independent basis, Debye-Ang):
   XX=             -8.6502   YY=             -1.4936   ZZ=            -14.7154
   XY=             -0.9245   XZ=              0.0000   YZ=              0.0000

 Normal termination of Gaussian 16 at Sat Aug 27 02:49:01 2022.
