 Gaussian 16, Revision A.03,
 Gaussian 16:  ES64L-G16RevA.03 25-Dec-2016

 ------------------
 #p CCSD(T)/cc-pVTZ
 ------------------

 ------------
 H2O_H2O_4333
 ------------
 Symbolic Z-matrix:
 Charge =  0 Multiplicity = 1

                         Standard orientation:
 ---------------------------------------------------------------------
 Center     Atomic      Atomic             Coordinates (Angstroms)
 Number     Number       Type             X           Y           Z
 ---------------------------------------------------------------------
      1          8           0        0.028563   -3.095504    0.000000
      2          1           0       -0.771461   -3.666003    0.000000
      3          1           0        0.827681   -3.667270    0.000000
      4          8           0        0.028563    3.110763    0.000000
      5          1           0        0.436155    4.004841    0.000000
      6          1           0       -0.949377    3.206366    0.000000
 ---------------------------------------------------------------------

 SCF Done:  E(RHF) =  -152.106900961     A.U. after   10 cycles
 E2 =    -0.5259250009D+00 EUMP2 =    -0.15263282596219D+03
 CCSD(T)
 CCSD(T)= -0.15266005680D+03

 The electronic state is 1-A'.
 Alpha  occ. eigenvalues --  -20.55256 -20.55164  -1.32552  -1.32460  -0.69959
 Alpha  occ. eigenvalues --   -0.69865  -0.55976  -0.55884  -0.49660  -0.49568
 Alpha virt. eigenvalues --    0.14373   0.14477   0.20426   0.20525   0.54608
 Alpha virt. eigenvalues --    0.54709   0.57482   0.57575   0.68234   0.68366
 Alpha virt. eigenvalues --    0.79219   0.79310   0.80661   0.80762   0.82589

 Mulliken charges:
               1
     1  O   -0.505882
     2  H    0.252259
     3  H    0.253622
     4  O   -0.505793
     5  H    0.251897
     6  H    0.253896
 Sum of Mulliken charges =  -0.00000

 Dipole moment (field-independent basis, Debye):
    X=             -0.9811    Y=             -0.2665    Z=              0.0000  Tot=              1.0166
 Quadrupole moment (field-independent basis, Debye-Ang):
   XX=             -8.3167   YY=             11.6258   ZZ=            -14.7109
   XY=             -2.2879   XZ=              0.0000   YZ=              0.0000

 Normal termination of Gaussian 16 at Sat Aug 27 06:43:30 2022.
