 Gaussian 16, Revision A.03,
 Gaussian 16:  ES64L-G16RevA.03 25-Dec-2016

 ------------------
 #p CCSD(T)/cc-pVTZ
 ------------------

 ------------
 H2O_H2O_2530
 ------------
 Symbolic Z-matrix:
 Charge =  0 Multiplicity = 1

                         Standard orientation:
 ---------------------------------------------------------------------
 Center     Atomic      Atomic             Coordinates (Angstroms)
 Number     Number       Type             X           Y           Z
 ---------------------------------------------------------------------
      1          8           0        0.018361   -2.143208    0.000000
      2          1           0       -0.781631   -2.713751    0.000000
      3          1           0        0.817511   -2.714929    0.000000
      4          8           0        0.018361    2.149243    0.000000
      5          1           0        0.592502    2.946656    0.000000
      6          1           0       -0.922152    2.433744    0.000000
 ---------------------------------------------------------------------

 SCF Done:  E(RHF) =  -152.105629379     A.U. after   10 cycles
 E2 =    -0.5261603359D+00 EUMP2 =    -0.15263178971522D+03
 CCSD(T)
 CCSD(T)= -0.15265903664D+03

 The electronic state is 1-A'.
 Alpha  occ. eigenvalues --  -20.54756 -20.54679  -1.32045  -1.31966  -0.69459
 Alpha  occ. eigenvalues --   -0.69377  -0.55456  -0.55260  -0.49145  -0.49065
 Alpha virt. eigenvalues --    0.14225   0.15361   0.20591   0.20998   0.54565
 Alpha virt. eigenvalues --    0.55610   0.57820   0.58018   0.64435   0.73111
 Alpha virt. eigenvalues --    0.79584   0.79946   0.81093   0.81199   0.82111

 Mulliken charges:
               1
     1  O   -0.497970
     2  H    0.247789
     3  H    0.250216
     4  O   -0.497779
     5  H    0.247366
     6  H    0.250378
 Sum of Mulliken charges =   0.00000

 Dipole moment (field-independent basis, Debye):
    X=             -0.6232    Y=             -0.1081    Z=              0.0000  Tot=              0.6325
 Quadrupole moment (field-independent basis, Debye-Ang):
   XX=             -8.0368   YY=              4.8102   ZZ=            -14.7097
   XY=             -0.8235   XZ=              0.0000   YZ=              0.0000

 Normal termination of Gaussian 16 at Fri Aug 26 13:24:25 2022.
