 Gaussian 16, Revision A.03,
 Gaussian 16:  ES64L-G16RevA.03 25-Dec-2016

 ------------------
 #p CCSD(T)/cc-pVTZ
 ------------------

 ------------
 H2O_H2O_4753
 ------------
 Symbolic Z-matrix:
 Charge =  0 Multiplicity = 1

                         Standard orientation:
 ---------------------------------------------------------------------
 Center     Atomic      Atomic             Coordinates (Angstroms)
 Number     Number       Type             X           Y           Z
 ---------------------------------------------------------------------
      1          8           0        0.011143   -3.328633    0.000000
      2          1           0       -0.788593   -3.899535    0.000000
      3          1           0        0.810549   -3.899996    0.000000
      4          8           0        0.011143    3.330822    0.000000
      5          1           0        0.684134    4.046774    0.000000
      6          1           0       -0.884371    3.735249    0.000000
 ---------------------------------------------------------------------

 SCF Done:  E(RHF) =  -152.106926005     A.U. after   10 cycles
 E2 =    -0.5259174143D+00 EUMP2 =    -0.15263284341924D+03
 CCSD(T)
 CCSD(T)= -0.15266007404D+03

 The electronic state is 1-A'.
 Alpha  occ. eigenvalues --  -20.55244 -20.55233  -1.32541  -1.32529  -0.69947
 Alpha  occ. eigenvalues --   -0.69936  -0.55966  -0.55954  -0.49648  -0.49637
 Alpha virt. eigenvalues --    0.14391   0.14407   0.20442   0.20455   0.54621
 Alpha virt. eigenvalues --    0.54633   0.57496   0.57508   0.68256   0.68278
 Alpha virt. eigenvalues --    0.79231   0.79242   0.80672   0.80685   0.82599

 Mulliken charges:
               1
     1  O   -0.506019
     2  H    0.252792
     3  H    0.253227
     4  O   -0.506008
     5  H    0.252694
     6  H    0.253314
 Sum of Mulliken charges =  -0.00000

 Dipole moment (field-independent basis, Debye):
    X=             -0.3831    Y=             -0.0381    Z=              0.0000  Tot=              0.3850
 Quadrupole moment (field-independent basis, Debye-Ang):
   XX=             -7.8795   YY=             14.4227   ZZ=            -14.7108
   XY=             -0.9327   XZ=              0.0000   YZ=              0.0000

 Normal termination of Gaussian 16 at Sat Aug 27 09:09:04 2022.
