 Gaussian 16, Revision A.03,
 Gaussian 16:  ES64L-G16RevA.03 25-Dec-2016

 ------------------
 #p CCSD(T)/cc-pVTZ
 ------------------

 ------------
 H2O_H2O_3738
 ------------
 Symbolic Z-matrix:
 Charge =  0 Multiplicity = 1

                         Standard orientation:
 ---------------------------------------------------------------------
 Center     Atomic      Atomic             Coordinates (Angstroms)
 Number     Number       Type             X           Y           Z
 ---------------------------------------------------------------------
      1          8           0        0.042966   -2.763618    0.000000
      2          1           0       -0.757363   -3.333688    0.000000
      3          1           0        0.841778   -3.335812    0.000000
      4          8           0        0.042966    2.802416    0.000000
      5          1           0        0.142058    3.780008    0.000000
      6          1           0       -0.913926    2.579111    0.000000
 ---------------------------------------------------------------------

 SCF Done:  E(RHF) =  -152.106951298     A.U. after   10 cycles
 E2 =    -0.5259350598D+00 EUMP2 =    -0.15263288635768D+03
 CCSD(T)
 CCSD(T)= -0.15266011519D+03

 The electronic state is 1-A'.
 Alpha  occ. eigenvalues --  -20.55325 -20.55033  -1.32622  -1.32328  -0.70030
 Alpha  occ. eigenvalues --   -0.69728  -0.56048  -0.55754  -0.49730  -0.49437
 Alpha virt. eigenvalues --    0.14244   0.14664   0.20348   0.20692   0.54526
 Alpha virt. eigenvalues --    0.54856   0.57414   0.57709   0.67960   0.68707
 Alpha virt. eigenvalues --    0.79149   0.79437   0.80586   0.80894   0.82554

 Mulliken charges:
               1
     1  O   -0.506208
     2  H    0.251711
     3  H    0.254502
     4  O   -0.505916
     5  H    0.250764
     6  H    0.255148
 Sum of Mulliken charges =   0.00000

 Dipole moment (field-independent basis, Debye):
    X=             -1.4730    Y=             -0.6810    Z=              0.0000  Tot=              1.6228
 Quadrupole moment (field-independent basis, Debye-Ang):
   XX=             -8.9659   YY=              7.5523   ZZ=            -14.7112
   XY=             -3.2926   XZ=              0.0000   YZ=              0.0000

 Normal termination of Gaussian 16 at Sat Aug 27 02:53:03 2022.
