 Gaussian 16, Revision A.03,
 Gaussian 16:  ES64L-G16RevA.03 25-Dec-2016

 ------------------
 #p CCSD(T)/cc-pVTZ
 ------------------

 -----------
 H2O_H2O_629
 -----------
 Symbolic Z-matrix:
 Charge =  0 Multiplicity = 1

                         Standard orientation:
 ---------------------------------------------------------------------
 Center     Atomic      Atomic             Coordinates (Angstroms)
 Number     Number       Type             X           Y           Z
 ---------------------------------------------------------------------
      1          8           0        0.014784   -1.133900    0.000000
      2          1           0       -0.785426   -1.704136    0.000000
      3          1           0        0.813715   -1.705928    0.000000
      4          8           0        0.014784    1.137759    0.000000
      5          1           0        0.640141    1.895675    0.000000
      6          1           0       -0.904976    1.483517    0.000000
 ---------------------------------------------------------------------

 SCF Done:  E(RHF) =  -152.081237381     A.U. after   11 cycles
 E2 =    -0.5310484806D+00 EUMP2 =    -0.15261228586168D+03
 CCSD(T)
 CCSD(T)= -0.15263947859D+03

 The electronic state is 1-A'.
 Alpha  occ. eigenvalues --  -20.52668 -20.52549  -1.31210  -1.29531  -0.68319
 Alpha  occ. eigenvalues --   -0.67242  -0.58309  -0.48524  -0.47879  -0.46161
 Alpha virt. eigenvalues --    0.14545   0.17849   0.20543   0.22627   0.50638
 Alpha virt. eigenvalues --    0.58924   0.59004   0.64347   0.71557   0.76855
 Alpha virt. eigenvalues --    0.77622   0.81160   0.84222   0.86590   0.86950

 Mulliken charges:
               1
     1  O   -0.452469
     2  H    0.221870
     3  H    0.229578
     4  O   -0.445364
     5  H    0.215053
     6  H    0.231332
 Sum of Mulliken charges =  -0.00000

 Dipole moment (field-independent basis, Debye):
    X=             -0.4499    Y=             -0.0767    Z=              0.0000  Tot=              0.4564
 Quadrupole moment (field-independent basis, Debye-Ang):
   XX=             -8.1721   YY=             -4.0883   ZZ=            -14.7366
   XY=             -0.1805   XZ=              0.0000   YZ=              0.0000

 Normal termination of Gaussian 16 at Fri Aug 26 18:27:28 2022.
