 Gaussian 16, Revision A.03,
 Gaussian 16:  ES64L-G16RevA.03 25-Dec-2016

 ------------------
 #p CCSD(T)/cc-pVTZ
 ------------------

 ------------
 H2O_H2O_1250
 ------------
 Symbolic Z-matrix:
 Charge =  0 Multiplicity = 1

                         Standard orientation:
 ---------------------------------------------------------------------
 Center     Atomic      Atomic             Coordinates (Angstroms)
 Number     Number       Type             X           Y           Z
 ---------------------------------------------------------------------
      1          8           0        0.000000   -0.000000    1.468395
      2          1           0        0.000000    0.799571    2.039527
      3          1           0       -0.000000   -0.799571    2.039527
      4          8           0        0.000000   -0.000000   -1.468395
      5          1           0       -0.000000   -0.799571   -2.039527
      6          1           0        0.000000    0.799571   -2.039527
 ---------------------------------------------------------------------

 SCF Done:  E(RHF) =  -152.100568455     A.U. after   10 cycles
 E2 =    -0.5275438066D+00 EUMP2 =    -0.15262811226208D+03
 CCSD(T)
 CCSD(T)= -0.15265541934D+03

 The electronic state is 1-AG.
 Alpha  occ. eigenvalues --  -20.53741 -20.53741  -1.31199  -1.30927  -0.68601
 Alpha  occ. eigenvalues --   -0.68400  -0.55726  -0.52636  -0.48411  -0.47859
 Alpha virt. eigenvalues --    0.14420   0.16819   0.20569   0.21906   0.51384
 Alpha virt. eigenvalues --    0.58375   0.58700   0.60475   0.67275   0.76181
 Alpha virt. eigenvalues --    0.77573   0.77886   0.79203   0.82926   0.86188

 Mulliken charges:
               1
     1  O   -0.470251
     2  H    0.235125
     3  H    0.235125
     4  O   -0.470251
     5  H    0.235125
     6  H    0.235125
 Sum of Mulliken charges =  -0.00000

 Dipole moment (field-independent basis, Debye):
    X=             -0.0000    Y=              0.0000    Z=             -0.0000  Tot=              0.0000
 Quadrupole moment (field-independent basis, Debye-Ang):
   XX=            -14.7112   YY=             -7.9074   ZZ=             -0.7303
   XY=              0.0000   XZ=             -0.0000   YZ=             -0.0000

 2\MP4DQ=-152.6369997\MP4SDQ=-152.640159\CCSD=-152.6395338\CCSD(T)=-152
 Normal termination of Gaussian 16 at Sat Aug 27 03:22:00 2022.
