 Gaussian 16, Revision A.03,
 Gaussian 16:  ES64L-G16RevA.03 25-Dec-2016

 ------------------
 #p CCSD(T)/cc-pVTZ
 ------------------

 -----------
 H2O_H2O_440
 -----------
 Symbolic Z-matrix:
 Charge =  0 Multiplicity = 1

                         Standard orientation:
 ---------------------------------------------------------------------
 Center     Atomic      Atomic             Coordinates (Angstroms)
 Number     Number       Type             X           Y           Z
 ---------------------------------------------------------------------
      1          8           0        0.047589   -1.002259    0.000000
      2          1           0       -0.754249   -1.570205    0.000000
      3          1           0        0.844881   -1.576568    0.000000
      4          8           0        0.047589    1.052646    0.000000
      5          1           0        0.020835    2.034884    0.000000
      6          1           0       -0.872884    0.708790    0.000000
 ---------------------------------------------------------------------

 SCF Done:  E(RHF) =  -152.065568711     A.U. after   11 cycles
 E2 =    -0.5344551189D+00 EUMP2 =    -0.15260002383022D+03
 CCSD(T)
 CCSD(T)= -0.15262688001D+03

 The electronic state is 1-A'.
 Alpha  occ. eigenvalues --  -20.53897 -20.51860  -1.33330  -1.28787  -0.70593
 Alpha  occ. eigenvalues --   -0.68225  -0.57029  -0.50270  -0.48025  -0.45570
 Alpha virt. eigenvalues --    0.13949   0.18211   0.19948   0.24024   0.52742
 Alpha virt. eigenvalues --    0.57256   0.59018   0.63069   0.71899   0.75764
 Alpha virt. eigenvalues --    0.79927   0.82804   0.83012   0.84738   0.88128

 Mulliken charges:
               1
     1  O   -0.433142
     2  H    0.208070
     3  H    0.229989
     4  O   -0.425137
     5  H    0.178557
     6  H    0.241663
 Sum of Mulliken charges =  -0.00000

 Dipole moment (field-independent basis, Debye):
    X=             -1.3885    Y=             -1.0334    Z=              0.0000  Tot=              1.7308
 Quadrupole moment (field-independent basis, Debye-Ang):
   XX=             -9.3658   YY=             -5.6445   ZZ=            -14.7106
   XY=             -1.0560   XZ=              0.0000   YZ=              0.0000

 Normal termination of Gaussian 16 at Fri Aug 26 16:28:50 2022.
