 Gaussian 16, Revision A.03,
 Gaussian 16:  ES64L-G16RevA.03 25-Dec-2016

 ------------------
 #p CCSD(T)/cc-pVTZ
 ------------------

 ------------
 H2O_H2O_3229
 ------------
 Symbolic Z-matrix:
 Charge =  0 Multiplicity = 1

                         Standard orientation:
 ---------------------------------------------------------------------
 Center     Atomic      Atomic             Coordinates (Angstroms)
 Number     Number       Type             X           Y           Z
 ---------------------------------------------------------------------
      1          8           0        0.014783   -2.516666    0.000000
      2          1           0       -0.785076   -3.087394    0.000000
      3          1           0        0.814065   -3.088202    0.000000
      4          8           0        0.014783    2.520543    0.000000
      5          1           0        0.639673    3.278842    0.000000
      6          1           0       -0.905190    2.865734    0.000000
 ---------------------------------------------------------------------

 SCF Done:  E(RHF) =  -152.106238617     A.U. after   10 cycles
 E2 =    -0.5260140508D+00 EUMP2 =    -0.15263225266797D+03
 CCSD(T)
 CCSD(T)= -0.15265949565D+03

 The electronic state is 1-A'.
 Alpha  occ. eigenvalues --  -20.54963 -20.54928  -1.32256  -1.32221  -0.69666
 Alpha  occ. eigenvalues --   -0.69629  -0.55651  -0.55608  -0.49360  -0.49324
 Alpha virt. eigenvalues --    0.14431   0.14831   0.20577   0.20721   0.54824
 Alpha virt. eigenvalues --    0.55025   0.57705   0.57779   0.67590   0.69713
 Alpha virt. eigenvalues --    0.79509   0.79558   0.80939   0.81044   0.82725

 Mulliken charges:
               1
     1  O   -0.501991
     2  H    0.250363
     3  H    0.251629
     4  O   -0.501920
     5  H    0.250128
     6  H    0.251791
 Sum of Mulliken charges =  -0.00000

 Dipole moment (field-independent basis, Debye):
    X=             -0.5053    Y=             -0.0683    Z=              0.0000  Tot=              0.5099
 Quadrupole moment (field-independent basis, Debye-Ang):
   XX=             -7.9505   YY=              7.8768   ZZ=            -14.7100
   XY=             -0.8380   XZ=              0.0000   YZ=              0.0000

 Normal termination of Gaussian 16 at Fri Aug 26 20:33:03 2022.
