 Gaussian 16, Revision A.03,
 Gaussian 16:  ES64L-G16RevA.03 25-Dec-2016

 ------------------
 #p CCSD(T)/cc-pVTZ
 ------------------

 ------------
 H2O_H2O_4503
 ------------
 Symbolic Z-matrix:
 Charge =  0 Multiplicity = 1

                         Standard orientation:
 ---------------------------------------------------------------------
 Center     Atomic      Atomic             Coordinates (Angstroms)
 Number     Number       Type             X           Y           Z
 ---------------------------------------------------------------------
      1          8           0        0.011143   -3.195674    0.000000
      2          1           0       -0.788600   -3.766566    0.000000
      3          1           0        0.810542   -3.767046    0.000000
      4          8           0        0.011143    3.197862    0.000000
      5          1           0        0.684142    3.913807    0.000000
      6          1           0       -0.884366    3.602301    0.000000
 ---------------------------------------------------------------------

 SCF Done:  E(RHF) =  -152.106853152     A.U. after   10 cycles
 E2 =    -0.5259263965D+00 EUMP2 =    -0.15263277954815D+03
 CCSD(T)
 CCSD(T)= -0.15266001156D+03

 The electronic state is 1-A'.
 Alpha  occ. eigenvalues --  -20.55210 -20.55197  -1.32506  -1.32493  -0.69913
 Alpha  occ. eigenvalues --   -0.69900  -0.55927  -0.55915  -0.49613  -0.49601
 Alpha virt. eigenvalues --    0.14415   0.14440   0.20466   0.20482   0.54656
 Alpha virt. eigenvalues --    0.54670   0.57525   0.57538   0.68289   0.68335
 Alpha virt. eigenvalues --    0.79266   0.79278   0.80709   0.80723   0.82637

 Mulliken charges:
               1
     1  O   -0.505591
     2  H    0.252551
     3  H    0.253040
     4  O   -0.505578
     5  H    0.252445
     6  H    0.253133
 Sum of Mulliken charges =  -0.00000

 Dipole moment (field-independent basis, Debye):
    X=             -0.3829    Y=             -0.0382    Z=              0.0000  Tot=              0.3848
 Quadrupole moment (field-independent basis, Debye-Ang):
   XX=             -7.8807   YY=             13.3702   ZZ=            -14.7107
   XY=             -0.8821   XZ=              0.0000   YZ=              0.0000

 Normal termination of Gaussian 16 at Sat Aug 27 07:41:27 2022.
