 Gaussian 16, Revision A.03,
 Gaussian 16:  ES64L-G16RevA.03 25-Dec-2016

 ------------------
 #p CCSD(T)/cc-pVTZ
 ------------------

 ------------
 H2O_H2O_1753
 ------------
 Symbolic Z-matrix:
 Charge =  0 Multiplicity = 1

                         Standard orientation:
 ---------------------------------------------------------------------
 Center     Atomic      Atomic             Coordinates (Angstroms)
 Number     Number       Type             X           Y           Z
 ---------------------------------------------------------------------
      1          8           0        0.011143   -1.733127    0.000000
      2          1           0       -0.788744   -2.303817    0.000000
      3          1           0        0.810398   -2.304701    0.000000
      4          8           0        0.011143    1.735309    0.000000
      5          1           0        0.684324    2.451084    0.000000
      6          1           0       -0.884264    2.139975    0.000000
 ---------------------------------------------------------------------

 SCF Done:  E(RHF) =  -152.103941735     A.U. after   10 cycles
 E2 =    -0.5266998046D+00 EUMP2 =    -0.15263064153919D+03
 CCSD(T)
 CCSD(T)= -0.15265789912D+03

 The electronic state is 1-A'.
 Alpha  occ. eigenvalues --  -20.54290 -20.54247  -1.31587  -1.31508  -0.69009
 Alpha  occ. eigenvalues --   -0.68936  -0.55337  -0.54244  -0.48727  -0.48551
 Alpha virt. eigenvalues --    0.14232   0.16152   0.20590   0.21472   0.53189
 Alpha virt. eigenvalues --    0.57560   0.58045   0.58440   0.61507   0.76003
 Alpha virt. eigenvalues --    0.78922   0.79272   0.80225   0.81344   0.84108

 Mulliken charges:
               1
     1  O   -0.484339
     2  H    0.240953
     3  H    0.243471
     4  O   -0.484307
     5  H    0.240720
     6  H    0.243503
 Sum of Mulliken charges =  -0.00000

 Dipole moment (field-independent basis, Debye):
    X=             -0.3718    Y=             -0.0406    Z=              0.0000  Tot=              0.3740
 Quadrupole moment (field-independent basis, Debye-Ang):
   XX=             -7.9365   YY=              1.5710   ZZ=            -14.7089
   XY=             -0.3339   XZ=              0.0000   YZ=              0.0000

 Normal termination of Gaussian 16 at Sat Aug 27 06:35:45 2022.
