 Gaussian 16, Revision A.03,
 Gaussian 16:  ES64L-G16RevA.03 25-Dec-2016

 ------------------
 #p CCSD(T)/cc-pVTZ
 ------------------

 -----------
 H2O_H2O_316
 -----------
 Symbolic Z-matrix:
 Charge =  0 Multiplicity = 1

                         Standard orientation:
 ---------------------------------------------------------------------
 Center     Atomic      Atomic             Coordinates (Angstroms)
 Number     Number       Type             X           Y           Z
 ---------------------------------------------------------------------
      1          8           0        0.049588   -0.932364    0.000000
      2          1           0       -0.752507   -1.499946    0.000000
      3          1           0        0.846619   -1.507034    0.000000
      4          8           0        0.049588    0.989038    0.000000
      5          1           0       -0.040906    1.967464    0.000000
      6          1           0       -0.846607    0.586123    0.000000
 ---------------------------------------------------------------------

 SCF Done:  E(RHF) =  -152.040271114     A.U. after   11 cycles
 E2 =    -0.5378262082D+00 EUMP2 =    -0.15257809732260D+03
 CCSD(T)
 CCSD(T)= -0.15260461938D+03

 The electronic state is 1-A'.
 Alpha  occ. eigenvalues --  -20.53855 -20.51344  -1.34583  -1.28082  -0.71901
 Alpha  occ. eigenvalues --   -0.68862  -0.56515  -0.51147  -0.46285  -0.44884
 Alpha virt. eigenvalues --    0.13850   0.18572   0.19781   0.24313   0.52281
 Alpha virt. eigenvalues --    0.56816   0.59589   0.64147   0.72470   0.76157
 Alpha virt. eigenvalues --    0.80482   0.82370   0.83487   0.84251   0.88341

 Mulliken charges:
               1
     1  O   -0.405432
     2  H    0.193543
     3  H    0.222179
     4  O   -0.414329
     5  H    0.162784
     6  H    0.241255
 Sum of Mulliken charges =   0.00000

 Dipole moment (field-independent basis, Debye):
    X=             -1.4033    Y=             -1.1998    Z=              0.0000  Tot=              1.8463
 Quadrupole moment (field-independent basis, Debye-Ang):
   XX=             -9.4865   YY=             -6.5348   ZZ=            -14.6849
   XY=             -1.0782   XZ=              0.0000   YZ=              0.0000

 Normal termination of Gaussian 16 at Fri Aug 26 15:11:27 2022.
