 Gaussian 16, Revision A.03,
 Gaussian 16:  ES64L-G16RevA.03 25-Dec-2016

 ------------------
 #p CCSD(T)/cc-pVTZ
 ------------------

 ----------
 H2O_H2O_92
 ----------
 Symbolic Z-matrix:
 Charge =  0 Multiplicity = 1

                         Standard orientation:
 ---------------------------------------------------------------------
 Center     Atomic      Atomic             Coordinates (Angstroms)
 Number     Number       Type             X           Y           Z
 ---------------------------------------------------------------------
      1          8           0        0.051390   -0.809173    0.000000
      2          1           0       -0.751166   -1.376103    0.000000
      3          1           0        0.847954   -1.384490    0.000000
      4          8           0        0.051390    0.872340    0.000000
      5          1           0       -0.102113    1.842877    0.000000
      6          1           0       -0.816909    0.412379    0.000000
 ---------------------------------------------------------------------

 SCF Done:  E(RHF) =  -151.947642906     A.U. after   12 cycles
 E2 =    -0.5479700471D+00 EUMP2 =    -0.15249561295317D+03
 CCSD(T)
 CCSD(T)= -0.15252082876D+03

 The electronic state is 1-A'.
 Alpha  occ. eigenvalues --  -20.53910 -20.50550  -1.38835  -1.26551  -0.75674
 Alpha  occ. eigenvalues --   -0.70968  -0.55502  -0.53861  -0.43488  -0.40576
 Alpha virt. eigenvalues --    0.13631   0.18991   0.19735   0.24523   0.51381
 Alpha virt. eigenvalues --    0.55945   0.60059   0.66493   0.73218   0.76828
 Alpha virt. eigenvalues --    0.79994   0.81216   0.83964   0.84053   0.88900

 Mulliken charges:
               1
     1  O   -0.328607
     2  H    0.154316
     3  H    0.200820
     4  O   -0.382887
     5  H    0.112302
     6  H    0.244056
 Sum of Mulliken charges =  -0.00000

 Dipole moment (field-independent basis, Debye):
    X=             -1.3478    Y=             -1.4547    Z=              0.0000  Tot=              1.9831
 Quadrupole moment (field-independent basis, Debye-Ang):
   XX=             -9.6306   YY=             -8.5233   ZZ=            -14.6063
   XY=             -0.9773   XZ=              0.0000   YZ=              0.0000

 Normal termination of Gaussian 16 at Fri Aug 26 12:40:43 2022.
