 Gaussian 16, Revision A.03,
 Gaussian 16:  ES64L-G16RevA.03 25-Dec-2016

 ------------------
 #p CCSD(T)/cc-pVTZ
 ------------------

 ------------
 H2O_H2O_1826
 ------------
 Symbolic Z-matrix:
 Charge =  0 Multiplicity = 1

                         Standard orientation:
 ---------------------------------------------------------------------
 Center     Atomic      Atomic             Coordinates (Angstroms)
 Number     Number       Type             X           Y           Z
 ---------------------------------------------------------------------
      1          8           0        0.003735   -1.774068    0.000000
      2          1           0       -0.795939   -2.345055    0.000000
      3          1           0        0.803203   -2.345345    0.000000
      4          8           0        0.003735    1.774312    0.000000
      5          1           0        0.764354    2.396377    0.000000
      6          1           0       -0.831384    2.292077    0.000000
 ---------------------------------------------------------------------

 SCF Done:  E(RHF) =  -152.104114596     A.U. after   10 cycles
 E2 =    -0.5266214852D+00 EUMP2 =    -0.15263073608152D+03
 CCSD(T)
 CCSD(T)= -0.15265799254D+03

 The electronic state is 1-A'.
 Alpha  occ. eigenvalues --  -20.54311 -20.54306  -1.31613  -1.31562  -0.69035
 Alpha  occ. eigenvalues --   -0.68990  -0.55313  -0.54367  -0.48750  -0.48609
 Alpha virt. eigenvalues --    0.14239   0.16060   0.20613   0.21392   0.53469
 Alpha virt. eigenvalues --    0.57527   0.57997   0.58391   0.60998   0.75820
 Alpha virt. eigenvalues --    0.79079   0.79644   0.80326   0.81155   0.83700

 Mulliken charges:
               1
     1  O   -0.485864
     2  H    0.242539
     3  H    0.243333
     4  O   -0.485862
     5  H    0.242482
     6  H    0.243371
 Sum of Mulliken charges =  -0.00000

 Dipole moment (field-independent basis, Debye):
    X=             -0.1249    Y=             -0.0045    Z=              0.0000  Tot=              0.1250
 Quadrupole moment (field-independent basis, Debye-Ang):
   XX=             -7.8643   YY=              1.9606   ZZ=            -14.7088
   XY=             -0.1146   XZ=              0.0000   YZ=              0.0000

 Normal termination of Gaussian 16 at Sat Aug 27 07:00:35 2022.
