 Gaussian 16, Revision A.03,
 Gaussian 16:  ES64L-G16RevA.03 25-Dec-2016

 ------------------
 #p CCSD(T)/cc-pVTZ
 ------------------

 ------------
 H2O_H2O_4691
 ------------
 Symbolic Z-matrix:
 Charge =  0 Multiplicity = 1

                         Standard orientation:
 ---------------------------------------------------------------------
 Center     Atomic      Atomic             Coordinates (Angstroms)
 Number     Number       Type             X           Y           Z
 ---------------------------------------------------------------------
      1          8           0        0.049498   -3.258986    0.000000
      2          1           0       -0.750812   -3.829082    0.000000
      3          1           0        0.848329   -3.831153    0.000000
      4          8           0        0.049498    3.315971    0.000000
      5          1           0       -0.044064    4.294108    0.000000
      6          1           0       -0.845428    2.910246    0.000000
 ---------------------------------------------------------------------

 SCF Done:  E(RHF) =  -152.107286419     A.U. after   10 cycles
 E2 =    -0.5258876265D+00 EUMP2 =    -0.15263317404554D+03
 CCSD(T)
 CCSD(T)= -0.15266039688D+03

 The electronic state is 1-A'.
 Alpha  occ. eigenvalues --  -20.55505 -20.55201  -1.32803  -1.32498  -0.70209
 Alpha  occ. eigenvalues --   -0.69899  -0.56245  -0.55939  -0.49914  -0.49610
 Alpha virt. eigenvalues --    0.14160   0.14467   0.20230   0.20551   0.54354
 Alpha virt. eigenvalues --    0.54675   0.57262   0.57566   0.67951   0.68268
 Alpha virt. eigenvalues --    0.78966   0.79266   0.80399   0.80725   0.82325

 Mulliken charges:
               1
     1  O   -0.508164
     2  H    0.253100
     3  H    0.255065
     4  O   -0.507979
     5  H    0.252280
     6  H    0.255699
 Sum of Mulliken charges =  -0.00000

 Dipole moment (field-independent basis, Debye):
    X=             -1.7021    Y=             -0.9941    Z=              0.0000  Tot=              1.9711
 Quadrupole moment (field-independent basis, Debye-Ang):
   XX=             -9.3455   YY=              9.1698   ZZ=            -14.7117
   XY=             -4.9281   XZ=              0.0000   YZ=              0.0000

 Normal termination of Gaussian 16 at Sat Aug 27 08:46:44 2022.
