 Gaussian 16, Revision A.03,
 Gaussian 16:  ES64L-G16RevA.03 25-Dec-2016

 ------------------
 #p CCSD(T)/cc-pVTZ
 ------------------

 -----------
 H2O_H2O_304
 -----------
 Symbolic Z-matrix:
 Charge =  0 Multiplicity = 1

                         Standard orientation:
 ---------------------------------------------------------------------
 Center     Atomic      Atomic             Coordinates (Angstroms)
 Number     Number       Type             X           Y           Z
 ---------------------------------------------------------------------
      1          8           0        0.014785   -0.961057    0.000000
      2          1           0       -0.785540   -1.531132    0.000000
      3          1           0        0.813600   -1.533245    0.000000
      4          8           0        0.014785    0.964910    0.000000
      5          1           0        0.640293    1.722699    0.000000
      6          1           0       -0.904906    1.310852    0.000000
 ---------------------------------------------------------------------

 SCF Done:  E(RHF) =  -152.035207340     A.U. after   11 cycles
 E2 =    -0.5372632114D+00 EUMP2 =    -0.15257247055142D+03
 CCSD(T)
 CCSD(T)= -0.15259904663D+03

 The electronic state is 1-A'.
 Alpha  occ. eigenvalues --  -20.51691 -20.51574  -1.32500  -1.28163  -0.68872
 Alpha  occ. eigenvalues --   -0.66402  -0.61891  -0.49611  -0.44551  -0.42037
 Alpha virt. eigenvalues --    0.14632   0.18581   0.20365   0.22978   0.50842
 Alpha virt. eigenvalues --    0.58944   0.59095   0.66304   0.69295   0.78319
 Alpha virt. eigenvalues --    0.79321   0.83252   0.84298   0.86548   0.87595

 Mulliken charges:
               1
     1  O   -0.421613
     2  H    0.205298
     3  H    0.215422
     4  O   -0.410369
     5  H    0.188512
     6  H    0.222750
 Sum of Mulliken charges =  -0.00000

 Dipole moment (field-independent basis, Debye):
    X=             -0.4269    Y=             -0.0851    Z=              0.0000  Tot=              0.4353
 Quadrupole moment (field-independent basis, Debye-Ang):
   XX=             -8.3187   YY=             -6.2967   ZZ=            -14.7508
   XY=             -0.1441   XZ=              0.0000   YZ=              0.0000

 Normal termination of Gaussian 16 at Fri Aug 26 15:05:19 2022.
