 Gaussian 16, Revision A.03,
 Gaussian 16:  ES64L-G16RevA.03 25-Dec-2016

 ------------------
 #p CCSD(T)/cc-pVTZ
 ------------------

 ------------
 H2O_H2O_3407
 ------------
 Symbolic Z-matrix:
 Charge =  0 Multiplicity = 1

                         Standard orientation:
 ---------------------------------------------------------------------
 Center     Atomic      Atomic             Coordinates (Angstroms)
 Number     Number       Type             X           Y           Z
 ---------------------------------------------------------------------
      1          8           0        0.025265   -2.605468    0.000000
      2          1           0       -0.774781   -3.175934    0.000000
      3          1           0        0.824361   -3.177265    0.000000
      4          8           0        0.025265    2.617205    0.000000
      5          1           0        0.490494    3.482693    0.000000
      6          1           0       -0.944321    2.776605    0.000000
 ---------------------------------------------------------------------

 SCF Done:  E(RHF) =  -152.106467257     A.U. after   10 cycles
 E2 =    -0.5259864689D+00 EUMP2 =    -0.15263245372597D+03
 CCSD(T)
 CCSD(T)= -0.15265969236D+03

 The electronic state is 1-A'.
 Alpha  occ. eigenvalues --  -20.55071 -20.54971  -1.32365  -1.32264  -0.69774
 Alpha  occ. eigenvalues --   -0.69670  -0.55768  -0.55667  -0.49470  -0.49369
 Alpha virt. eigenvalues --    0.14399   0.14750   0.20519   0.20693   0.54758
 Alpha virt. eigenvalues --    0.54940   0.57627   0.57742   0.67871   0.69238
 Alpha virt. eigenvalues --    0.79407   0.79507   0.80844   0.80982   0.82757

 Mulliken charges:
               1
     1  O   -0.503345
     2  H    0.250693
     3  H    0.252655
     4  O   -0.503182
     5  H    0.250239
     6  H    0.252940
 Sum of Mulliken charges =  -0.00000

 Dipole moment (field-independent basis, Debye):
    X=             -0.8645    Y=             -0.2065    Z=              0.0000  Tot=              0.8889
 Quadrupole moment (field-independent basis, Debye-Ang):
   XX=             -8.2110   YY=              8.1502   ZZ=            -14.7103
   XY=             -1.5739   XZ=              0.0000   YZ=              0.0000

 Normal termination of Gaussian 16 at Fri Aug 26 22:04:48 2022.
