 Gaussian 16, Revision A.03,
 Gaussian 16:  ES64L-G16RevA.03 25-Dec-2016

 ------------------
 #p CCSD(T)/cc-pVTZ
 ------------------

 ------------
 H2O_H2O_3079
 ------------
 Symbolic Z-matrix:
 Charge =  0 Multiplicity = 1

                         Standard orientation:
 ---------------------------------------------------------------------
 Center     Atomic      Atomic             Coordinates (Angstroms)
 Number     Number       Type             X           Y           Z
 ---------------------------------------------------------------------
      1          8           0        0.014783   -2.436890    0.000000
      2          1           0       -0.785086   -3.007605    0.000000
      3          1           0        0.814056   -3.008439    0.000000
      4          8           0        0.014783    2.440767    0.000000
      5          1           0        0.639686    3.199057    0.000000
      6          1           0       -0.905184    2.785974    0.000000
 ---------------------------------------------------------------------

 SCF Done:  E(RHF) =  -152.106121035     A.U. after   10 cycles
 E2 =    -0.5260344436D+00 EUMP2 =    -0.15263215547831D+03
 CCSD(T)
 CCSD(T)= -0.15265940017D+03

 The electronic state is 1-A'.
 Alpha  occ. eigenvalues --  -20.54920 -20.54883  -1.32213  -1.32175  -0.69623
 Alpha  occ. eigenvalues --   -0.69584  -0.55606  -0.55551  -0.49315  -0.49277
 Alpha virt. eigenvalues --    0.14405   0.14922   0.20587   0.20767   0.54821
 Alpha virt. eigenvalues --    0.55112   0.57732   0.57822   0.67179   0.70227
 Alpha virt. eigenvalues --    0.79543   0.79613   0.80976   0.81101   0.82645

 Mulliken charges:
               1
     1  O   -0.501294
     2  H    0.249957
     3  H    0.251340
     4  O   -0.501211
     5  H    0.249708
     6  H    0.251500
 Sum of Mulliken charges =   0.00000

 Dipole moment (field-independent basis, Debye):
    X=             -0.5047    Y=             -0.0685    Z=              0.0000  Tot=              0.5093
 Quadrupole moment (field-independent basis, Debye-Ang):
   XX=             -7.9526   YY=              7.2414   ZZ=            -14.7099
   XY=             -0.7983   XZ=              0.0000   YZ=              0.0000

 Normal termination of Gaussian 16 at Fri Aug 26 19:13:12 2022.
