 Gaussian 16, Revision A.03,
 Gaussian 16:  ES64L-G16RevA.03 25-Dec-2016

 ------------------
 #p CCSD(T)/cc-pVTZ
 ------------------

 ------------
 H2O_H2O_4551
 ------------
 Symbolic Z-matrix:
 Charge =  0 Multiplicity = 1

                         Standard orientation:
 ---------------------------------------------------------------------
 Center     Atomic      Atomic             Coordinates (Angstroms)
 Number     Number       Type             X           Y           Z
 ---------------------------------------------------------------------
      1          8           0        0.003735   -3.223322    0.000000
      2          1           0       -0.795893   -3.794374    0.000000
      3          1           0        0.803249   -3.794534    0.000000
      4          8           0        0.003735    3.223566    0.000000
      5          1           0        0.764303    3.845694    0.000000
      6          1           0       -0.831426    3.741264    0.000000
 ---------------------------------------------------------------------

 SCF Done:  E(RHF) =  -152.106854594     A.U. after   10 cycles
 E2 =    -0.5259256393D+00 EUMP2 =    -0.15263278023292D+03
 CCSD(T)
 CCSD(T)= -0.15266001225D+03

 The electronic state is 1-A'.
 Alpha  occ. eigenvalues --  -20.55207 -20.55205  -1.32503  -1.32501  -0.69910
 Alpha  occ. eigenvalues --   -0.69908  -0.55925  -0.55923  -0.49610  -0.49609
 Alpha virt. eigenvalues --    0.14416   0.14434   0.20467   0.20476   0.54658
 Alpha virt. eigenvalues --    0.54662   0.57527   0.57531   0.68291   0.68327
 Alpha virt. eigenvalues --    0.79269   0.79270   0.80712   0.80714   0.82639

 Mulliken charges:
               1
     1  O   -0.505599
     2  H    0.252719
     3  H    0.252879
     4  O   -0.505598
     5  H    0.252687
     6  H    0.252911
 Sum of Mulliken charges =  -0.00000

 Dipole moment (field-independent basis, Debye):
    X=             -0.1284    Y=             -0.0043    Z=              0.0000  Tot=              0.1284
 Quadrupole moment (field-independent basis, Debye-Ang):
   XX=             -7.8111   YY=             13.7341   ZZ=            -14.7107
   XY=             -0.2968   XZ=              0.0000   YZ=              0.0000

 Normal termination of Gaussian 16 at Sat Aug 27 07:57:56 2022.
