 Gaussian 16, Revision A.03,
 Gaussian 16:  ES64L-G16RevA.03 25-Dec-2016

 ------------------
 #p CCSD(T)/cc-pVTZ
 ------------------

 -----------
 H2O_H2O_834
 -----------
 Symbolic Z-matrix:
 Charge =  0 Multiplicity = 1

                         Standard orientation:
 ---------------------------------------------------------------------
 Center     Atomic      Atomic             Coordinates (Angstroms)
 Number     Number       Type             X           Y           Z
 ---------------------------------------------------------------------
      1          8           0        0.031751   -1.231983    0.000000
      2          1           0       -0.769074   -1.801354    0.000000
      3          1           0        0.830064   -1.804873    0.000000
      4          8           0        0.031751    1.251094    0.000000
      5          1           0        0.381288    2.169424    0.000000
      6          1           0       -0.950302    1.283915    0.000000
 ---------------------------------------------------------------------

 SCF Done:  E(RHF) =  -152.093992860     A.U. after   11 cycles
 E2 =    -0.5293102102D+00 EUMP2 =    -0.15262330306974D+03
 CCSD(T)
 CCSD(T)= -0.15265055556D+03

 The electronic state is 1-A'.
 Alpha  occ. eigenvalues --  -20.53629 -20.53036  -1.31417  -1.30204  -0.68741
 Alpha  occ. eigenvalues --   -0.67819  -0.56871  -0.50676  -0.48678  -0.47023
 Alpha virt. eigenvalues --    0.14297   0.17385   0.20414   0.22759   0.52272
 Alpha virt. eigenvalues --    0.58416   0.58541   0.61756   0.70622   0.76303
 Alpha virt. eigenvalues --    0.77006   0.79420   0.83705   0.85913   0.86083

 Mulliken charges:
               1
     1  O   -0.466637
     2  H    0.225781
     3  H    0.239953
     4  O   -0.451680
     5  H    0.214420
     6  H    0.238163
 Sum of Mulliken charges =  -0.00000

 Dipole moment (field-independent basis, Debye):
    X=             -0.9912    Y=             -0.3718    Z=              0.0000  Tot=              1.0587
 Quadrupole moment (field-independent basis, Debye-Ang):
   XX=             -8.5833   YY=             -3.0893   ZZ=            -14.7245
   XY=             -0.6181   XZ=              0.0000   YZ=              0.0000

 Normal termination of Gaussian 16 at Fri Aug 26 20:25:48 2022.
