 Gaussian 16, Revision A.03,
 Gaussian 16:  ES64L-G16RevA.03 25-Dec-2016

 ------------------
 #p CCSD(T)/cc-pVTZ
 ------------------

 ------------
 H2O_H2O_4504
 ------------
 Symbolic Z-matrix:
 Charge =  0 Multiplicity = 1

                         Standard orientation:
 ---------------------------------------------------------------------
 Center     Atomic      Atomic             Coordinates (Angstroms)
 Number     Number       Type             X           Y           Z
 ---------------------------------------------------------------------
      1          8           0        0.014783   -3.194755    0.000000
      2          1           0       -0.785016   -3.765569    0.000000
      3          1           0        0.814126   -3.766205    0.000000
      4          8           0        0.014783    3.198635    0.000000
      5          1           0        0.639592    3.957003    0.000000
      6          1           0       -0.905227    3.543729    0.000000
 ---------------------------------------------------------------------

 SCF Done:  E(RHF) =  -152.106865579     A.U. after   10 cycles
 E2 =    -0.5259253927D+00 EUMP2 =    -0.15263279097166D+03
 CCSD(T)
 CCSD(T)= -0.15266002272D+03

 The electronic state is 1-A'.
 Alpha  occ. eigenvalues --  -20.55218 -20.55197  -1.32515  -1.32493  -0.69922
 Alpha  occ. eigenvalues --   -0.69899  -0.55937  -0.55915  -0.49622  -0.49600
 Alpha virt. eigenvalues --    0.14409   0.14441   0.20459   0.20485   0.54647
 Alpha virt. eigenvalues --    0.54671   0.57517   0.57540   0.68281   0.68331
 Alpha virt. eigenvalues --    0.79257   0.79279   0.80700   0.80724   0.82627

 Mulliken charges:
               1
     1  O   -0.505666
     2  H    0.252509
     3  H    0.253157
     4  O   -0.505644
     5  H    0.252362
     6  H    0.253282
 Sum of Mulliken charges =  -0.00000

 Dipole moment (field-independent basis, Debye):
    X=             -0.5080    Y=             -0.0677    Z=              0.0000  Tot=              0.5125
 Quadrupole moment (field-independent basis, Debye-Ang):
   XX=             -7.9401   YY=             13.2373   ZZ=            -14.7107
   XY=             -1.1782   XZ=              0.0000   YZ=              0.0000

 Normal termination of Gaussian 16 at Sat Aug 27 07:41:49 2022.
