 Gaussian 16, Revision A.03,
 Gaussian 16:  ES64L-G16RevA.03 25-Dec-2016

 ------------------
 #p CCSD(T)/cc-pVTZ
 ------------------

 ------------
 H2O_H2O_3778
 ------------
 Symbolic Z-matrix:
 Charge =  0 Multiplicity = 1

                         Standard orientation:
 ---------------------------------------------------------------------
 Center     Atomic      Atomic             Coordinates (Angstroms)
 Number     Number       Type             X           Y           Z
 ---------------------------------------------------------------------
      1          8           0        0.011143   -2.810093    0.000000
      2          1           0       -0.788623   -3.380952    0.000000
      3          1           0        0.810519   -3.381498    0.000000
      4          8           0        0.011143    2.812280    0.000000
      5          1           0        0.684172    3.528198    0.000000
      6          1           0       -0.884349    3.216756    0.000000
 ---------------------------------------------------------------------

 SCF Done:  E(RHF) =  -152.106559753     A.U. after   10 cycles
 E2 =    -0.5259646105D+00 EUMP2 =    -0.15263252436333D+03
 CCSD(T)
 CCSD(T)= -0.15265976188D+03

 The electronic state is 1-A'.
 Alpha  occ. eigenvalues --  -20.55082 -20.55066  -1.32377  -1.32361  -0.69785
 Alpha  occ. eigenvalues --   -0.69769  -0.55785  -0.55768  -0.49482  -0.49466
 Alpha virt. eigenvalues --    0.14467   0.14597   0.20537   0.20590   0.54771
 Alpha virt. eigenvalues --    0.54818   0.57625   0.57653   0.68251   0.68712
 Alpha virt. eigenvalues --    0.79395   0.79411   0.80839   0.80867   0.82764

 Mulliken charges:
               1
     1  O   -0.503869
     2  H    0.251583
     3  H    0.252286
     4  O   -0.503846
     5  H    0.251446
     6  H    0.252399
 Sum of Mulliken charges =   0.00000

 Dipole moment (field-independent basis, Debye):
    X=             -0.3820    Y=             -0.0383    Z=              0.0000  Tot=              0.3839
 Quadrupole moment (field-independent basis, Debye-Ang):
   XX=             -7.8856   YY=             10.3071   ZZ=            -14.7103
   XY=             -0.7360   XZ=              0.0000   YZ=              0.0000

 Normal termination of Gaussian 16 at Sat Aug 27 03:14:08 2022.
