 Gaussian 16, Revision A.03,
 Gaussian 16:  ES64L-G16RevA.03 25-Dec-2016

 ------------------
 #p CCSD(T)/cc-pVTZ
 ------------------

 ------------
 H2O_H2O_4798
 ------------
 Symbolic Z-matrix:
 Charge =  0 Multiplicity = 1

                         Standard orientation:
 ---------------------------------------------------------------------
 Center     Atomic      Atomic             Coordinates (Angstroms)
 Number     Number       Type             X           Y           Z
 ---------------------------------------------------------------------
      1          8           0        0.057069   -3.285232    0.000000
      2          1           0       -0.743340   -3.855189    0.000000
      3          1           0        0.855800   -3.857539    0.000000
      4          8           0        0.057069    3.391820    0.000000
      5          1           0       -0.459318    4.227794    0.000000
      6          1           0       -0.566252    2.632230    0.000000
 ---------------------------------------------------------------------

 SCF Done:  E(RHF) =  -152.107624207     A.U. after   10 cycles
 E2 =    -0.5258560353D+00 EUMP2 =    -0.15263348024266D+03
 CCSD(T)
 CCSD(T)= -0.15266069604D+03

 The electronic state is 1-A'.
 Alpha  occ. eigenvalues --  -20.55737 -20.55193  -1.33037  -1.32493  -0.70443
 Alpha  occ. eigenvalues --   -0.69893  -0.56494  -0.55945  -0.50150  -0.49608
 Alpha virt. eigenvalues --    0.13953   0.14503   0.20042   0.20620   0.54116
 Alpha virt. eigenvalues --    0.54677   0.57054   0.57597   0.67671   0.68247
 Alpha virt. eigenvalues --    0.78729   0.79264   0.80156   0.80727   0.82084

 Mulliken charges:
               1
     1  O   -0.510165
     2  H    0.254079
     3  H    0.256086
     4  O   -0.509865
     5  H    0.252756
     6  H    0.257109
 Sum of Mulliken charges =  -0.00000

 Dipole moment (field-independent basis, Debye):
    X=             -1.9630    Y=             -1.8593    Z=              0.0000  Tot=              2.7038
 Quadrupole moment (field-independent basis, Debye-Ang):
   XX=             -9.8554   YY=              4.1112   ZZ=            -14.7125
   XY=             -6.6736   XZ=              0.0000   YZ=              0.0000

 Normal termination of Gaussian 16 at Sat Aug 27 09:23:38 2022.
