 Gaussian 16, Revision A.03,
 Gaussian 16:  ES64L-G16RevA.03 25-Dec-2016

 ------------------
 #p CCSD(T)/cc-pVTZ
 ------------------

 ------------
 H2O_H2O_1132
 ------------
 Symbolic Z-matrix:
 Charge =  0 Multiplicity = 1

                         Standard orientation:
 ---------------------------------------------------------------------
 Center     Atomic      Atomic             Coordinates (Angstroms)
 Number     Number       Type             X           Y           Z
 ---------------------------------------------------------------------
      1          8           0        0.025270   -1.395559    0.000000
      2          1           0       -0.775187   -1.965450    0.000000
      3          1           0        0.823953   -1.967931    0.000000
      4          8           0        0.025270    1.407260    0.000000
      5          1           0        0.491121    2.272413    0.000000
      6          1           0       -0.944202    1.567356    0.000000
 ---------------------------------------------------------------------

 SCF Done:  E(RHF) =  -152.100008917     A.U. after   11 cycles
 E2 =    -0.5279058697D+00 EUMP2 =    -0.15262791478705D+03
 CCSD(T)
 CCSD(T)= -0.15265520391D+03

 The electronic state is 1-A'.
 Alpha  occ. eigenvalues --  -20.53874 -20.53560  -1.31321  -1.30788  -0.68720
 Alpha  occ. eigenvalues --   -0.68261  -0.55993  -0.52350  -0.48537  -0.47716
 Alpha virt. eigenvalues --    0.14294   0.16971   0.20487   0.22238   0.51950
 Alpha virt. eigenvalues --    0.58399   0.58697   0.60351   0.69063   0.76538
 Alpha virt. eigenvalues --    0.77043   0.78157   0.80406   0.83218   0.86056

 Mulliken charges:
               1
     1  O   -0.471740
     2  H    0.231032
     3  H    0.240558
     4  O   -0.465289
     5  H    0.227301
     6  H    0.238138
 Sum of Mulliken charges =  -0.00000

 Dipole moment (field-independent basis, Debye):
    X=             -0.8142    Y=             -0.2231    Z=              0.0000  Tot=              0.8442
 Quadrupole moment (field-independent basis, Debye-Ang):
   XX=             -8.3118   YY=             -1.5133   ZZ=            -14.7149
   XY=             -0.5599   XZ=              0.0000   YZ=              0.0000

 Normal termination of Gaussian 16 at Sat Aug 27 02:22:35 2022.
