 Gaussian 16, Revision A.03,
 Gaussian 16:  ES64L-G16RevA.03 25-Dec-2016

 ------------------
 #p CCSD(T)/cc-pVTZ
 ------------------

 ------------
 H2O_H2O_3610
 ------------
 Symbolic Z-matrix:
 Charge =  0 Multiplicity = 1

                         Standard orientation:
 ---------------------------------------------------------------------
 Center     Atomic      Atomic             Coordinates (Angstroms)
 Number     Number       Type             X           Y           Z
 ---------------------------------------------------------------------
      1          8           0        0.034781   -2.705432    0.000000
      2          1           0       -0.765418   -3.275683    0.000000
      3          1           0        0.833723   -3.277444    0.000000
      4          8           0        0.034781    2.728960    0.000000
      5          1           0        0.322476    3.668501    0.000000
      6          1           0       -0.947281    2.696402    0.000000
 ---------------------------------------------------------------------

 SCF Done:  E(RHF) =  -152.106722146     A.U. after   10 cycles
 E2 =    -0.5259577474D+00 EUMP2 =    -0.15263267989334D+03
 CCSD(T)
 CCSD(T)= -0.15265991349D+03

 The electronic state is 1-A'.
 Alpha  occ. eigenvalues --  -20.55199 -20.55014  -1.32494  -1.32307  -0.69903
 Alpha  occ. eigenvalues --   -0.69711  -0.55909  -0.55723  -0.49601  -0.49415
 Alpha virt. eigenvalues --    0.14338   0.14682   0.20439   0.20677   0.54650
 Alpha virt. eigenvalues --    0.54879   0.57522   0.57714   0.68004   0.68868
 Alpha virt. eigenvalues --    0.79277   0.79460   0.80717   0.80925   0.82674

 Mulliken charges:
               1
     1  O   -0.504852
     2  H    0.251217
     3  H    0.253638
     4  O   -0.504619
     5  H    0.250535
     6  H    0.254080
 Sum of Mulliken charges =  -0.00000

 Dipole moment (field-independent basis, Debye):
    X=             -1.1916    Y=             -0.4132    Z=              0.0000  Tot=              1.2612
 Quadrupole moment (field-independent basis, Debye-Ang):
   XX=             -8.5674   YY=              8.1838   ZZ=            -14.7107
   XY=             -2.4204   XZ=              0.0000   YZ=              0.0000

 Normal termination of Gaussian 16 at Sat Aug 27 01:52:52 2022.
