 Gaussian 16, Revision A.03,
 Gaussian 16:  ES64L-G16RevA.03 25-Dec-2016

 ------------------
 #p CCSD(T)/cc-pVTZ
 ------------------

 ------------
 H2O_H2O_4983
 ------------
 Symbolic Z-matrix:
 Charge =  0 Multiplicity = 1

                         Standard orientation:
 ---------------------------------------------------------------------
 Center     Atomic      Atomic             Coordinates (Angstroms)
 Number     Number       Type             X           Y           Z
 ---------------------------------------------------------------------
      1          8           0        0.028562   -3.441196    0.000000
      2          1           0       -0.771416   -4.011758    0.000000
      3          1           0        0.827726   -4.012898    0.000000
      4          8           0        0.028562    3.456459    0.000000
      5          1           0        0.436083    4.350568    0.000000
      6          1           0       -0.949385    3.551985    0.000000
 ---------------------------------------------------------------------

 SCF Done:  E(RHF) =  -152.107060047     A.U. after   10 cycles
 E2 =    -0.5259041162D+00 EUMP2 =    -0.15263296416280D+03
 CCSD(T)
 CCSD(T)= -0.15266019204D+03

 The electronic state is 1-A'.
 Alpha  occ. eigenvalues --  -20.55331 -20.55258  -1.32628  -1.32554  -0.70035
 Alpha  occ. eigenvalues --   -0.69959  -0.56060  -0.55986  -0.49737  -0.49663
 Alpha virt. eigenvalues --    0.14317   0.14391   0.20374   0.20450   0.54532
 Alpha virt. eigenvalues --    0.54611   0.57419   0.57493   0.68157   0.68231
 Alpha virt. eigenvalues --    0.79142   0.79215   0.80581   0.80661   0.82506

 Mulliken charges:
               1
     1  O   -0.506813
     2  H    0.252903
     3  H    0.253910
     4  O   -0.506758
     5  H    0.252622
     6  H    0.254136
 Sum of Mulliken charges =  -0.00000

 Dipole moment (field-independent basis, Debye):
    X=             -0.9825    Y=             -0.2658    Z=              0.0000  Tot=              1.0178
 Quadrupole moment (field-independent basis, Debye-Ang):
   XX=             -8.3146   YY=             14.2035   ZZ=            -14.7111
   XY=             -2.6249   XZ=              0.0000   YZ=              0.0000

 647\MP4DQ=-152.6420911\MP4SDQ=-152.6451489\CCSD=-152.6445613\CCSD(T)=-
 Normal termination of Gaussian 16 at Sat Aug 27 10:28:27 2022.
