 Gaussian 16, Revision A.03,
 Gaussian 16:  ES64L-G16RevA.03 25-Dec-2016

 ------------------
 #p CCSD(T)/cc-pVTZ
 ------------------

 ------------
 H2O_H2O_1269
 ------------
 Symbolic Z-matrix:
 Charge =  0 Multiplicity = 1

                         Standard orientation:
 ---------------------------------------------------------------------
 Center     Atomic      Atomic             Coordinates (Angstroms)
 Number     Number       Type             X           Y           Z
 ---------------------------------------------------------------------
      1          8           0        0.054205   -1.426483    0.000000
      2          1           0       -0.747177   -1.995071    0.000000
      3          1           0        0.851957   -2.000153    0.000000
      4          8           0        0.054205    1.503648    0.000000
      5          1           0       -0.226613    2.445268    0.000000
      6          1           0       -0.745449    0.932632    0.000000
 ---------------------------------------------------------------------

 SCF Done:  E(RHF) =  -152.106451812     A.U. after   10 cycles
 E2 =    -0.5276055470D+00 EUMP2 =    -0.15263405735879D+03
 CCSD(T)
 CCSD(T)= -0.15266119446D+03

 The electronic state is 1-A'.
 Alpha  occ. eigenvalues --  -20.55764 -20.53354  -1.33108  -1.30629  -0.70522
 Alpha  occ. eigenvalues --   -0.68140  -0.56417  -0.53985  -0.50223  -0.47738
 Alpha virt. eigenvalues --    0.13403   0.17172   0.19833   0.24071   0.53290
 Alpha virt. eigenvalues --    0.56399   0.57091   0.58594   0.68783   0.75254
 Alpha virt. eigenvalues --    0.75862   0.77611   0.80718   0.82248   0.84625

 Mulliken charges:
               1
     1  O   -0.484819
     2  H    0.239049
     3  H    0.255227
     4  O   -0.497591
     5  H    0.231013
     6  H    0.257120
 Sum of Mulliken charges =  -0.00000

 Dipole moment (field-independent basis, Debye):
    X=             -1.7587    Y=             -1.5091    Z=              0.0000  Tot=              2.3174
 Quadrupole moment (field-independent basis, Debye-Ang):
   XX=             -9.6699   YY=             -2.7892   ZZ=            -14.7232
   XY=             -2.4178   XZ=              0.0000   YZ=              0.0000

 Normal termination of Gaussian 16 at Sat Aug 27 03:30:38 2022.
