 Gaussian 16, Revision A.03,
 Gaussian 16:  ES64L-G16RevA.03 25-Dec-2016

 ------------------
 #p CCSD(T)/cc-pVTZ
 ------------------

 -----------
 H2O_H2O_258
 -----------
 Symbolic Z-matrix:
 Charge =  0 Multiplicity = 1

                         Standard orientation:
 ---------------------------------------------------------------------
 Center     Atomic      Atomic             Coordinates (Angstroms)
 Number     Number       Type             X           Y           Z
 ---------------------------------------------------------------------
      1          8           0        0.028577   -0.928326    0.000000
      2          1           0       -0.772492   -1.497356    0.000000
      3          1           0        0.826645   -1.501556    0.000000
      4          8           0        0.028577    0.943479    0.000000
      5          1           0        0.437809    1.836808    0.000000
      6          1           0       -0.949186    1.040877    0.000000
 ---------------------------------------------------------------------

 SCF Done:  E(RHF) =  -152.025948378     A.U. after   11 cycles
 E2 =    -0.5387120049D+00 EUMP2 =    -0.15256466038250D+03
 CCSD(T)
 CCSD(T)= -0.15259105141D+03

 The electronic state is 1-A'.
 Alpha  occ. eigenvalues --  -20.52026 -20.51554  -1.33315  -1.27965  -0.69769
 Alpha  occ. eigenvalues --   -0.67113  -0.61228  -0.50246  -0.44417  -0.41745
 Alpha virt. eigenvalues --    0.14466   0.18535   0.20186   0.23297   0.52468
 Alpha virt. eigenvalues --    0.57641   0.58782   0.65229   0.70394   0.77996
 Alpha virt. eigenvalues --    0.79222   0.82827   0.83776   0.85962   0.88217

 Mulliken charges:
               1
     1  O   -0.419459
     2  H    0.199610
     3  H    0.217787
     4  O   -0.390623
     5  H    0.164269
     6  H    0.228416
 Sum of Mulliken charges =  -0.00000

 Dipole moment (field-independent basis, Debye):
    X=             -0.8118    Y=             -0.3330    Z=              0.0000  Tot=              0.8775
 Quadrupole moment (field-independent basis, Debye-Ang):
   XX=             -8.6531   YY=             -6.6814   ZZ=            -14.7338
   XY=             -0.3358   XZ=              0.0000   YZ=              0.0000

 Normal termination of Gaussian 16 at Fri Aug 26 14:36:30 2022.
