 Gaussian 16, Revision A.03,
 Gaussian 16:  ES64L-G16RevA.03 25-Dec-2016

 ------------------
 #p CCSD(T)/cc-pVTZ
 ------------------

 ------------
 H2O_H2O_2912
 ------------
 Symbolic Z-matrix:
 Charge =  0 Multiplicity = 1

                         Standard orientation:
 ---------------------------------------------------------------------
 Center     Atomic      Atomic             Coordinates (Angstroms)
 Number     Number       Type             X           Y           Z
 ---------------------------------------------------------------------
      1          8           0        0.040410   -2.327819    0.000000
      2          1           0       -0.760007   -2.897765    0.000000
      3          1           0        0.839133   -2.900136    0.000000
      4          8           0        0.040410    2.361155    0.000000
      5          1           0        0.203378    3.330148    0.000000
      6          1           0       -0.929063    2.201062    0.000000
 ---------------------------------------------------------------------

 SCF Done:  E(RHF) =  -152.106529858     A.U. after   10 cycles
 E2 =    -0.5260268819D+00 EUMP2 =    -0.15263255673999D+03
 CCSD(T)
 CCSD(T)= -0.15265978983D+03

 The electronic state is 1-A'.
 Alpha  occ. eigenvalues --  -20.55156 -20.54796  -1.32449  -1.32085  -0.69859
 Alpha  occ. eigenvalues --   -0.69484  -0.55853  -0.55489  -0.49554  -0.49193
 Alpha virt. eigenvalues --    0.14059   0.15132   0.20381   0.20981   0.54492
 Alpha virt. eigenvalues --    0.55108   0.57549   0.57892   0.66628   0.70955
 Alpha virt. eigenvalues --    0.79316   0.79684   0.80651   0.81300   0.82782

 Mulliken charges:
               1
     1  O   -0.503547
     2  H    0.249697
     3  H    0.253938
     4  O   -0.503107
     5  H    0.248415
     6  H    0.254604
 Sum of Mulliken charges =  -0.00000

 Dipole moment (field-independent basis, Debye):
    X=             -1.3779    Y=             -0.5922    Z=              0.0000  Tot=              1.4997
 Quadrupole moment (field-independent basis, Debye-Ang):
   XX=             -8.8365   YY=              4.9312   ZZ=            -14.7109
   XY=             -2.4279   XZ=              0.0000   YZ=              0.0000

 Normal termination of Gaussian 16 at Fri Aug 26 17:23:56 2022.
