 Gaussian 16, Revision A.03,
 Gaussian 16:  ES64L-G16RevA.03 25-Dec-2016

 ------------------
 #p CCSD(T)/cc-pVTZ
 ------------------

 ------------
 H2O_H2O_4124
 ------------
 Symbolic Z-matrix:
 Charge =  0 Multiplicity = 1

                         Standard orientation:
 ---------------------------------------------------------------------
 Center     Atomic      Atomic             Coordinates (Angstroms)
 Number     Number       Type             X           Y           Z
 ---------------------------------------------------------------------
      1          8           0        0.057207   -2.922197    0.000000
      2          1           0       -0.743305   -3.492008    0.000000
      3          1           0        0.855835   -3.494647    0.000000
      4          8           0        0.057207    3.036234    0.000000
      5          1           0       -0.512604    3.836748    0.000000
      6          1           0       -0.515243    2.237607    0.000000
 ---------------------------------------------------------------------

 SCF Done:  E(RHF) =  -152.107770633     A.U. after   10 cycles
 E2 =    -0.5258555264D+00 EUMP2 =    -0.15263362615934D+03
 CCSD(T)
 CCSD(T)= -0.15266083791D+03

 The electronic state is 1-A'.
 Alpha  occ. eigenvalues --  -20.55807 -20.55064  -1.33107  -1.32365  -0.70513
 Alpha  occ. eigenvalues --   -0.69761  -0.56571  -0.55820  -0.50221  -0.49481
 Alpha virt. eigenvalues --    0.13833   0.14681   0.19989   0.20803   0.54041
 Alpha virt. eigenvalues --    0.54800   0.56994   0.57724   0.67461   0.68486
 Alpha virt. eigenvalues --    0.78660   0.79386   0.80081   0.80728   0.82226

 Mulliken charges:
               1
     1  O   -0.511039
     2  H    0.254149
     3  H    0.256906
     4  O   -0.510524
     5  H    0.252138
     6  H    0.258370
 Sum of Mulliken charges =  -0.00000

 Dipole moment (field-independent basis, Debye):
    X=             -1.9647    Y=             -1.9985    Z=              0.0000  Tot=              2.8025
 Quadrupole moment (field-independent basis, Debye-Ang):
   XX=             -9.8640   YY=              1.8019   ZZ=            -14.7130
   XY=             -6.1202   XZ=              0.0000   YZ=              0.0000

 Normal termination of Gaussian 16 at Sat Aug 27 05:30:48 2022.
