 Gaussian 16, Revision A.03,
 Gaussian 16:  ES64L-G16RevA.03 25-Dec-2016

 ------------------
 #p CCSD(T)/cc-pVTZ
 ------------------

 ------------
 H2O_H2O_1204
 ------------
 Symbolic Z-matrix:
 Charge =  0 Multiplicity = 1

                         Standard orientation:
 ---------------------------------------------------------------------
 Center     Atomic      Atomic             Coordinates (Angstroms)
 Number     Number       Type             X           Y           Z
 ---------------------------------------------------------------------
      1          8           0        0.014784   -1.439703    0.000000
      2          1           0       -0.785291   -2.010129    0.000000
      3          1           0        0.813850   -2.011540    0.000000
      4          8           0        0.014784    1.443569    0.000000
      5          1           0        0.639960    2.201633    0.000000
      6          1           0       -0.905059    1.789108    0.000000
 ---------------------------------------------------------------------

 SCF Done:  E(RHF) =  -152.100306764     A.U. after   11 cycles
 E2 =    -0.5276760868D+00 EUMP2 =    -0.15262798285059D+03
 CCSD(T)
 CCSD(T)= -0.15265528581D+03

 The electronic state is 1-A'.
 Alpha  occ. eigenvalues --  -20.53770 -20.53672  -1.31218  -1.30881  -0.68616
 Alpha  occ. eigenvalues --   -0.68355  -0.55827  -0.52503  -0.48437  -0.47805
 Alpha virt. eigenvalues --    0.14378   0.16882   0.20544   0.22014   0.51507
 Alpha virt. eigenvalues --    0.58427   0.58707   0.60428   0.68225   0.76429
 Alpha virt. eigenvalues --    0.77372   0.78380   0.79112   0.83058   0.86157

 Mulliken charges:
               1
     1  O   -0.470589
     2  H    0.232510
     3  H    0.238025
     4  O   -0.468354
     5  H    0.231697
     6  H    0.236711
 Sum of Mulliken charges =  -0.00000

 Dipole moment (field-independent basis, Debye):
    X=             -0.4798    Y=             -0.0733    Z=              0.0000  Tot=              0.4853
 Quadrupole moment (field-independent basis, Debye-Ang):
   XX=             -8.0469   YY=             -1.0317   ZZ=            -14.7125
   XY=             -0.3112   XZ=              0.0000   YZ=              0.0000

 Normal termination of Gaussian 16 at Sat Aug 27 02:57:41 2022.
