 Gaussian 16, Revision A.03,
 Gaussian 16:  ES64L-G16RevA.03 25-Dec-2016

 ------------------
 #p CCSD(T)/cc-pVTZ
 ------------------

 -----------
 H2O_H2O_864
 -----------
 Symbolic Z-matrix:
 Charge =  0 Multiplicity = 1

                         Standard orientation:
 ---------------------------------------------------------------------
 Center     Atomic      Atomic             Coordinates (Angstroms)
 Number     Number       Type             X           Y           Z
 ---------------------------------------------------------------------
      1          8           0        0.045380   -1.231539    0.000000
      2          1           0       -0.755964   -1.800180    0.000000
      3          1           0        0.843171   -1.805155    0.000000
      4          8           0        0.045380    1.275946    0.000000
      5          1           0        0.082074    2.257862    0.000000
      6          1           0       -0.895365    0.992212    0.000000
 ---------------------------------------------------------------------

 SCF Done:  E(RHF) =  -152.097393672     A.U. after   11 cycles
 E2 =    -0.5292212614D+00 EUMP2 =    -0.15262661493308D+03
 CCSD(T)
 CCSD(T)= -0.15265380993D+03

 The electronic state is 1-A'.
 Alpha  occ. eigenvalues --  -20.54488 -20.52973  -1.32158  -1.30186  -0.69539
 Alpha  occ. eigenvalues --   -0.67924  -0.56443  -0.51894  -0.49331  -0.47133
 Alpha virt. eigenvalues --    0.13937   0.17437   0.20140   0.23403   0.53288
 Alpha virt. eigenvalues --    0.57758   0.58256   0.60187   0.70718   0.75558
 Alpha virt. eigenvalues --    0.77611   0.79214   0.83233   0.84911   0.85402

 Mulliken charges:
               1
     1  O   -0.470255
     2  H    0.228153
     3  H    0.246140
     4  O   -0.462543
     5  H    0.212944
     6  H    0.245562
 Sum of Mulliken charges =  -0.00000

 Dipole moment (field-independent basis, Debye):
    X=             -1.4188    Y=             -0.8724    Z=              0.0000  Tot=              1.6656
 Quadrupole moment (field-independent basis, Debye-Ang):
   XX=             -9.1928   YY=             -3.3680   ZZ=            -14.7241
   XY=             -1.2496   XZ=              0.0000   YZ=              0.0000

 Normal termination of Gaussian 16 at Fri Aug 26 20:40:50 2022.
