 Gaussian 16, Revision A.03,
 Gaussian 16:  ES64L-G16RevA.03 25-Dec-2016

 ------------------
 #p CCSD(T)/cc-pVTZ
 ------------------

 -----------
 H2O_H2O_622
 -----------
 Symbolic Z-matrix:
 Charge =  0 Multiplicity = 1

                         Standard orientation:
 ---------------------------------------------------------------------
 Center     Atomic      Atomic             Coordinates (Angstroms)
 Number     Number       Type             X           Y           Z
 ---------------------------------------------------------------------
      1          8           0        0.056840   -1.069025    0.000000
      2          1           0       -0.745212   -1.636667    0.000000
      3          1           0        0.853915   -1.643637    0.000000
      4          8           0        0.056840    1.167848    0.000000
      5          1           0       -0.401256    2.037132    0.000000
      6          1           0       -0.616894    0.452594    0.000000
 ---------------------------------------------------------------------

 SCF Done:  E(RHF) =  -152.084074802     A.U. after   11 cycles
 E2 =    -0.5331733744D+00 EUMP2 =    -0.15261724817684D+03
 CCSD(T)
 CCSD(T)= -0.15264392029D+03

 The electronic state is 1-A'.
 Alpha  occ. eigenvalues --  -20.56545 -20.50898  -1.35235  -1.28521  -0.72600
 Alpha  occ. eigenvalues --   -0.69268  -0.54394  -0.52209  -0.51980  -0.45517
 Alpha virt. eigenvalues --    0.13033   0.18649   0.19292   0.26530   0.50211
 Alpha virt. eigenvalues --    0.55624   0.61435   0.63913   0.71841   0.73936
 Alpha virt. eigenvalues --    0.77339   0.82027   0.83649   0.84459   0.87164

 Mulliken charges:
               1
     1  O   -0.426900
     2  H    0.219643
     3  H    0.245450
     4  O   -0.504032
     5  H    0.204103
     6  H    0.261736
 Sum of Mulliken charges =  -0.00000

 Dipole moment (field-independent basis, Debye):
    X=             -1.7174    Y=             -2.2015    Z=              0.0000  Tot=              2.7921
 Quadrupole moment (field-independent basis, Debye-Ang):
   XX=             -9.8296   YY=             -5.9209   ZZ=            -14.6914
   XY=             -2.2701   XZ=              0.0000   YZ=              0.0000

 Normal termination of Gaussian 16 at Fri Aug 26 18:20:14 2022.
