 Gaussian 16, Revision A.03,
 Gaussian 16:  ES64L-G16RevA.03 25-Dec-2016

 ------------------
 #p CCSD(T)/cc-pVTZ
 ------------------

 -----------
 H2O_H2O_656
 -----------
 Symbolic Z-matrix:
 Charge =  0 Multiplicity = 1

                         Standard orientation:
 ---------------------------------------------------------------------
 Center     Atomic      Atomic             Coordinates (Angstroms)
 Number     Number       Type             X           Y           Z
 ---------------------------------------------------------------------
      1          8           0        0.021863   -1.144608    0.000000
      2          1           0       -0.778642   -1.714430    0.000000
      3          1           0        0.820498   -1.717049    0.000000
      4          8           0        0.021863    1.153232    0.000000
      5          1           0        0.543373    1.986019    0.000000
      6          1           0       -0.935042    1.376473    0.000000
 ---------------------------------------------------------------------

 SCF Done:  E(RHF) =  -152.083871697     A.U. after   11 cycles
 E2 =    -0.5307653701D+00 EUMP2 =    -0.15261463706660D+03
 CCSD(T)
 CCSD(T)= -0.15264183847D+03

 The electronic state is 1-A'.
 Alpha  occ. eigenvalues --  -20.52903 -20.52633  -1.31283  -1.29658  -0.68445
 Alpha  occ. eigenvalues --   -0.67382  -0.58004  -0.48589  -0.48447  -0.46324
 Alpha virt. eigenvalues --    0.14486   0.17734   0.20503   0.22710   0.51213
 Alpha virt. eigenvalues --    0.58775   0.58850   0.63735   0.71112   0.76673
 Alpha virt. eigenvalues --    0.77383   0.81014   0.84080   0.86454   0.87064

 Mulliken charges:
               1
     1  O   -0.456419
     2  H    0.221725
     3  H    0.233009
     4  O   -0.443136
     5  H    0.210858
     6  H    0.233962
 Sum of Mulliken charges =  -0.00000

 Dipole moment (field-independent basis, Debye):
    X=             -0.6673    Y=             -0.1706    Z=              0.0000  Tot=              0.6887
 Quadrupole moment (field-independent basis, Debye-Ang):
   XX=             -8.3146   YY=             -3.9577   ZZ=            -14.7336
   XY=             -0.3025   XZ=              0.0000   YZ=              0.0000

 Normal termination of Gaussian 16 at Fri Aug 26 18:44:26 2022.
