 Gaussian 16, Revision A.03,
 Gaussian 16:  ES64L-G16RevA.03 25-Dec-2016

 ------------------
 #p CCSD(T)/cc-pVTZ
 ------------------

 ------------
 H2O_H2O_1564
 ------------
 Symbolic Z-matrix:
 Charge =  0 Multiplicity = 1

                         Standard orientation:
 ---------------------------------------------------------------------
 Center     Atomic      Atomic             Coordinates (Angstroms)
 Number     Number       Type             X           Y           Z
 ---------------------------------------------------------------------
      1          8           0        0.045364   -1.603790    0.000000
      2          1           0       -0.755574   -2.173002    0.000000
      3          1           0        0.843563   -2.176838    0.000000
      4          8           0        0.045364    1.648262    0.000000
      5          1           0        0.081359    2.630205    0.000000
      6          1           0       -0.895179    1.363859    0.000000
 ---------------------------------------------------------------------

 SCF Done:  E(RHF) =  -152.105437644     A.U. after   10 cycles
 E2 =    -0.5269149290D+00 EUMP2 =    -0.15263235257347D+03
 CCSD(T)
 CCSD(T)= -0.15265955705D+03

 The electronic state is 1-A'.
 Alpha  occ. eigenvalues --  -20.55008 -20.53953  -1.32294  -1.31210  -0.69718
 Alpha  occ. eigenvalues --   -0.68601  -0.55810  -0.54332  -0.49408  -0.48310
 Alpha virt. eigenvalues --    0.13759   0.16546   0.20195   0.22477   0.53801
 Alpha virt. eigenvalues --    0.55623   0.57659   0.58585   0.64924   0.76602
 Alpha virt. eigenvalues --    0.77915   0.78299   0.78916   0.81709   0.85247

 Mulliken charges:
               1
     1  O   -0.486815
     2  H    0.239109
     3  H    0.250508
     4  O   -0.489390
     5  H    0.234971
     6  H    0.251617
 Sum of Mulliken charges =  -0.00000

 Dipole moment (field-independent basis, Debye):
    X=             -1.4975    Y=             -0.8390    Z=              0.0000  Tot=              1.7165
 Quadrupole moment (field-independent basis, Debye-Ang):
   XX=             -9.1308   YY=             -0.5330   ZZ=            -14.7145
   XY=             -1.7942   XZ=              0.0000   YZ=              0.0000

 648904\MP4DQ=-152.64128\MP4SDQ=-152.6443989\CCSD=-152.6437831\CCSD(T)=
 Normal termination of Gaussian 16 at Sat Aug 27 05:29:47 2022.
