 Gaussian 16, Revision A.03,
 Gaussian 16:  ES64L-G16RevA.03 25-Dec-2016

 ------------------
 #p CCSD(T)/cc-pVTZ
 ------------------

 ------------
 H2O_H2O_2691
 ------------
 Symbolic Z-matrix:
 Charge =  0 Multiplicity = 1

                         Standard orientation:
 ---------------------------------------------------------------------
 Center     Atomic      Atomic             Coordinates (Angstroms)
 Number     Number       Type             X           Y           Z
 ---------------------------------------------------------------------
      1          8           0        0.049516   -2.195345    0.000000
      2          1           0       -0.751147   -2.764945    0.000000
      3          1           0        0.847992   -2.768007    0.000000
      4          8           0        0.049516    2.252269    0.000000
      5          1           0       -0.043440    3.230464    0.000000
      6          1           0       -0.845661    1.847099    0.000000
 ---------------------------------------------------------------------

 SCF Done:  E(RHF) =  -152.106973709     A.U. after   10 cycles
 E2 =    -0.5260488537D+00 EUMP2 =    -0.15263302256307D+03
 CCSD(T)
 CCSD(T)= -0.15266023914D+03

 The electronic state is 1-A'.
 Alpha  occ. eigenvalues --  -20.55381 -20.54670  -1.32671  -1.31959  -0.70081
 Alpha  occ. eigenvalues --   -0.69347  -0.56090  -0.55380  -0.49779  -0.49072
 Alpha virt. eigenvalues --    0.13662   0.15422   0.20198   0.21333   0.54129
 Alpha virt. eigenvalues --    0.54950   0.57385   0.58005   0.66114   0.72307
 Alpha virt. eigenvalues --    0.79087   0.79808   0.80170   0.81662   0.82931

 Mulliken charges:
               1
     1  O   -0.505025
     2  H    0.249780
     3  H    0.255704
     4  O   -0.505187
     5  H    0.247592
     6  H    0.257136
 Sum of Mulliken charges =   0.00000

 Dipole moment (field-independent basis, Debye):
    X=             -1.6843    Y=             -1.0201    Z=              0.0000  Tot=              1.9692
 Quadrupole moment (field-independent basis, Debye-Ang):
   XX=             -9.3480   YY=              2.7551   ZZ=            -14.7123
   XY=             -3.1407   XZ=              0.0000   YZ=              0.0000

 Normal termination of Gaussian 16 at Fri Aug 26 15:08:28 2022.
