 Gaussian 16, Revision A.03,
 Gaussian 16:  ES64L-G16RevA.03 25-Dec-2016

 ------------------
 #p CCSD(T)/cc-pVTZ
 ------------------

 ------------
 H2O_H2O_1506
 ------------
 Symbolic Z-matrix:
 Charge =  0 Multiplicity = 1

                         Standard orientation:
 ---------------------------------------------------------------------
 Center     Atomic      Atomic             Coordinates (Angstroms)
 Number     Number       Type             X           Y           Z
 ---------------------------------------------------------------------
      1          8           0        0.021861   -1.596658    0.000000
      2          1           0       -0.778380   -2.166850    0.000000
      3          1           0        0.820761   -2.168730    0.000000
      4          8           0        0.021861    1.605302    0.000000
      5          1           0        0.542986    2.438330    0.000000
      6          1           0       -0.935147    1.828102    0.000000
 ---------------------------------------------------------------------

 SCF Done:  E(RHF) =  -152.103143316     A.U. after   10 cycles
 E2 =    -0.5270324863D+00 EUMP2 =    -0.15263017580189D+03
 CCSD(T)
 CCSD(T)= -0.15265744145D+03

 The electronic state is 1-A'.
 Alpha  occ. eigenvalues --  -20.54211 -20.54017  -1.31520  -1.31275  -0.68944
 Alpha  occ. eigenvalues --   -0.68704  -0.55485  -0.53730  -0.48671  -0.48302
 Alpha virt. eigenvalues --    0.14221   0.16471   0.20518   0.21782   0.52538
 Alpha virt. eigenvalues --    0.57985   0.58181   0.58696   0.63969   0.76727
 Alpha virt. eigenvalues --    0.78241   0.78504   0.79478   0.82067   0.85820

 Mulliken charges:
               1
     1  O   -0.479338
     2  H    0.236770
     3  H    0.242929
     4  O   -0.478296
     5  H    0.235689
     6  H    0.242246
 Sum of Mulliken charges =  -0.00000

 Dipole moment (field-independent basis, Debye):
    X=             -0.7218    Y=             -0.1623    Z=              0.0000  Tot=              0.7398
 Quadrupole moment (field-independent basis, Debye-Ang):
   XX=             -8.1718   YY=              0.2850   ZZ=            -14.7099
   XY=             -0.6035   XZ=              0.0000   YZ=              0.0000

 Normal termination of Gaussian 16 at Sat Aug 27 05:10:10 2022.
