 Gaussian 16, Revision A.03,
 Gaussian 16:  ES64L-G16RevA.03 25-Dec-2016

 ------------------
 #p CCSD(T)/cc-pVTZ
 ------------------

 -----------
 H2O_H2O_549
 -----------
 Symbolic Z-matrix:
 Charge =  0 Multiplicity = 1

                         Standard orientation:
 ---------------------------------------------------------------------
 Center     Atomic      Atomic             Coordinates (Angstroms)
 Number     Number       Type             X           Y           Z
 ---------------------------------------------------------------------
      1          8           0        0.057373   -1.021056    0.000000
      2          1           0       -0.744795   -1.588535    0.000000
      3          1           0        0.854331   -1.595829    0.000000
      4          8           0        0.057373    1.134760    0.000000
      5          1           0       -0.510106    1.936928    0.000000
      6          1           0       -0.517400    0.337801    0.000000
 ---------------------------------------------------------------------

 SCF Done:  E(RHF) =  -152.072030008     A.U. after   11 cycles
 E2 =    -0.5351794183D+00 EUMP2 =    -0.15260720942635D+03
 CCSD(T)
 CCSD(T)= -0.15263348801D+03

 The electronic state is 1-A'.
 Alpha  occ. eigenvalues --  -20.57523 -20.49488  -1.36928  -1.27567  -0.74267
 Alpha  occ. eigenvalues --   -0.70605  -0.53506  -0.53314  -0.51149  -0.44515
 Alpha virt. eigenvalues --    0.12606   0.18584   0.19439   0.27967   0.49006
 Alpha virt. eigenvalues --    0.54654   0.62340   0.66792   0.71697   0.73871
 Alpha virt. eigenvalues --    0.76492   0.80905   0.83537   0.84803   0.87209

 Mulliken charges:
               1
     1  O   -0.396500
     2  H    0.216945
     3  H    0.245560
     4  O   -0.535167
     5  H    0.200892
     6  H    0.268270
 Sum of Mulliken charges =  -0.00000

 Dipole moment (field-independent basis, Debye):
    X=             -1.7079    Y=             -2.7312    Z=              0.0000  Tot=              3.2212
 Quadrupole moment (field-independent basis, Debye-Ang):
   XX=             -9.8282   YY=             -6.7762   ZZ=            -14.6586
   XY=             -2.4716   XZ=              0.0000   YZ=              0.0000

 226\MP4DQ=-152.6140376\MP4SDQ=-152.6173949\CCSD=-152.6166742\CCSD(T)=-
 Normal termination of Gaussian 16 at Fri Aug 26 17:33:02 2022.
