 Gaussian 16, Revision A.03,
 Gaussian 16:  ES64L-G16RevA.03 25-Dec-2016

 ------------------
 #p CCSD(T)/cc-pVTZ
 ------------------

 ------------
 H2O_H2O_3594
 ------------
 Symbolic Z-matrix:
 Charge =  0 Multiplicity = 1

                         Standard orientation:
 ---------------------------------------------------------------------
 Center     Atomic      Atomic             Coordinates (Angstroms)
 Number     Number       Type             X           Y           Z
 ---------------------------------------------------------------------
      1          8           0        0.054149   -2.662920    0.000000
      2          1           0       -0.746405   -3.232673    0.000000
      3          1           0        0.852735   -3.235429    0.000000
      4          8           0        0.054149    2.740243    0.000000
      5          1           0       -0.228039    3.681454    0.000000
      6          1           0       -0.744674    2.168065    0.000000
 ---------------------------------------------------------------------

 SCF Done:  E(RHF) =  -152.107417568     A.U. after   10 cycles
 E2 =    -0.5259060903D+00 EUMP2 =    -0.15263332365834D+03
 CCSD(T)
 CCSD(T)= -0.15266054124D+03

 The electronic state is 1-A'.
 Alpha  occ. eigenvalues --  -20.55592 -20.54964  -1.32890  -1.32261  -0.70297
 Alpha  occ. eigenvalues --   -0.69655  -0.56338  -0.55704  -0.50002  -0.49375
 Alpha virt. eigenvalues --    0.13916   0.14828   0.20136   0.20881   0.54240
 Alpha virt. eigenvalues --    0.54898   0.57183   0.57783   0.67468   0.68945
 Alpha virt. eigenvalues --    0.78880   0.79493   0.80283   0.80754   0.82591

 Mulliken charges:
               1
     1  O   -0.508911
     2  H    0.252609
     3  H    0.256349
     4  O   -0.508441
     5  H    0.250731
     6  H    0.257662
 Sum of Mulliken charges =  -0.00000

 Dipole moment (field-independent basis, Debye):
    X=             -1.8557    Y=             -1.3617    Z=              0.0000  Tot=              2.3017
 Quadrupole moment (field-independent basis, Debye-Ang):
   XX=             -9.6479   YY=              3.9988   ZZ=            -14.7123
   XY=             -4.6564   XZ=              0.0000   YZ=              0.0000

 Normal termination of Gaussian 16 at Sat Aug 27 01:45:33 2022.
