 Gaussian 16, Revision A.03,
 Gaussian 16:  ES64L-G16RevA.03 25-Dec-2016

 ------------------
 #p CCSD(T)/cc-pVTZ
 ------------------

 -----------
 H2O_H2O_180
 -----------
 Symbolic Z-matrix:
 Charge =  0 Multiplicity = 1

                         Standard orientation:
 ---------------------------------------------------------------------
 Center     Atomic      Atomic             Coordinates (Angstroms)
 Number     Number       Type             X           Y           Z
 ---------------------------------------------------------------------
      1          8           0        0.018364   -0.893412    0.000000
      2          1           0       -0.782213   -1.463134    0.000000
      3          1           0        0.816926   -1.465953    0.000000
      4          8           0        0.018364    0.899410    0.000000
      5          1           0        0.593324    1.696232    0.000000
      6          1           0       -0.921856    1.184876    0.000000
 ---------------------------------------------------------------------

 SCF Done:  E(RHF) =  -151.998342540     A.U. after   11 cycles
 E2 =    -0.5419406553D+00 EUMP2 =    -0.15254028319555D+03
 CCSD(T)
 CCSD(T)= -0.15256622793D+03

 The electronic state is 1-A'.
 Alpha  occ. eigenvalues --  -20.51480 -20.51305  -1.33910  -1.27539  -0.69747
 Alpha  occ. eigenvalues --   -0.66715  -0.63287  -0.50708  -0.43866  -0.38737
 Alpha virt. eigenvalues --    0.14558   0.18942   0.20151   0.23151   0.51369
 Alpha virt. eigenvalues --    0.58394   0.59066   0.66308   0.69140   0.78804
 Alpha virt. eigenvalues --    0.79781   0.83577   0.84057   0.86206   0.88013

 Mulliken charges:
               1
     1  O   -0.398837
     2  H    0.191755
     3  H    0.206440
     4  O   -0.382108
     5  H    0.164036
     6  H    0.218714
 Sum of Mulliken charges =  -0.00000

 Dipole moment (field-independent basis, Debye):
    X=             -0.5211    Y=             -0.1433    Z=              0.0000  Tot=              0.5405
 Quadrupole moment (field-independent basis, Debye-Ang):
   XX=             -8.4726   YY=             -7.3839   ZZ=            -14.7485
   XY=             -0.1999   XZ=              0.0000   YZ=              0.0000

 Normal termination of Gaussian 16 at Fri Aug 26 13:42:08 2022.
