 Gaussian 16, Revision A.03,
 Gaussian 16:  ES64L-G16RevA.03 25-Dec-2016

 ------------------
 #p CCSD(T)/cc-pVTZ
 ------------------

 ------------
 H2O_H2O_1765
 ------------
 Symbolic Z-matrix:
 Charge =  0 Multiplicity = 1

                         Standard orientation:
 ---------------------------------------------------------------------
 Center     Atomic      Atomic             Coordinates (Angstroms)
 Number     Number       Type             X           Y           Z
 ---------------------------------------------------------------------
      1          8           0        0.047548   -1.706862    0.000000
      2          1           0       -0.753369   -2.276105    0.000000
      3          1           0        0.845769   -2.279879    0.000000
      4          8           0        0.047548    1.757403    0.000000
      5          1           0        0.019205    2.739596    0.000000
      6          1           0       -0.872367    1.412058    0.000000
 ---------------------------------------------------------------------

 SCF Done:  E(RHF) =  -152.106222666     A.U. after   10 cycles
 E2 =    -0.5266334605D+00 EUMP2 =    -0.15263285612692D+03
 CCSD(T)
 CCSD(T)= -0.15266005144D+03

 The electronic state is 1-A'.
 Alpha  occ. eigenvalues --  -20.55192 -20.54111  -1.32468  -1.31376  -0.69888
 Alpha  occ. eigenvalues --   -0.68757  -0.55895  -0.54666  -0.49578  -0.48487
 Alpha virt. eigenvalues --    0.13625   0.16353   0.20161   0.22364   0.53733
 Alpha virt. eigenvalues --    0.54923   0.57531   0.58576   0.64367   0.76665
 Alpha virt. eigenvalues --    0.78369   0.78411   0.79388   0.81120   0.85111

 Mulliken charges:
               1
     1  O   -0.492058
     2  H    0.242134
     3  H    0.252499
     4  O   -0.495802
     5  H    0.238803
     6  H    0.254424
 Sum of Mulliken charges =  -0.00000

 Dipole moment (field-independent basis, Debye):
    X=             -1.5830    Y=             -0.9441    Z=              0.0000  Tot=              1.8431
 Quadrupole moment (field-independent basis, Debye-Ang):
   XX=             -9.2453   YY=             -0.0310   ZZ=            -14.7142
   XY=             -2.1377   XZ=              0.0000   YZ=              0.0000

 Normal termination of Gaussian 16 at Sat Aug 27 06:39:51 2022.
