 Gaussian 16, Revision A.03,
 Gaussian 16:  ES64L-G16RevA.03 25-Dec-2016

 ------------------
 #p CCSD(T)/cc-pVTZ
 ------------------

 ------------
 H2O_H2O_3748
 ------------
 Symbolic Z-matrix:
 Charge =  0 Multiplicity = 1

                         Standard orientation:
 ---------------------------------------------------------------------
 Center     Atomic      Atomic             Coordinates (Angstroms)
 Number     Number       Type             X           Y           Z
 ---------------------------------------------------------------------
      1          8           0        0.057085   -2.726822    0.000000
      2          1           0       -0.743493   -3.296542    0.000000
      3          1           0        0.855647   -3.299364    0.000000
      4          8           0        0.057085    2.833376    0.000000
      5          1           0       -0.459055    3.669501    0.000000
      6          1           0       -0.566460    2.073969    0.000000
 ---------------------------------------------------------------------

 SCF Done:  E(RHF) =  -152.107775421     A.U. after   10 cycles
 E2 =    -0.5258708168D+00 EUMP2 =    -0.15263364623789D+03
 CCSD(T)
 CCSD(T)= -0.15266085633D+03

 The electronic state is 1-A'.
 Alpha  occ. eigenvalues --  -20.55790 -20.54978  -1.33090  -1.32278  -0.70495
 Alpha  occ. eigenvalues --   -0.69672  -0.56554  -0.55733  -0.50204  -0.49395
 Alpha virt. eigenvalues --    0.13751   0.14827   0.19998   0.20926   0.54050
 Alpha virt. eigenvalues --    0.54864   0.57012   0.57781   0.67285   0.68798
 Alpha virt. eigenvalues --    0.78680   0.79470   0.80082   0.80569   0.82577

 Mulliken charges:
               1
     1  O   -0.510989
     2  H    0.253806
     3  H    0.257245
     4  O   -0.510408
     5  H    0.251462
     6  H    0.258883
 Sum of Mulliken charges =  -0.00000

 Dipole moment (field-independent basis, Debye):
    X=             -1.9579    Y=             -1.8747    Z=              0.0000  Tot=              2.7107
 Quadrupole moment (field-independent basis, Debye-Ang):
   XX=             -9.8541   YY=              1.7357   ZZ=            -14.7131
   XY=             -5.5851   XZ=              0.0000   YZ=              0.0000

 Normal termination of Gaussian 16 at Sat Aug 27 02:58:08 2022.
