 Gaussian 16, Revision A.03,
 Gaussian 16:  ES64L-G16RevA.03 25-Dec-2016

 ------------------
 #p CCSD(T)/cc-pVTZ
 ------------------

 ------------
 H2O_H2O_1623
 ------------
 Symbolic Z-matrix:
 Charge =  0 Multiplicity = 1

                         Standard orientation:
 ---------------------------------------------------------------------
 Center     Atomic      Atomic             Coordinates (Angstroms)
 Number     Number       Type             X           Y           Z
 ---------------------------------------------------------------------
      1          8           0        0.057149   -1.596741    0.000000
      2          1           0       -0.744116   -2.165493    0.000000
      3          1           0        0.855019   -2.170248    0.000000
      4          8           0        0.057149    1.703157    0.000000
      5          1           0       -0.457980    2.539906    0.000000
      6          1           0       -0.567313    0.944505    0.000000
 ---------------------------------------------------------------------

 SCF Done:  E(RHF) =  -152.109529569     A.U. after   10 cycles
 E2 =    -0.5268369213D+00 EUMP2 =    -0.15263636649041D+03
 CCSD(T)
 CCSD(T)= -0.15266347034D+03

 The electronic state is 1-A'.
 Alpha  occ. eigenvalues --  -20.56427 -20.53603  -1.33703  -1.30916  -0.71103
 Alpha  occ. eigenvalues --   -0.68333  -0.57162  -0.54406  -0.50825  -0.48052
 Alpha virt. eigenvalues --    0.12967   0.16929   0.19632   0.24961   0.52651
 Alpha virt. eigenvalues --    0.55586   0.56642   0.58157   0.67610   0.75416
 Alpha virt. eigenvalues --    0.76544   0.76576   0.80295   0.81314   0.84164

 Mulliken charges:
               1
     1  O   -0.496219
     2  H    0.246864
     3  H    0.259497
     4  O   -0.515440
     5  H    0.240651
     6  H    0.264647
 Sum of Mulliken charges =  -0.00000

 Dipole moment (field-independent basis, Debye):
    X=             -1.8948    Y=             -2.0509    Z=              0.0000  Tot=              2.7923
 Quadrupole moment (field-independent basis, Debye-Ang):
   XX=             -9.8525   YY=             -3.1566   ZZ=            -14.7238
   XY=             -3.4186   XZ=              0.0000   YZ=              0.0000

 Normal termination of Gaussian 16 at Sat Aug 27 05:50:18 2022.
