 Gaussian 16, Revision A.03,
 Gaussian 16:  ES64L-G16RevA.03 25-Dec-2016

 ------------------
 #p CCSD(T)/cc-pVTZ
 ------------------

 ------------
 H2O_H2O_2525
 ------------
 Symbolic Z-matrix:
 Charge =  0 Multiplicity = 1

                         Standard orientation:
 ---------------------------------------------------------------------
 Center     Atomic      Atomic             Coordinates (Angstroms)
 Number     Number       Type             X           Y           Z
 ---------------------------------------------------------------------
      1          8           0        0.000000   -0.000000    2.146486
      2          1           0        0.000000    0.799571    2.717618
      3          1           0       -0.000000   -0.799571    2.717618
      4          8           0        0.000000   -0.000000   -2.146486
      5          1           0       -0.000000   -0.799571   -2.717618
      6          1           0        0.000000    0.799571   -2.717618
 ---------------------------------------------------------------------

 SCF Done:  E(RHF) =  -152.105485472     A.U. after   10 cycles
 E2 =    -0.5261690401D+00 EUMP2 =    -0.15263165451198D+03
 CCSD(T)
 CCSD(T)= -0.15265890494D+03

 The electronic state is 1-AG.
 Alpha  occ. eigenvalues --  -20.54686 -20.54686  -1.31977  -1.31971  -0.69392
 Alpha  occ. eigenvalues --   -0.69384  -0.55414  -0.55224  -0.49083  -0.49061
 Alpha virt. eigenvalues --    0.14294   0.15343   0.20639   0.20965   0.54683
 Alpha virt. eigenvalues --    0.55699   0.57850   0.58026   0.64248   0.73164
 Alpha virt. eigenvalues --    0.79621   0.79974   0.81148   0.81393   0.81852

 Mulliken charges:
               1
     1  O   -0.497160
     2  H    0.248580
     3  H    0.248580
     4  O   -0.497160
     5  H    0.248580
     6  H    0.248580
 Sum of Mulliken charges =  -0.00000

 Dipole moment (field-independent basis, Debye):
    X=             -0.0000    Y=              0.0000    Z=             -0.0000  Tot=              0.0000
 Quadrupole moment (field-independent basis, Debye-Ang):
   XX=            -14.7094   YY=             -7.8277   ZZ=              5.0586
   XY=              0.0000   XZ=              0.0000   YZ=             -0.0000

 MP4DQ=-152.6407541\MP4SDQ=-152.64383\CCSD=-152.6432349\CCSD(T)=-152.65
 Normal termination of Gaussian 16 at Fri Aug 26 13:21:17 2022.
