 Gaussian 16, Revision A.03,
 Gaussian 16:  ES64L-G16RevA.03 25-Dec-2016

 ------------------
 #p CCSD(T)/cc-pVTZ
 ------------------

 ------------
 H2O_H2O_1509
 ------------
 Symbolic Z-matrix:
 Charge =  0 Multiplicity = 1

                         Standard orientation:
 ---------------------------------------------------------------------
 Center     Atomic      Atomic             Coordinates (Angstroms)
 Number     Number       Type             X           Y           Z
 ---------------------------------------------------------------------
      1          8           0        0.031747   -1.590956    0.000000
      2          1           0       -0.768798   -2.160723    0.000000
      3          1           0        0.830342   -2.163452    0.000000
      4          8           0        0.031747    1.610099    0.000000
      5          1           0        0.380830    2.528601    0.000000
      6          1           0       -0.950322    1.642435    0.000000
 ---------------------------------------------------------------------

 SCF Done:  E(RHF) =  -152.103758924     A.U. after   10 cycles
 E2 =    -0.5270225715D+00 EUMP2 =    -0.15263078149558D+03
 CCSD(T)
 CCSD(T)= -0.15265802933D+03

 The electronic state is 1-A'.
 Alpha  occ. eigenvalues --  -20.54433 -20.53994  -1.31731  -1.31253  -0.69157
 Alpha  occ. eigenvalues --   -0.68667  -0.55558  -0.53908  -0.48861  -0.48312
 Alpha virt. eigenvalues --    0.14083   0.16496   0.20429   0.21961   0.52873
 Alpha virt. eigenvalues --    0.57216   0.58069   0.58726   0.64475   0.76959
 Alpha virt. eigenvalues --    0.78120   0.78821   0.79141   0.82008   0.85696

 Mulliken charges:
               1
     1  O   -0.481625
     2  H    0.236893
     3  H    0.245648
     4  O   -0.480331
     5  H    0.234390
     6  H    0.245026
 Sum of Mulliken charges =  -0.00000

 Dipole moment (field-independent basis, Debye):
    X=             -1.0471    Y=             -0.3600    Z=              0.0000  Tot=              1.1072
 Quadrupole moment (field-independent basis, Debye-Ang):
   XX=             -8.4953   YY=              0.0304   ZZ=            -14.7112
   XY=             -0.9787   XZ=              0.0000   YZ=              0.0000

 Normal termination of Gaussian 16 at Sat Aug 27 05:11:12 2022.
