 Gaussian 16, Revision A.03,
 Gaussian 16:  ES64L-G16RevA.03 25-Dec-2016

 ------------------
 #p CCSD(T)/cc-pVTZ
 ------------------

 ------------
 H2O_H2O_1460
 ------------
 Symbolic Z-matrix:
 Charge =  0 Multiplicity = 1

                         Standard orientation:
 ---------------------------------------------------------------------
 Center     Atomic      Atomic             Coordinates (Angstroms)
 Number     Number       Type             X           Y           Z
 ---------------------------------------------------------------------
      1          8           0        0.034791   -1.562012    0.000000
      2          1           0       -0.765865   -2.131623    0.000000
      3          1           0        0.833274   -2.134664    0.000000
      4          8           0        0.034791    1.585484    0.000000
      5          1           0        0.323238    2.524796    0.000000
      6          1           0       -0.947298    1.553714    0.000000
 ---------------------------------------------------------------------

 SCF Done:  E(RHF) =  -152.103763753     A.U. after   10 cycles
 E2 =    -0.5271055546D+00 EUMP2 =    -0.15263086930814D+03
 CCSD(T)
 CCSD(T)= -0.15265811274D+03

 The electronic state is 1-A'.
 Alpha  occ. eigenvalues --  -20.54490 -20.53932  -1.31792  -1.31188  -0.69218
 Alpha  occ. eigenvalues --   -0.68601  -0.55622  -0.53845  -0.48922  -0.48249
 Alpha virt. eigenvalues --    0.14045   0.16569   0.20388   0.22103   0.53013
 Alpha virt. eigenvalues --    0.57198   0.58031   0.58770   0.65030   0.76818
 Alpha virt. eigenvalues --    0.77912   0.78674   0.79168   0.82143   0.85646

 Mulliken charges:
               1
     1  O   -0.481365
     2  H    0.236355
     3  H    0.246205
     4  O   -0.479724
     5  H    0.233018
     6  H    0.245511
 Sum of Mulliken charges =   0.00000

 Dipole moment (field-independent basis, Debye):
    X=             -1.1441    Y=             -0.4428    Z=              0.0000  Tot=              1.2268
 Quadrupole moment (field-independent basis, Debye-Ang):
   XX=             -8.6227   YY=             -0.2961   ZZ=            -14.7121
   XY=             -1.0888   XZ=              0.0000   YZ=              0.0000

 Normal termination of Gaussian 16 at Sat Aug 27 04:53:19 2022.
