 Gaussian 16, Revision A.03,
 Gaussian 16:  ES64L-G16RevA.03 25-Dec-2016

 ------------------
 #p CCSD(T)/cc-pVTZ
 ------------------

 -----------
 H2O_H2O_838
 -----------
 Symbolic Z-matrix:
 Charge =  0 Multiplicity = 1

                         Standard orientation:
 ---------------------------------------------------------------------
 Center     Atomic      Atomic             Coordinates (Angstroms)
 Number     Number       Type             X           Y           Z
 ---------------------------------------------------------------------
      1          8           0        0.042998   -1.221367    0.000000
      2          1           0       -0.758271   -1.790114    0.000000
      3          1           0        0.840864   -1.794878    0.000000
      4          8           0        0.042998    1.260022    0.000000
      5          1           0        0.143704    2.237450    0.000000
      6          1           0       -0.914261    1.038297    0.000000
 ---------------------------------------------------------------------

 SCF Done:  E(RHF) =  -152.096064121     A.U. after   11 cycles
 E2 =    -0.5293540955D+00 EUMP2 =    -0.15262541821699D+03
 CCSD(T)
 CCSD(T)= -0.15265262387D+03

 The electronic state is 1-A'.
 Alpha  occ. eigenvalues --  -20.54263 -20.52964  -1.31982  -1.30164  -0.69348
 Alpha  occ. eigenvalues --   -0.67890  -0.56586  -0.51498  -0.49176  -0.47076
 Alpha virt. eigenvalues --    0.14028   0.17432   0.20201   0.23266   0.53248
 Alpha virt. eigenvalues --    0.57893   0.58178   0.60579   0.70667   0.75717
 Alpha virt. eigenvalues --    0.77595   0.79266   0.83346   0.85563   0.85611

 Mulliken charges:
               1
     1  O   -0.469241
     2  H    0.227070
     3  H    0.244774
     4  O   -0.457931
     5  H    0.211505
     6  H    0.243822
 Sum of Mulliken charges =  -0.00000

 Dipole moment (field-independent basis, Debye):
    X=             -1.3405    Y=             -0.7579    Z=              0.0000  Tot=              1.5399
 Quadrupole moment (field-independent basis, Debye-Ang):
   XX=             -9.0745   YY=             -3.3740   ZZ=            -14.7244
   XY=             -1.0901   XZ=              0.0000   YZ=              0.0000

 Normal termination of Gaussian 16 at Fri Aug 26 20:27:45 2022.
