 Gaussian 16, Revision A.03,
 Gaussian 16:  ES64L-G16RevA.03 25-Dec-2016

 ------------------
 #p CCSD(T)/cc-pVTZ
 ------------------

 ------------
 H2O_H2O_1306
 ------------
 Symbolic Z-matrix:
 Charge =  0 Multiplicity = 1

                         Standard orientation:
 ---------------------------------------------------------------------
 Center     Atomic      Atomic             Coordinates (Angstroms)
 Number     Number       Type             X           Y           Z
 ---------------------------------------------------------------------
      1          8           0        0.021862   -1.490293    0.000000
      2          1           0       -0.778428   -2.060418    0.000000
      3          1           0        0.820713   -2.062431    0.000000
      4          8           0        0.021862    1.498933    0.000000
      5          1           0        0.543056    2.331918    0.000000
      6          1           0       -0.935128    1.721812    0.000000
 ---------------------------------------------------------------------

 SCF Done:  E(RHF) =  -152.101722694     A.U. after   11 cycles
 E2 =    -0.5274219204D+00 EUMP2 =    -0.15262914461445D+03
 CCSD(T)
 CCSD(T)= -0.15265642824D+03

 The electronic state is 1-A'.
 Alpha  occ. eigenvalues --  -20.54010 -20.53797  -1.31374  -1.31041  -0.68789
 Alpha  occ. eigenvalues --   -0.68489  -0.55683  -0.53055  -0.48561  -0.48016
 Alpha virt. eigenvalues --    0.14284   0.16732   0.20511   0.21989   0.52080
 Alpha virt. eigenvalues --    0.58312   0.58580   0.59450   0.66508   0.76615
 Alpha virt. eigenvalues --    0.77625   0.78612   0.79021   0.82716   0.85997

 Mulliken charges:
               1
     1  O   -0.474621
     2  H    0.233728
     3  H    0.241071
     4  O   -0.471655
     5  H    0.232006
     6  H    0.239470
 Sum of Mulliken charges =  -0.00000

 Dipole moment (field-independent basis, Debye):
    X=             -0.7138    Y=             -0.1634    Z=              0.0000  Tot=              0.7323
 Quadrupole moment (field-independent basis, Debye-Ang):
   XX=             -8.1918   YY=             -0.6342   ZZ=            -14.7115
   XY=             -0.5286   XZ=              0.0000   YZ=              0.0000

 Normal termination of Gaussian 16 at Sat Aug 27 03:47:01 2022.
