 Gaussian 16, Revision A.03,
 Gaussian 16:  ES64L-G16RevA.03 25-Dec-2016

 ------------------
 #p CCSD(T)/cc-pVTZ
 ------------------

 -----------
 H2O_H2O_944
 -----------
 Symbolic Z-matrix:
 Charge =  0 Multiplicity = 1

                         Standard orientation:
 ---------------------------------------------------------------------
 Center     Atomic      Atomic             Coordinates (Angstroms)
 Number     Number       Type             X           Y           Z
 ---------------------------------------------------------------------
      1          8           0        0.054222   -1.253660    0.000000
      2          1           0       -0.747402   -1.821908    0.000000
      3          1           0        0.851730   -1.827669    0.000000
      4          8           0        0.054222    1.330780    0.000000
      5          1           0       -0.226196    2.272518    0.000000
      6          1           0       -0.745676    0.760104    0.000000
 ---------------------------------------------------------------------

 SCF Done:  E(RHF) =  -152.102007122     A.U. after   10 cycles
 E2 =    -0.5290892636D+00 EUMP2 =    -0.15263109638542D+03
 CCSD(T)
 CCSD(T)= -0.15265818869D+03

 The electronic state is 1-A'.
 Alpha  occ. eigenvalues --  -20.55695 -20.52722  -1.33292  -1.30018  -0.70689
 Alpha  occ. eigenvalues --   -0.68010  -0.56183  -0.53209  -0.50384  -0.47077
 Alpha virt. eigenvalues --    0.13429   0.17677   0.19777   0.24585   0.52292
 Alpha virt. eigenvalues --    0.56937   0.59085   0.59561   0.71024   0.74525
 Alpha virt. eigenvalues --    0.76409   0.82167   0.82792   0.82878   0.84483

 Mulliken charges:
               1
     1  O   -0.472586
     2  H    0.233687
     3  H    0.251819
     4  O   -0.489289
     5  H    0.220174
     6  H    0.256196
 Sum of Mulliken charges =  -0.00000

 Dipole moment (field-independent basis, Debye):
    X=             -1.7106    Y=             -1.5551    Z=              0.0000  Tot=              2.3118
 Quadrupole moment (field-independent basis, Debye-Ang):
   XX=             -9.6837   YY=             -3.9235   ZZ=            -14.7242
   XY=             -2.1149   XZ=              0.0000   YZ=              0.0000

 47359\MP4DQ=-152.6395627\MP4SDQ=-152.642769\CCSD=-152.6421207\CCSD(T)=
 Normal termination of Gaussian 16 at Fri Aug 26 21:24:00 2022.
