 Gaussian 16, Revision A.03,
 Gaussian 16:  ES64L-G16RevA.03 25-Dec-2016

 ------------------
 #p CCSD(T)/cc-pVTZ
 ------------------

 ------------
 H2O_H2O_4781
 ------------
 Symbolic Z-matrix:
 Charge =  0 Multiplicity = 1

                         Standard orientation:
 ---------------------------------------------------------------------
 Center     Atomic      Atomic             Coordinates (Angstroms)
 Number     Number       Type             X           Y           Z
 ---------------------------------------------------------------------
      1          8           0        0.021859   -3.338409    0.000000
      2          1           0       -0.778034   -3.909091    0.000000
      3          1           0        0.821108   -3.909991    0.000000
      4          8           0        0.021859    3.347079    0.000000
      5          1           0        0.542473    4.180426    0.000000
      6          1           0       -0.935286    3.569292    0.000000
 ---------------------------------------------------------------------

 SCF Done:  E(RHF) =  -152.106974725     A.U. after   10 cycles
 E2 =    -0.5259131218D+00 EUMP2 =    -0.15263288784715D+03
 CCSD(T)
 CCSD(T)= -0.15266011744D+03

 The electronic state is 1-A'.
 Alpha  occ. eigenvalues --  -20.55279 -20.55234  -1.32575  -1.32530  -0.69982
 Alpha  occ. eigenvalues --   -0.69936  -0.56003  -0.55958  -0.49683  -0.49639
 Alpha virt. eigenvalues --    0.14362   0.14408   0.20415   0.20461   0.54586
 Alpha virt. eigenvalues --    0.54634   0.57465   0.57510   0.68219   0.68267
 Alpha virt. eigenvalues --    0.79196   0.79240   0.80636   0.80685   0.82562

 Mulliken charges:
               1
     1  O   -0.506309
     2  H    0.252733
     3  H    0.253576
     4  O   -0.506271
     5  H    0.252520
     6  H    0.253750
 Sum of Mulliken charges =  -0.00000

 Dipole moment (field-independent basis, Debye):
    X=             -0.7516    Y=             -0.1511    Z=              0.0000  Tot=              0.7667
 Quadrupole moment (field-independent basis, Debye-Ang):
   XX=             -8.1022   YY=             13.9810   ZZ=            -14.7109
   XY=             -1.8841   XZ=              0.0000   YZ=              0.0000

 Normal termination of Gaussian 16 at Sat Aug 27 09:18:10 2022.
