 Gaussian 16, Revision A.03,
 Gaussian 16:  ES64L-G16RevA.03 25-Dec-2016

 ------------------
 #p CCSD(T)/cc-pVTZ
 ------------------

 ------------
 H2O_H2O_1359
 ------------
 Symbolic Z-matrix:
 Charge =  0 Multiplicity = 1

                         Standard orientation:
 ---------------------------------------------------------------------
 Center     Atomic      Atomic             Coordinates (Angstroms)
 Number     Number       Type             X           Y           Z
 ---------------------------------------------------------------------
      1          8           0        0.031748   -1.511184    0.000000
      2          1           0       -0.768848   -2.080879    0.000000
      3          1           0        0.830292   -2.083751    0.000000
      4          8           0        0.031748    1.530320    0.000000
      5          1           0        0.380913    2.448792    0.000000
      6          1           0       -0.950319    1.562745    0.000000
 ---------------------------------------------------------------------

 SCF Done:  E(RHF) =  -152.102865102     A.U. after   11 cycles
 E2 =    -0.5273063991D+00 EUMP2 =    -0.15263017150098D+03
 CCSD(T)
 CCSD(T)= -0.15265742965D+03

 The electronic state is 1-A'.
 Alpha  occ. eigenvalues --  -20.54308 -20.53835  -1.31633  -1.31090  -0.69058
 Alpha  occ. eigenvalues --   -0.68515  -0.55675  -0.53463  -0.48782  -0.48120
 Alpha virt. eigenvalues --    0.14131   0.16677   0.20424   0.22131   0.52740
 Alpha virt. eigenvalues --    0.57976   0.58145   0.58934   0.65952   0.76669
 Alpha virt. eigenvalues --    0.77650   0.78430   0.79433   0.82490   0.85773

 Mulliken charges:
               1
     1  O   -0.478384
     2  H    0.234688
     3  H    0.244510
     4  O   -0.475075
     5  H    0.231184
     6  H    0.243076
 Sum of Mulliken charges =  -0.00000

 Dipole moment (field-independent basis, Debye):
    X=             -1.0385    Y=             -0.3622    Z=              0.0000  Tot=              1.0999
 Quadrupole moment (field-independent basis, Debye-Ang):
   XX=             -8.5086   YY=             -0.6233   ZZ=            -14.7124
   XY=             -0.8965   XZ=              0.0000   YZ=              0.0000

 Normal termination of Gaussian 16 at Sat Aug 27 04:13:24 2022.
