 Gaussian 16, Revision A.03,
 Gaussian 16:  ES64L-G16RevA.03 25-Dec-2016

 ------------------
 #p CCSD(T)/cc-pVTZ
 ------------------

 ------------
 H2O_H2O_3648
 ------------
 Symbolic Z-matrix:
 Charge =  0 Multiplicity = 1

                         Standard orientation:
 ---------------------------------------------------------------------
 Center     Atomic      Atomic             Coordinates (Angstroms)
 Number     Number       Type             X           Y           Z
 ---------------------------------------------------------------------
      1          8           0        0.057087   -2.673640    0.000000
      2          1           0       -0.743510   -3.243333    0.000000
      3          1           0        0.855629   -3.246210    0.000000
      4          8           0        0.057087    2.780191    0.000000
      5          1           0       -0.459025    3.616334    0.000000
      6          1           0       -0.566484    2.020805    0.000000
 ---------------------------------------------------------------------

 SCF Done:  E(RHF) =  -152.107802005     A.U. after   10 cycles
 E2 =    -0.5258749360D+00 EUMP2 =    -0.15263367694085D+03
 CCSD(T)
 CCSD(T)= -0.15266088574D+03

 The electronic state is 1-A'.
 Alpha  occ. eigenvalues --  -20.55799 -20.54950  -1.33098  -1.32250  -0.70503
 Alpha  occ. eigenvalues --   -0.69643  -0.56563  -0.55706  -0.50212  -0.49368
 Alpha virt. eigenvalues --    0.13704   0.14880   0.19990   0.20974   0.54037
 Alpha virt. eigenvalues --    0.54878   0.57007   0.57796   0.67200   0.68923
 Alpha virt. eigenvalues --    0.78672   0.79496   0.80058   0.80496   0.82654

 Mulliken charges:
               1
     1  O   -0.511078
     2  H    0.253767
     3  H    0.257404
     4  O   -0.510492
     5  H    0.251285
     6  H    0.259115
 Sum of Mulliken charges =   0.00000

 Dipole moment (field-independent basis, Debye):
    X=             -1.9572    Y=             -1.8772    Z=              0.0000  Tot=              2.7119
 Quadrupole moment (field-independent basis, Debye-Ang):
   XX=             -9.8539   YY=              1.5094   ZZ=            -14.7133
   XY=             -5.4818   XZ=              0.0000   YZ=              0.0000

 Normal termination of Gaussian 16 at Sat Aug 27 02:12:04 2022.
