 Gaussian 16, Revision A.03,
 Gaussian 16:  ES64L-G16RevA.03 25-Dec-2016

 ------------------
 #p CCSD(T)/cc-pVTZ
 ------------------

 ------------
 H2O_H2O_2060
 ------------
 Symbolic Z-matrix:
 Charge =  0 Multiplicity = 1

                         Standard orientation:
 ---------------------------------------------------------------------
 Center     Atomic      Atomic             Coordinates (Angstroms)
 Number     Number       Type             X           Y           Z
 ---------------------------------------------------------------------
      1          8           0        0.034787   -1.881103    0.000000
      2          1           0       -0.765686   -2.450970    0.000000
      3          1           0        0.833454   -2.453498    0.000000
      4          8           0        0.034787    1.904597    0.000000
      5          1           0        0.322933    2.844001    0.000000
      6          1           0       -0.947291    1.872511    0.000000
 ---------------------------------------------------------------------

 SCF Done:  E(RHF) =  -152.105533042     A.U. after   10 cycles
 E2 =    -0.5263907566D+00 EUMP2 =    -0.15263192379859D+03
 CCSD(T)
 CCSD(T)= -0.15265915241D+03

 The electronic state is 1-A'.
 Alpha  occ. eigenvalues --  -20.54813 -20.54408  -1.32092  -1.31682  -0.69511
 Alpha  occ. eigenvalues --   -0.69083  -0.55530  -0.54913  -0.49196  -0.48783
 Alpha virt. eigenvalues --    0.13903   0.15903   0.20421   0.21485   0.53413
 Alpha virt. eigenvalues --    0.55647   0.57818   0.58285   0.63142   0.75723
 Alpha virt. eigenvalues --    0.79189   0.79715   0.80529   0.80964   0.83206

 Mulliken charges:
               1
     1  O   -0.494211
     2  H    0.244239
     3  H    0.250559
     4  O   -0.494463
     5  H    0.242744
     6  H    0.251133
 Sum of Mulliken charges =  -0.00000

 Dipole moment (field-independent basis, Debye):
    X=             -1.1700    Y=             -0.4304    Z=              0.0000  Tot=              1.2466
 Quadrupole moment (field-independent basis, Debye-Ang):
   XX=             -8.5899   YY=              2.1616   ZZ=            -14.7108
   XY=             -1.4554   XZ=              0.0000   YZ=              0.0000

 Normal termination of Gaussian 16 at Sat Aug 27 08:21:43 2022.
