 Gaussian 16, Revision A.03,
 Gaussian 16:  ES64L-G16RevA.03 25-Dec-2016

 ------------------
 #p CCSD(T)/cc-pVTZ
 ------------------

 -----------
 H2O_H2O_229
 -----------
 Symbolic Z-matrix:
 Charge =  0 Multiplicity = 1

                         Standard orientation:
 ---------------------------------------------------------------------
 Center     Atomic      Atomic             Coordinates (Angstroms)
 Number     Number       Type             X           Y           Z
 ---------------------------------------------------------------------
      1          8           0        0.014785   -0.921170    0.000000
      2          1           0       -0.785573   -1.491199    0.000000
      3          1           0        0.813568   -1.493403    0.000000
      4          8           0        0.014785    0.925021    0.000000
      5          1           0        0.640337    1.682775    0.000000
      6          1           0       -0.904886    1.271016    0.000000
 ---------------------------------------------------------------------

 SCF Done:  E(RHF) =  -152.014533900     A.U. after   11 cycles
 E2 =    -0.5398690881D+00 EUMP2 =    -0.15255440298835D+03
 CCSD(T)
 CCSD(T)= -0.15258064320D+03

 The electronic state is 1-A'.
 Alpha  occ. eigenvalues --  -20.51486 -20.51372  -1.33208  -1.27785  -0.69246
 Alpha  occ. eigenvalues --   -0.66346  -0.62989  -0.50168  -0.44120  -0.40042
 Alpha virt. eigenvalues --    0.14618   0.18815   0.20261   0.23050   0.50946
 Alpha virt. eigenvalues --    0.58822   0.59118   0.66560   0.68933   0.78710
 Alpha virt. eigenvalues --    0.79716   0.83557   0.84241   0.86426   0.87770

 Mulliken charges:
               1
     1  O   -0.408030
     2  H    0.198044
     3  H    0.209331
     4  O   -0.396242
     5  H    0.178221
     6  H    0.218676
 Sum of Mulliken charges =  -0.00000

 Dipole moment (field-independent basis, Debye):
    X=             -0.4227    Y=             -0.0892    Z=              0.0000  Tot=              0.4320
 Quadrupole moment (field-independent basis, Debye-Ang):
   XX=             -8.3733   YY=             -6.9272   ZZ=            -14.7522
   XY=             -0.1492   XZ=              0.0000   YZ=              0.0000

 Normal termination of Gaussian 16 at Fri Aug 26 14:17:22 2022.
