 Gaussian 16, Revision A.03,
 Gaussian 16:  ES64L-G16RevA.03 25-Dec-2016

 ------------------
 #p CCSD(T)/cc-pVTZ
 ------------------

 ------------
 H2O_H2O_4915
 ------------
 Symbolic Z-matrix:
 Charge =  0 Multiplicity = 1

                         Standard orientation:
 ---------------------------------------------------------------------
 Center     Atomic      Atomic             Coordinates (Angstroms)
 Number     Number       Type             X           Y           Z
 ---------------------------------------------------------------------
      1          8           0        0.047518   -3.382089    0.000000
      2          1           0       -0.752737   -3.952261    0.000000
      3          1           0        0.846404   -3.954180    0.000000
      4          8           0        0.047518    3.432740    0.000000
      5          1           0        0.018036    4.414899    0.000000
      6          1           0       -0.871995    3.086328    0.000000
 ---------------------------------------------------------------------

 SCF Done:  E(RHF) =  -152.107266206     A.U. after   10 cycles
 E2 =    -0.5258870755D+00 EUMP2 =    -0.15263315328099D+03
 CCSD(T)
 CCSD(T)= -0.15266037670D+03

 The electronic state is 1-A'.
 Alpha  occ. eigenvalues --  -20.55486 -20.55235  -1.32784  -1.32533  -0.70190
 Alpha  occ. eigenvalues --   -0.69935  -0.56225  -0.55973  -0.49895  -0.49644
 Alpha virt. eigenvalues --    0.14179   0.14430   0.20246   0.20509   0.54373
 Alpha virt. eigenvalues --    0.54638   0.57279   0.57530   0.67976   0.68231
 Alpha virt. eigenvalues --    0.78985   0.79233   0.80419   0.80687   0.82343

 Mulliken charges:
               1
     1  O   -0.508039
     2  H    0.253166
     3  H    0.254873
     4  O   -0.507891
     5  H    0.252490
     6  H    0.255401
 Sum of Mulliken charges =  -0.00000

 Dipole moment (field-independent basis, Debye):
    X=             -1.6347    Y=             -0.8826    Z=              0.0000  Tot=              1.8577
 Quadrupole moment (field-independent basis, Debye-Ang):
   XX=             -9.2243   YY=             10.5321   ZZ=            -14.7116
   XY=             -4.8308   XZ=              0.0000   YZ=              0.0000

 Normal termination of Gaussian 16 at Sat Aug 27 10:06:18 2022.
