 Gaussian 16, Revision A.03,
 Gaussian 16:  ES64L-G16RevA.03 25-Dec-2016

 ------------------
 #p CCSD(T)/cc-pVTZ
 ------------------

 -----------
 H2O_H2O_746
 -----------
 Symbolic Z-matrix:
 Charge =  0 Multiplicity = 1

                         Standard orientation:
 ---------------------------------------------------------------------
 Center     Atomic      Atomic             Coordinates (Angstroms)
 Number     Number       Type             X           Y           Z
 ---------------------------------------------------------------------
      1          8           0        0.056202   -1.139490    0.000000
      2          1           0       -0.745686   -1.707364    0.000000
      3          1           0        0.853443   -1.713870    0.000000
      4          8           0        0.056202    1.230976    0.000000
      5          1           0       -0.344320    2.128242    0.000000
      6          1           0       -0.662676    0.561109    0.000000
 ---------------------------------------------------------------------

 SCF Done:  E(RHF) =  -152.094622842     A.U. after   11 cycles
 E2 =    -0.5311738965D+00 EUMP2 =    -0.15262579673897D+03
 CCSD(T)
 CCSD(T)= -0.15265269774D+03

 The electronic state is 1-A'.
 Alpha  occ. eigenvalues --  -20.56206 -20.51768  -1.34301  -1.29208  -0.71662
 Alpha  occ. eigenvalues --   -0.68493  -0.55503  -0.52693  -0.51256  -0.46235
 Alpha virt. eigenvalues --    0.13201   0.18266   0.19492   0.25785   0.50986
 Alpha virt. eigenvalues --    0.56230   0.60603   0.61871   0.71640   0.73849
 Alpha virt. eigenvalues --    0.77033   0.82680   0.83780   0.83826   0.87103

 Mulliken charges:
               1
     1  O   -0.450410
     2  H    0.227066
     3  H    0.247888
     4  O   -0.496604
     5  H    0.211798
     6  H    0.260263
 Sum of Mulliken charges =  -0.00000

 Dipole moment (field-independent basis, Debye):
    X=             -1.7318    Y=             -1.9450    Z=              0.0000  Tot=              2.6042
 Quadrupole moment (field-independent basis, Debye-Ang):
   XX=             -9.8011   YY=             -5.1640   ZZ=            -14.7118
   XY=             -2.2458   XZ=              0.0000   YZ=              0.0000

 Normal termination of Gaussian 16 at Fri Aug 26 19:37:53 2022.
