 Gaussian 16, Revision A.03,
 Gaussian 16:  ES64L-G16RevA.03 25-Dec-2016

 ------------------
 #p CCSD(T)/cc-pVTZ
 ------------------

 ------------
 H2O_H2O_1618
 ------------
 Symbolic Z-matrix:
 Charge =  0 Multiplicity = 1

                         Standard orientation:
 ---------------------------------------------------------------------
 Center     Atomic      Atomic             Coordinates (Angstroms)
 Number     Number       Type             X           Y           Z
 ---------------------------------------------------------------------
      1          8           0        0.052862   -1.616397    0.000000
      2          1           0       -0.748276   -2.185327    0.000000
      3          1           0        0.850860   -2.189726    0.000000
      4          8           0        0.052862    1.686620    0.000000
      5          1           0       -0.166178    2.644496    0.000000
      6          1           0       -0.782205    1.168770    0.000000
 ---------------------------------------------------------------------

 SCF Done:  E(RHF) =  -152.107101068     A.U. after   10 cycles
 E2 =    -0.5268172347D+00 EUMP2 =    -0.15263391830303D+03
 CCSD(T)
 CCSD(T)= -0.15266108257D+03

 The electronic state is 1-A'.
 Alpha  occ. eigenvalues --  -20.55587 -20.53868  -1.32867  -1.31138  -0.70284
 Alpha  occ. eigenvalues --   -0.68522  -0.56273  -0.54514  -0.49982  -0.48258
 Alpha virt. eigenvalues --    0.13434   0.16648   0.19958   0.23219   0.54237
 Alpha virt. eigenvalues --    0.54720   0.57192   0.58367   0.65689   0.76156
 Alpha virt. eigenvalues --    0.77404   0.77574   0.78822   0.81433   0.84798

 Mulliken charges:
               1
     1  O   -0.491317
     2  H    0.242087
     3  H    0.254452
     4  O   -0.500205
     5  H    0.237548
     6  H    0.257435
 Sum of Mulliken charges =  -0.00000

 Dipole moment (field-independent basis, Debye):
    X=             -1.7490    Y=             -1.3322    Z=              0.0000  Tot=              2.1986
 Quadrupole moment (field-independent basis, Debye-Ang):
   XX=             -9.5736   YY=             -1.3654   ZZ=            -14.7180
   XY=             -2.5634   XZ=              0.0000   YZ=              0.0000

 Normal termination of Gaussian 16 at Sat Aug 27 05:48:32 2022.
