 Gaussian 16, Revision A.03,
 Gaussian 16:  ES64L-G16RevA.03 25-Dec-2016

 ------------------
 #p CCSD(T)/cc-pVTZ
 ------------------

 ------------
 H2O_H2O_3440
 ------------
 Symbolic Z-matrix:
 Charge =  0 Multiplicity = 1

                         Standard orientation:
 ---------------------------------------------------------------------
 Center     Atomic      Atomic             Coordinates (Angstroms)
 Number     Number       Type             X           Y           Z
 ---------------------------------------------------------------------
      1          8           0        0.047527   -2.597648    0.000000
      2          1           0       -0.752933   -3.167533    0.000000
      3          1           0        0.846207   -3.170025    0.000000
      4          8           0        0.047527    2.648265    0.000000
      5          1           0        0.018397    3.630435    0.000000
      6          1           0       -0.872110    2.302183    0.000000
 ---------------------------------------------------------------------

 SCF Done:  E(RHF) =  -152.107024084     A.U. after   10 cycles
 E2 =    -0.5259434602D+00 EUMP2 =    -0.15263296754399D+03
 CCSD(T)
 CCSD(T)= -0.15266019357D+03

 The electronic state is 1-A'.
 Alpha  occ. eigenvalues --  -20.55381 -20.54947  -1.32678  -1.32241  -0.70086
 Alpha  occ. eigenvalues --   -0.69638  -0.56107  -0.55670  -0.49786  -0.49352
 Alpha virt. eigenvalues --    0.14091   0.14832   0.20281   0.20830   0.54442
 Alpha virt. eigenvalues --    0.54936   0.57363   0.57785   0.67595   0.69167
 Alpha virt. eigenvalues --    0.79094   0.79519   0.80503   0.80930   0.82640

 Mulliken charges:
               1
     1  O   -0.506619
     2  H    0.251502
     3  H    0.255147
     4  O   -0.506204
     5  H    0.250114
     6  H    0.256060
 Sum of Mulliken charges =  -0.00000

 Dipole moment (field-independent basis, Debye):
    X=             -1.6272    Y=             -0.8920    Z=              0.0000  Tot=              1.8556
 Quadrupole moment (field-independent basis, Debye-Ang):
   XX=             -9.2254   YY=              5.6420   ZZ=            -14.7115
   XY=             -3.5610   XZ=              0.0000   YZ=              0.0000

 Normal termination of Gaussian 16 at Fri Aug 26 22:21:14 2022.
