 Gaussian 16, Revision A.03,
 Gaussian 16:  ES64L-G16RevA.03 25-Dec-2016

 ------------------
 #p CCSD(T)/cc-pVTZ
 ------------------

 ------------
 H2O_H2O_2260
 ------------
 Symbolic Z-matrix:
 Charge =  0 Multiplicity = 1

                         Standard orientation:
 ---------------------------------------------------------------------
 Center     Atomic      Atomic             Coordinates (Angstroms)
 Number     Number       Type             X           Y           Z
 ---------------------------------------------------------------------
      1          8           0        0.034786   -1.987467    0.000000
      2          1           0       -0.765639   -2.557401    0.000000
      3          1           0        0.833501   -2.559795    0.000000
      4          8           0        0.034786    2.010967    0.000000
      5          1           0        0.322853    2.950394    0.000000
      6          1           0       -0.947289    1.978799    0.000000
 ---------------------------------------------------------------------

 SCF Done:  E(RHF) =  -152.105793981     A.U. after   10 cycles
 E2 =    -0.5262595581D+00 EUMP2 =    -0.15263205353918D+03
 CCSD(T)
 CCSD(T)= -0.15265928537D+03

 The electronic state is 1-A'.
 Alpha  occ. eigenvalues --  -20.54882 -20.54523  -1.32165  -1.31802  -0.69581
 Alpha  occ. eigenvalues --   -0.69202  -0.55569  -0.55106  -0.49268  -0.48905
 Alpha virt. eigenvalues --    0.13924   0.15696   0.20432   0.21320   0.53794
 Alpha virt. eigenvalues --    0.55517   0.57764   0.58153   0.63710   0.74765
 Alpha virt. eigenvalues --    0.79353   0.80201   0.80289   0.81148   0.82792

 Mulliken charges:
               1
     1  O   -0.497345
     2  H    0.246098
     3  H    0.251616
     4  O   -0.497234
     5  H    0.244749
     6  H    0.252116
 Sum of Mulliken charges =  -0.00000

 Dipole moment (field-independent basis, Debye):
    X=             -1.1752    Y=             -0.4263    Z=              0.0000  Tot=              1.2502
 Quadrupole moment (field-independent basis, Debye-Ang):
   XX=             -8.5839   YY=              2.9521   ZZ=            -14.7107
   XY=             -1.5792   XZ=              0.0000   YZ=              0.0000

 Normal termination of Gaussian 16 at Sat Aug 27 09:30:48 2022.
