 Gaussian 16, Revision A.03,
 Gaussian 16:  ES64L-G16RevA.03 25-Dec-2016

 ------------------
 #p CCSD(T)/cc-pVTZ
 ------------------

 ------------
 H2O_H2O_4266
 ------------
 Symbolic Z-matrix:
 Charge =  0 Multiplicity = 1

                         Standard orientation:
 ---------------------------------------------------------------------
 Center     Atomic      Atomic             Coordinates (Angstroms)
 Number     Number       Type             X           Y           Z
 ---------------------------------------------------------------------
      1          8           0        0.049501   -3.032960    0.000000
      2          1           0       -0.750863   -3.602980    0.000000
      3          1           0        0.848277   -3.605204    0.000000
      4          8           0        0.049501    3.089936    0.000000
      5          1           0       -0.043968    4.068082    0.000000
      6          1           0       -0.845464    2.684297    0.000000
 ---------------------------------------------------------------------

 SCF Done:  E(RHF) =  -152.107241256     A.U. after   10 cycles
 E2 =    -0.5258977598D+00 EUMP2 =    -0.15263313901607D+03
 CCSD(T)
 CCSD(T)= -0.15266036242D+03

 The electronic state is 1-A'.
 Alpha  occ. eigenvalues --  -20.55483 -20.55130  -1.32781  -1.32427  -0.70188
 Alpha  occ. eigenvalues --   -0.69827  -0.56221  -0.55866  -0.49892  -0.49539
 Alpha virt. eigenvalues --    0.14163   0.14544   0.20242   0.20623   0.54374
 Alpha virt. eigenvalues --    0.54751   0.57279   0.57634   0.67948   0.68376
 Alpha virt. eigenvalues --    0.78988   0.79336   0.80422   0.80798   0.82357

 Mulliken charges:
               1
     1  O   -0.507910
     2  H    0.252745
     3  H    0.255165
     4  O   -0.507661
     5  H    0.251745
     6  H    0.255915
 Sum of Mulliken charges =  -0.00000

 Dipole moment (field-independent basis, Debye):
    X=             -1.7004    Y=             -0.9964    Z=              0.0000  Tot=              1.9709
 Quadrupole moment (field-independent basis, Debye-Ang):
   XX=             -9.3454   YY=              7.8143   ZZ=            -14.7117
   XY=             -4.5461   XZ=              0.0000   YZ=              0.0000

 Normal termination of Gaussian 16 at Sat Aug 27 06:20:35 2022.
