 Gaussian 16, Revision A.03,
 Gaussian 16:  ES64L-G16RevA.03 25-Dec-2016

 ------------------
 #p CCSD(T)/cc-pVTZ
 ------------------

 ------------
 H2O_H2O_2293
 ------------
 Symbolic Z-matrix:
 Charge =  0 Multiplicity = 1

                         Standard orientation:
 ---------------------------------------------------------------------
 Center     Atomic      Atomic             Coordinates (Angstroms)
 Number     Number       Type             X           Y           Z
 ---------------------------------------------------------------------
      1          8           0        0.052845   -1.975359    0.000000
      2          1           0       -0.748014   -2.544683    0.000000
      3          1           0        0.851124   -2.548296    0.000000
      4          8           0        0.052845    2.045634    0.000000
      5          1           0       -0.166665    3.003404    0.000000
      6          1           0       -0.781968    1.527375    0.000000
 ---------------------------------------------------------------------

 SCF Done:  E(RHF) =  -152.107352742     A.U. after   10 cycles
 E2 =    -0.5261859943D+00 EUMP2 =    -0.15263353873673D+03
 CCSD(T)
 CCSD(T)= -0.15266073100D+03

 The electronic state is 1-A'.
 Alpha  occ. eigenvalues --  -20.55553 -20.54426  -1.32833  -1.31712  -0.70244
 Alpha  occ. eigenvalues --   -0.69089  -0.56257  -0.55139  -0.49945  -0.48831
 Alpha virt. eigenvalues --    0.13351   0.15881   0.20064   0.22037   0.53994
 Alpha virt. eigenvalues --    0.54553   0.57260   0.58379   0.65379   0.74541
 Alpha virt. eigenvalues --    0.78823   0.79433   0.80131   0.81639   0.83572

 Mulliken charges:
               1
     1  O   -0.503073
     2  H    0.248403
     3  H    0.256363
     4  O   -0.506170
     5  H    0.245481
     6  H    0.258996
 Sum of Mulliken charges =  -0.00000

 Dipole moment (field-independent basis, Debye):
    X=             -1.7859    Y=             -1.2818    Z=              0.0000  Tot=              2.1983
 Quadrupole moment (field-independent basis, Debye-Ang):
   XX=             -9.5619   YY=              0.7202   ZZ=            -14.7142
   XY=             -3.1949   XZ=              0.0000   YZ=              0.0000

 Normal termination of Gaussian 16 at Sat Aug 27 09:42:00 2022.
