 Gaussian 16, Revision A.03,
 Gaussian 16:  ES64L-G16RevA.03 25-Dec-2016

 ------------------
 #p CCSD(T)/cc-pVTZ
 ------------------

 ------------
 H2O_H2O_3481
 ------------
 Symbolic Z-matrix:
 Charge =  0 Multiplicity = 1

                         Standard orientation:
 ---------------------------------------------------------------------
 Center     Atomic      Atomic             Coordinates (Angstroms)
 Number     Number       Type             X           Y           Z
 ---------------------------------------------------------------------
      1          8           0        0.021859   -2.647025    0.000000
      2          1           0       -0.778117   -3.217589    0.000000
      3          1           0        0.821025   -3.218724    0.000000
      4          8           0        0.021859    2.655689    0.000000
      5          1           0        0.542596    3.488959    0.000000
      6          1           0       -0.935253    2.878042    0.000000
 ---------------------------------------------------------------------

 SCF Done:  E(RHF) =  -152.106470970     A.U. after   10 cycles
 E2 =    -0.5259825281D+00 EUMP2 =    -0.15263245349793D+03
 CCSD(T)
 CCSD(T)= -0.15265969229D+03

 The electronic state is 1-A'.
 Alpha  occ. eigenvalues --  -20.55064 -20.54993  -1.32358  -1.32286  -0.69767
 Alpha  occ. eigenvalues --   -0.69693  -0.55761  -0.55689  -0.49463  -0.49391
 Alpha virt. eigenvalues --    0.14426   0.14711   0.20532   0.20666   0.54773
 Alpha virt. eigenvalues --    0.54912   0.57635   0.57721   0.67987   0.69099
 Alpha virt. eigenvalues --    0.79414   0.79485   0.80854   0.80955   0.82765

 Mulliken charges:
               1
     1  O   -0.503361
     2  H    0.250868
     3  H    0.252494
     4  O   -0.503245
     5  H    0.250511
     6  H    0.252732
 Sum of Mulliken charges =   0.00000

 Dipole moment (field-independent basis, Debye):
    X=             -0.7483    Y=             -0.1523    Z=              0.0000  Tot=              0.7636
 Quadrupole moment (field-independent basis, Debye-Ang):
   XX=             -8.1099   YY=              8.6448   ZZ=            -14.7103
   XY=             -1.3701   XZ=              0.0000   YZ=              0.0000

 Normal termination of Gaussian 16 at Fri Aug 26 22:41:42 2022.
