 Gaussian 16, Revision A.03,
 Gaussian 16:  ES64L-G16RevA.03 25-Dec-2016

 ------------------
 #p CCSD(T)/cc-pVTZ
 ------------------

 ------------
 H2O_H2O_1526
 ------------
 Symbolic Z-matrix:
 Charge =  0 Multiplicity = 1

                         Standard orientation:
 ---------------------------------------------------------------------
 Center     Atomic      Atomic             Coordinates (Angstroms)
 Number     Number       Type             X           Y           Z
 ---------------------------------------------------------------------
      1          8           0        0.003735   -1.614517    0.000000
      2          1           0       -0.795949   -2.185490    0.000000
      3          1           0        0.803193   -2.185809    0.000000
      4          8           0        0.003735    1.614761    0.000000
      5          1           0        0.764365    2.236812    0.000000
      6          1           0       -0.831375    2.132541    0.000000
 ---------------------------------------------------------------------

 SCF Done:  E(RHF) =  -152.102801234     A.U. after   10 cycles
 E2 =    -0.5269999716D+00 EUMP2 =    -0.15262980120600D+03
 CCSD(T)
 CCSD(T)= -0.15265707877D+03

 The electronic state is 1-A'.
 Alpha  occ. eigenvalues --  -20.54059 -20.54054  -1.31406  -1.31283  -0.68825
 Alpha  occ. eigenvalues --   -0.68727  -0.55418  -0.53652  -0.48575  -0.48284
 Alpha virt. eigenvalues --    0.14331   0.16427   0.20585   0.21646   0.52434
 Alpha virt. eigenvalues --    0.58158   0.58551   0.58893   0.62895   0.76057
 Alpha virt. eigenvalues --    0.78400   0.78450   0.79670   0.82035   0.85718

 Mulliken charges:
               1
     1  O   -0.477951
     2  H    0.238463
     3  H    0.239498
     4  O   -0.477919
     5  H    0.238465
     6  H    0.239444
 Sum of Mulliken charges =  -0.00000

 Dipole moment (field-independent basis, Debye):
    X=             -0.1236    Y=             -0.0046    Z=              0.0000  Tot=              0.1237
 Quadrupole moment (field-independent basis, Debye-Ang):
   XX=             -7.8860   YY=              0.5818   ZZ=            -14.7090
   XY=             -0.0951   XZ=              0.0000   YZ=              0.0000

 Normal termination of Gaussian 16 at Sat Aug 27 05:17:04 2022.
