 Gaussian 16, Revision A.03,
 Gaussian 16:  ES64L-G16RevA.03 25-Dec-2016

 ------------------
 #p CCSD(T)/cc-pVTZ
 ------------------

 ------------
 H2O_H2O_1155
 ------------
 Symbolic Z-matrix:
 Charge =  0 Multiplicity = 1

                         Standard orientation:
 ---------------------------------------------------------------------
 Center     Atomic      Atomic             Coordinates (Angstroms)
 Number     Number       Type             X           Y           Z
 ---------------------------------------------------------------------
      1          8           0        0.018362   -1.411940    0.000000
      2          1           0       -0.781847   -1.982179    0.000000
      3          1           0        0.817294   -1.983965    0.000000
      4          8           0        0.018362    1.417961    0.000000
      5          1           0        0.592807    2.215155    0.000000
      6          1           0       -0.922043    1.702820    0.000000
 ---------------------------------------------------------------------

 SCF Done:  E(RHF) =  -152.099850883     A.U. after   11 cycles
 E2 =    -0.5278235190D+00 EUMP2 =    -0.15262767440207D+03
 CCSD(T)
 CCSD(T)= -0.15265497592D+03

 The electronic state is 1-A'.
 Alpha  occ. eigenvalues --  -20.53757 -20.53601  -1.31222  -1.30813  -0.68616
 Alpha  occ. eigenvalues --   -0.68291  -0.55933  -0.52316  -0.48448  -0.47726
 Alpha virt. eigenvalues --    0.14362   0.16950   0.20530   0.22103   0.51549
 Alpha virt. eigenvalues --    0.58456   0.58726   0.60583   0.69026   0.76476
 Alpha virt. eigenvalues --    0.77196   0.78456   0.79497   0.83192   0.86152

 Mulliken charges:
               1
     1  O   -0.470276
     2  H    0.231548
     3  H    0.238579
     4  O   -0.466485
     5  H    0.229868
     6  H    0.236766
 Sum of Mulliken charges =  -0.00000

 Dipole moment (field-independent basis, Debye):
    X=             -0.5934    Y=             -0.1144    Z=              0.0000  Tot=              0.6043
 Quadrupole moment (field-independent basis, Debye-Ang):
   XX=             -8.1259   YY=             -1.3070   ZZ=            -14.7137
   XY=             -0.3831   XZ=              0.0000   YZ=              0.0000

 Normal termination of Gaussian 16 at Sat Aug 27 02:34:02 2022.
