 Gaussian 16, Revision A.03,
 Gaussian 16:  ES64L-G16RevA.03 25-Dec-2016

 ------------------
 #p CCSD(T)/cc-pVTZ
 ------------------

 ------------
 H2O_H2O_2298
 ------------
 Symbolic Z-matrix:
 Charge =  0 Multiplicity = 1

                         Standard orientation:
 ---------------------------------------------------------------------
 Center     Atomic      Atomic             Coordinates (Angstroms)
 Number     Number       Type             X           Y           Z
 ---------------------------------------------------------------------
      1          8           0        0.057121   -1.955699    0.000000
      2          1           0       -0.743842   -2.524877    0.000000
      3          1           0        0.855295   -2.528782    0.000000
      4          8           0        0.057121    2.062176    0.000000
      5          1           0       -0.458453    2.898651    0.000000
      6          1           0       -0.566938    1.303193    0.000000
 ---------------------------------------------------------------------

 SCF Done:  E(RHF) =  -152.108723741     A.U. after   10 cycles
 E2 =    -0.5261562646D+00 EUMP2 =    -0.15263488000562D+03
 CCSD(T)
 CCSD(T)= -0.15266203657D+03

 The electronic state is 1-A'.
 Alpha  occ. eigenvalues --  -20.56090 -20.54310  -1.33362  -1.31612  -0.70768
 Alpha  occ. eigenvalues --   -0.68981  -0.56842  -0.55081  -0.50484  -0.48740
 Alpha virt. eigenvalues --    0.12961   0.16055   0.19804   0.22912   0.53829
 Alpha virt. eigenvalues --    0.55005   0.56822   0.58568   0.66487   0.73150
 Alpha virt. eigenvalues --    0.78303   0.79289   0.80167   0.80879   0.82618

 Mulliken charges:
               1
     1  O   -0.506014
     2  H    0.250839
     3  H    0.258672
     4  O   -0.513464
     5  H    0.246781
     6  H    0.263187
 Sum of Mulliken charges =   0.00000

 Dipole moment (field-independent basis, Debye):
    X=             -1.9319    Y=             -1.9556    Z=              0.0000  Tot=              2.7489
 Quadrupole moment (field-independent basis, Debye-Ang):
   XX=             -9.8517   YY=             -1.5520   ZZ=            -14.7175
   XY=             -4.0985   XZ=              0.0000   YZ=              0.0000

 Normal termination of Gaussian 16 at Sat Aug 27 09:43:47 2022.
