 Gaussian 16, Revision A.03,
 Gaussian 16:  ES64L-G16RevA.03 25-Dec-2016

 ------------------
 #p CCSD(T)/cc-pVTZ
 ------------------

 -----------
 H2O_H2O_182
 -----------
 Symbolic Z-matrix:
 Charge =  0 Multiplicity = 1

                         Standard orientation:
 ---------------------------------------------------------------------
 Center     Atomic      Atomic             Coordinates (Angstroms)
 Number     Number       Type             X           Y           Z
 ---------------------------------------------------------------------
      1          8           0        0.025275   -0.890337    0.000000
      2          1           0       -0.775680   -1.459527    0.000000
      3          1           0        0.823458   -1.463408    0.000000
      4          8           0        0.025275    0.901994    0.000000
      5          1           0        0.491882    1.766740    0.000000
      6          1           0       -0.944057    1.062939    0.000000
 ---------------------------------------------------------------------

 SCF Done:  E(RHF) =  -152.000670740     A.U. after   11 cycles
 E2 =    -0.5417631457D+00 EUMP2 =    -0.15254243388598D+03
 CCSD(T)
 CCSD(T)= -0.15256840669D+03

 The electronic state is 1-A'.
 Alpha  occ. eigenvalues --  -20.51722 -20.51373  -1.34108  -1.27552  -0.70147
 Alpha  occ. eigenvalues --   -0.67194  -0.62396  -0.50851  -0.43938  -0.39289
 Alpha virt. eigenvalues --    0.14475   0.18832   0.20100   0.23286   0.52207
 Alpha virt. eigenvalues --    0.57651   0.58911   0.65723   0.70036   0.78488
 Alpha virt. eigenvalues --    0.79511   0.83213   0.83796   0.85912   0.88284

 Mulliken charges:
               1
     1  O   -0.401986
     2  H    0.191389
     3  H    0.209483
     4  O   -0.377173
     5  H    0.154472
     6  H    0.223814
 Sum of Mulliken charges =   0.00000

 Dipole moment (field-independent basis, Debye):
    X=             -0.7121    Y=             -0.2719    Z=              0.0000  Tot=              0.7623
 Quadrupole moment (field-independent basis, Debye-Ang):
   XX=             -8.6127   YY=             -7.3632   ZZ=            -14.7365
   XY=             -0.2896   XZ=              0.0000   YZ=              0.0000

 Normal termination of Gaussian 16 at Fri Aug 26 13:43:43 2022.
