 Gaussian 16, Revision A.03,
 Gaussian 16:  ES64L-G16RevA.03 25-Dec-2016

 ------------------
 #p CCSD(T)/cc-pVTZ
 ------------------

 -----------
 H2O_H2O_341
 -----------
 Symbolic Z-matrix:
 Charge =  0 Multiplicity = 1

                         Standard orientation:
 ---------------------------------------------------------------------
 Center     Atomic      Atomic             Coordinates (Angstroms)
 Number     Number       Type             X           Y           Z
 ---------------------------------------------------------------------
      1          8           0        0.049586   -0.945657    0.000000
      2          1           0       -0.752474   -1.513288    0.000000
      3          1           0        0.846652   -1.520279    0.000000
      4          8           0        0.049586    1.002337    0.000000
      5          1           0       -0.040967    1.980757    0.000000
      6          1           0       -0.846584    0.599368    0.000000
 ---------------------------------------------------------------------

 SCF Done:  E(RHF) =  -152.046257900     A.U. after   11 cycles
 E2 =    -0.5370988517D+00 EUMP2 =    -0.15258335675155D+03
 CCSD(T)
 CCSD(T)= -0.15260995339D+03

 The electronic state is 1-A'.
 Alpha  occ. eigenvalues --  -20.53916 -20.51422  -1.34348  -1.28221  -0.71669
 Alpha  occ. eigenvalues --   -0.68760  -0.56515  -0.50990  -0.46778  -0.45023
 Alpha virt. eigenvalues --    0.13851   0.18513   0.19801   0.24303   0.52307
 Alpha virt. eigenvalues --    0.56871   0.59569   0.63939   0.72371   0.76033
 Alpha virt. eigenvalues --    0.80362   0.82489   0.83479   0.84294   0.88288

 Mulliken charges:
               1
     1  O   -0.410638
     2  H    0.196505
     3  H    0.223912
     4  O   -0.417891
     5  H    0.166469
     6  H    0.241643
 Sum of Mulliken charges =  -0.00000

 Dipole moment (field-independent basis, Debye):
    X=             -1.4124    Y=             -1.1934    Z=              0.0000  Tot=              1.8490
 Quadrupole moment (field-independent basis, Debye-Ang):
   XX=             -9.4824   YY=             -6.3645   ZZ=            -14.6898
   XY=             -1.1005   XZ=              0.0000   YZ=              0.0000

 Normal termination of Gaussian 16 at Fri Aug 26 15:28:07 2022.
