 Gaussian 16, Revision A.03,
 Gaussian 16:  ES64L-G16RevA.03 25-Dec-2016

 ------------------
 #p CCSD(T)/cc-pVTZ
 ------------------

 ------------
 H2O_H2O_2674
 ------------
 Symbolic Z-matrix:
 Charge =  0 Multiplicity = 1

                         Standard orientation:
 ---------------------------------------------------------------------
 Center     Atomic      Atomic             Coordinates (Angstroms)
 Number     Number       Type             X           Y           Z
 ---------------------------------------------------------------------
      1          8           0        0.057240   -2.151069    0.000000
      2          1           0       -0.743600   -2.720419    0.000000
      3          1           0        0.855538   -2.723979    0.000000
      4          8           0        0.057240    2.265040    0.000000
      5          1           0       -0.512110    3.065881    0.000000
      6          1           0       -0.515671    1.466742    0.000000
 ---------------------------------------------------------------------

 SCF Done:  E(RHF) =  -152.108542888     A.U. after   10 cycles
 E2 =    -0.5260052224D+00 EUMP2 =    -0.15263454811005D+03
 CCSD(T)
 CCSD(T)= -0.15266172048D+03

 The electronic state is 1-A'.
 Alpha  occ. eigenvalues --  -20.56053 -20.54539  -1.33335  -1.31843  -0.70740
 Alpha  occ. eigenvalues --   -0.69220  -0.56819  -0.55310  -0.50455  -0.48967
 Alpha virt. eigenvalues --    0.13006   0.15683   0.19828   0.22126   0.53861
 Alpha virt. eigenvalues --    0.54885   0.56856   0.58315   0.66682   0.71359
 Alpha virt. eigenvalues --    0.78435   0.79368   0.79885   0.80371   0.82655

 Mulliken charges:
               1
     1  O   -0.509868
     2  H    0.252774
     3  H    0.258979
     4  O   -0.513095
     5  H    0.248855
     6  H    0.262355
 Sum of Mulliken charges =  -0.00000

 Dipole moment (field-independent basis, Debye):
    X=             -1.9475    Y=             -2.0593    Z=              0.0000  Tot=              2.8344
 Quadrupole moment (field-independent basis, Debye-Ang):
   XX=             -9.8616   YY=             -1.2712   ZZ=            -14.7163
   XY=             -4.6230   XZ=              0.0000   YZ=              0.0000

 Normal termination of Gaussian 16 at Fri Aug 26 14:56:56 2022.
