 Gaussian 16, Revision A.03,
 Gaussian 16:  ES64L-G16RevA.03 25-Dec-2016

 ------------------
 #p CCSD(T)/cc-pVTZ
 ------------------

 -----------
 H2O_H2O_487
 -----------
 Symbolic Z-matrix:
 Charge =  0 Multiplicity = 1

                         Standard orientation:
 ---------------------------------------------------------------------
 Center     Atomic      Atomic             Coordinates (Angstroms)
 Number     Number       Type             X           Y           Z
 ---------------------------------------------------------------------
      1          8           0        0.040440   -1.038192    0.000000
      2          1           0       -0.761009   -1.606685    0.000000
      3          1           0        0.838124   -1.611956    0.000000
      4          8           0        0.040440    1.071382    0.000000
      5          1           0        0.205165    2.040078    0.000000
      6          1           0       -0.929321    0.913046    0.000000
 ---------------------------------------------------------------------

 SCF Done:  E(RHF) =  -152.071603912     A.U. after   11 cycles
 E2 =    -0.5331795347D+00 EUMP2 =    -0.15260478344683D+03
 CCSD(T)
 CCSD(T)= -0.15263176754D+03

 The electronic state is 1-A'.
 Alpha  occ. eigenvalues --  -20.53351 -20.52174  -1.32422  -1.29090  -0.69563
 Alpha  occ. eigenvalues --   -0.67652  -0.58089  -0.49561  -0.47597  -0.45785
 Alpha virt. eigenvalues --    0.14207   0.17967   0.20179   0.23491   0.53173
 Alpha virt. eigenvalues --    0.57614   0.58321   0.63021   0.71246   0.76234
 Alpha virt. eigenvalues --    0.79239   0.81601   0.83460   0.85572   0.88004

 Mulliken charges:
               1
     1  O   -0.448466
     2  H    0.214259
     3  H    0.233555
     4  O   -0.422458
     5  H    0.184201
     6  H    0.238908
 Sum of Mulliken charges =  -0.00000

 Dipole moment (field-independent basis, Debye):
    X=             -1.1938    Y=             -0.6694    Z=              0.0000  Tot=              1.3686
 Quadrupole moment (field-independent basis, Debye-Ang):
   XX=             -9.0152   YY=             -5.1503   ZZ=            -14.7262
   XY=             -0.7360   XZ=              0.0000   YZ=              0.0000

 Normal termination of Gaussian 16 at Fri Aug 26 16:54:50 2022.
