 Gaussian 16, Revision A.03,
 Gaussian 16:  ES64L-G16RevA.03 25-Dec-2016

 ------------------
 #p CCSD(T)/cc-pVTZ
 ------------------

 ------------
 H2O_H2O_4454
 ------------
 Symbolic Z-matrix:
 Charge =  0 Multiplicity = 1

                         Standard orientation:
 ---------------------------------------------------------------------
 Center     Atomic      Atomic             Coordinates (Angstroms)
 Number     Number       Type             X           Y           Z
 ---------------------------------------------------------------------
      1          8           0        0.014783   -3.168164    0.000000
      2          1           0       -0.785017   -3.738975    0.000000
      3          1           0        0.814124   -3.739616    0.000000
      4          8           0        0.014783    3.172044    0.000000
      5          1           0        0.639594    3.930408    0.000000
      6          1           0       -0.905226    3.517140    0.000000
 ---------------------------------------------------------------------

 SCF Done:  E(RHF) =  -152.106849952     A.U. after   10 cycles
 E2 =    -0.5259273294D+00 EUMP2 =    -0.15263277728193D+03
 CCSD(T)
 CCSD(T)= -0.15266000932D+03

 The electronic state is 1-A'.
 Alpha  occ. eigenvalues --  -20.55211 -20.55189  -1.32507  -1.32485  -0.69914
 Alpha  occ. eigenvalues --   -0.69891  -0.55929  -0.55906  -0.49614  -0.49592
 Alpha virt. eigenvalues --    0.14414   0.14448   0.20464   0.20490   0.54654
 Alpha virt. eigenvalues --    0.54679   0.57523   0.57546   0.68287   0.68345
 Alpha virt. eigenvalues --    0.79264   0.79286   0.80708   0.80732   0.82635

 Mulliken charges:
               1
     1  O   -0.505573
     2  H    0.252455
     3  H    0.253119
     4  O   -0.505551
     5  H    0.252306
     6  H    0.253245
 Sum of Mulliken charges =  -0.00000

 Dipole moment (field-independent basis, Debye):
    X=             -0.5079    Y=             -0.0677    Z=              0.0000  Tot=              0.5124
 Quadrupole moment (field-independent basis, Debye-Ang):
   XX=             -7.9403   YY=             13.0282   ZZ=            -14.7107
   XY=             -1.1648   XZ=              0.0000   YZ=              0.0000

 4616\MP4DQ=-152.6419034\MP4SDQ=-152.6449631\CCSD=-152.6443749\CCSD(T)=
 Normal termination of Gaussian 16 at Sat Aug 27 07:24:26 2022.
