 Gaussian 16, Revision A.03,
 Gaussian 16:  ES64L-G16RevA.03 25-Dec-2016

 ------------------
 #p CCSD(T)/cc-pVTZ
 ------------------

 -----------
 H2O_H2O_775
 -----------
 Symbolic Z-matrix:
 Charge =  0 Multiplicity = 1

                         Standard orientation:
 ---------------------------------------------------------------------
 Center     Atomic      Atomic             Coordinates (Angstroms)
 Number     Number       Type             X           Y           Z
 ---------------------------------------------------------------------
      1          8           0        0.000000   -0.000000    1.215772
      2          1           0        0.000000    0.799571    1.786904
      3          1           0       -0.000000   -0.799571    1.786904
      4          8           0        0.000000   -0.000000   -1.215772
      5          1           0       -0.000000   -0.799571   -1.786904
      6          1           0        0.000000    0.799571   -1.786904
 ---------------------------------------------------------------------

 SCF Done:  E(RHF) =  -152.089414573     A.U. after   10 cycles
 E2 =    -0.5296566014D+00 EUMP2 =    -0.15261907117468D+03
 CCSD(T)
 CCSD(T)= -0.15264635578D+03

 The electronic state is 1-AG.
 Alpha  occ. eigenvalues --  -20.52906 -20.52906  -1.31013  -1.29947  -0.68249
 Alpha  occ. eigenvalues --   -0.67548  -0.57355  -0.49387  -0.48319  -0.46664
 Alpha virt. eigenvalues --    0.14530   0.17633   0.20580   0.22387   0.50254
 Alpha virt. eigenvalues --    0.58894   0.58943   0.63666   0.73174   0.76706
 Alpha virt. eigenvalues --    0.77300   0.79765   0.84113   0.86519   0.86555

 Mulliken charges:
               1
     1  O   -0.456763
     2  H    0.228382
     3  H    0.228382
     4  O   -0.456763
     5  H    0.228382
     6  H    0.228382
 Sum of Mulliken charges =   0.00000

 Dipole moment (field-independent basis, Debye):
    X=             -0.0000    Y=              0.0000    Z=              0.0000  Tot=              0.0000
 Quadrupole moment (field-independent basis, Debye-Ang):
   XX=            -14.7287   YY=             -7.9996   ZZ=             -3.2054
   XY=              0.0000   XZ=             -0.0000   YZ=             -0.0000

 \MP4DQ=-152.6275659\MP4SDQ=-152.6308325\CCSD=-152.6301713\CCSD(T)=-152
 Normal termination of Gaussian 16 at Fri Aug 26 19:52:28 2022.
