 Gaussian 16, Revision A.03,
 Gaussian 16:  ES64L-G16RevA.03 25-Dec-2016

 ------------------
 #p CCSD(T)/cc-pVTZ
 ------------------

 ------------
 H2O_H2O_3494
 ------------
 Symbolic Z-matrix:
 Charge =  0 Multiplicity = 1

                         Standard orientation:
 ---------------------------------------------------------------------
 Center     Atomic      Atomic             Coordinates (Angstroms)
 Number     Number       Type             X           Y           Z
 ---------------------------------------------------------------------
      1          8           0        0.054150   -2.609738    0.000000
      2          1           0       -0.746423   -3.179464    0.000000
      3          1           0        0.852716   -3.182275    0.000000
      4          8           0        0.054150    2.687058    0.000000
      5          1           0       -0.228005    3.628278    0.000000
      6          1           0       -0.744693    2.114907    0.000000
 ---------------------------------------------------------------------

 SCF Done:  E(RHF) =  -152.107419619     A.U. after   10 cycles
 E2 =    -0.5259122643D+00 EUMP2 =    -0.15263333188376D+03
 CCSD(T)
 CCSD(T)= -0.15266054877D+03

 The electronic state is 1-A'.
 Alpha  occ. eigenvalues --  -20.55592 -20.54936  -1.32890  -1.32232  -0.70297
 Alpha  occ. eigenvalues --   -0.69626  -0.56337  -0.55675  -0.50001  -0.49346
 Alpha virt. eigenvalues --    0.13875   0.14883   0.20130   0.20926   0.54232
 Alpha virt. eigenvalues --    0.54915   0.57185   0.57800   0.67373   0.69113
 Alpha virt. eigenvalues --    0.78881   0.79521   0.80264   0.80730   0.82658

 Mulliken charges:
               1
     1  O   -0.508876
     2  H    0.252492
     3  H    0.256453
     4  O   -0.508400
     5  H    0.250508
     6  H    0.257822
 Sum of Mulliken charges =  -0.00000

 Dipole moment (field-independent basis, Debye):
    X=             -1.8548    Y=             -1.3636    Z=              0.0000  Tot=              2.3021
 Quadrupole moment (field-independent basis, Debye-Ang):
   XX=             -9.6478   YY=              3.7166   ZZ=            -14.7124
   XY=             -4.5586   XZ=              0.0000   YZ=              0.0000

 Normal termination of Gaussian 16 at Fri Aug 26 22:48:10 2022.
