 Gaussian 16, Revision A.03,
 Gaussian 16:  ES64L-G16RevA.03 25-Dec-2016

 ------------------
 #p CCSD(T)/cc-pVTZ
 ------------------

 ------------
 H2O_H2O_2284
 ------------
 Symbolic Z-matrix:
 Charge =  0 Multiplicity = 1

                         Standard orientation:
 ---------------------------------------------------------------------
 Center     Atomic      Atomic             Coordinates (Angstroms)
 Number     Number       Type             X           Y           Z
 ---------------------------------------------------------------------
      1          8           0        0.031743   -2.003118    0.000000
      2          1           0       -0.768602   -2.573164    0.000000
      3          1           0        0.830539   -2.575334    0.000000
      4          8           0        0.031743    2.022282    0.000000
      5          1           0        0.380505    2.940907    0.000000
      6          1           0       -0.950337    2.054276    0.000000
 ---------------------------------------------------------------------

 SCF Done:  E(RHF) =  -152.105691747     A.U. after   10 cycles
 E2 =    -0.5262521648D+00 EUMP2 =    -0.15263194391193D+03
 CCSD(T)
 CCSD(T)= -0.15265917957D+03

 The electronic state is 1-A'.
 Alpha  occ. eigenvalues --  -20.54831 -20.54543  -1.32115  -1.31824  -0.69530
 Alpha  occ. eigenvalues --   -0.69227  -0.55523  -0.55114  -0.49217  -0.48925
 Alpha virt. eigenvalues --    0.13987   0.15652   0.20471   0.21255   0.53921
 Alpha virt. eigenvalues --    0.55607   0.57794   0.58131   0.63593   0.74577
 Alpha virt. eigenvalues --    0.79406   0.80180   0.80436   0.81140   0.82615

 Mulliken charges:
               1
     1  O   -0.497081
     2  H    0.246200
     3  H    0.251153
     4  O   -0.496863
     5  H    0.245057
     6  H    0.251534
 Sum of Mulliken charges =  -0.00000

 Dipole moment (field-independent basis, Debye):
    X=             -1.0730    Y=             -0.3471    Z=              0.0000  Tot=              1.1278
 Quadrupole moment (field-independent basis, Debye-Ang):
   XX=             -8.4582   YY=              3.2323   ZZ=            -14.7104
   XY=             -1.4123   XZ=              0.0000   YZ=              0.0000

 Normal termination of Gaussian 16 at Sat Aug 27 09:38:56 2022.
