 Gaussian 16, Revision A.03,
 Gaussian 16:  ES64L-G16RevA.03 25-Dec-2016

 ------------------
 #p CCSD(T)/cc-pVTZ
 ------------------

 ------------
 H2O_H2O_4802
 ------------
 Symbolic Z-matrix:
 Charge =  0 Multiplicity = 1

                         Standard orientation:
 ---------------------------------------------------------------------
 Center     Atomic      Atomic             Coordinates (Angstroms)
 Number     Number       Type             X           Y           Z
 ---------------------------------------------------------------------
      1          8           0        0.007455   -3.355884    0.000000
      2          1           0       -0.792225   -3.926864    0.000000
      3          1           0        0.806917   -3.927169    0.000000
      4          8           0        0.007455    3.356859    0.000000
      5          1           0        0.725766    4.027332    0.000000
      6          1           0       -0.859736    3.818905    0.000000
 ---------------------------------------------------------------------

 SCF Done:  E(RHF) =  -152.106931381     A.U. after   10 cycles
 E2 =    -0.5259165027D+00 EUMP2 =    -0.15263284788359D+03
 CCSD(T)
 CCSD(T)= -0.15266007842D+03

 The electronic state is 1-A'.
 Alpha  occ. eigenvalues --  -20.55245 -20.55240  -1.32541  -1.32536  -0.69948
 Alpha  occ. eigenvalues --   -0.69943  -0.55967  -0.55962  -0.49649  -0.49644
 Alpha virt. eigenvalues --    0.14390   0.14401   0.20442   0.20449   0.54620
 Alpha virt. eigenvalues --    0.54626   0.57495   0.57501   0.68255   0.68270
 Alpha virt. eigenvalues --    0.79230   0.79235   0.80672   0.80677   0.82598

 Mulliken charges:
               1
     1  O   -0.506051
     2  H    0.252883
     3  H    0.253168
     4  O   -0.506046
     5  H    0.252821
     6  H    0.253226
 Sum of Mulliken charges =  -0.00000

 Dipole moment (field-independent basis, Debye):
    X=             -0.2563    Y=             -0.0170    Z=              0.0000  Tot=              0.2569
 Quadrupole moment (field-independent basis, Debye-Ang):
   XX=             -7.8361   YY=             14.7345   ZZ=            -14.7108
   XY=             -0.6279   XZ=              0.0000   YZ=              0.0000

 Normal termination of Gaussian 16 at Sat Aug 27 09:24:57 2022.
