 Gaussian 16, Revision A.03,
 Gaussian 16:  ES64L-G16RevA.03 25-Dec-2016

 ------------------
 #p CCSD(T)/cc-pVTZ
 ------------------

 ------------
 H2O_H2O_4779
 ------------
 Symbolic Z-matrix:
 Charge =  0 Multiplicity = 1

                         Standard orientation:
 ---------------------------------------------------------------------
 Center     Atomic      Atomic             Coordinates (Angstroms)
 Number     Number       Type             X           Y           Z
 ---------------------------------------------------------------------
      1          8           0        0.014783   -3.341010    0.000000
      2          1           0       -0.785006   -3.911837    0.000000
      3          1           0        0.814136   -3.912446    0.000000
      4          8           0        0.014783    3.344891    0.000000
      5          1           0        0.639578    4.103269    0.000000
      6          1           0       -0.905233    3.689968    0.000000
 ---------------------------------------------------------------------

 SCF Done:  E(RHF) =  -152.106943478     A.U. after   10 cycles
 E2 =    -0.5259157682D+00 EUMP2 =    -0.15263285924615D+03
 CCSD(T)
 CCSD(T)= -0.15266008951D+03

 The electronic state is 1-A'.
 Alpha  occ. eigenvalues --  -20.55256 -20.55236  -1.32552  -1.32532  -0.69959
 Alpha  occ. eigenvalues --   -0.69938  -0.55978  -0.55958  -0.49660  -0.49640
 Alpha virt. eigenvalues --    0.14382   0.14405   0.20434   0.20455   0.54609
 Alpha virt. eigenvalues --    0.54631   0.57486   0.57506   0.68245   0.68271
 Alpha virt. eigenvalues --    0.79219   0.79239   0.80661   0.80682   0.82586

 Mulliken charges:
               1
     1  O   -0.506123
     2  H    0.252776
     3  H    0.253347
     4  O   -0.506106
     5  H    0.252644
     6  H    0.253462
 Sum of Mulliken charges =   0.00000

 Dipole moment (field-independent basis, Debye):
    X=             -0.5083    Y=             -0.0676    Z=              0.0000  Tot=              0.5128
 Quadrupole moment (field-independent basis, Debye-Ang):
   XX=             -7.9389   YY=             14.3863   ZZ=            -14.7109
   XY=             -1.2520   XZ=              0.0000   YZ=              0.0000

 Normal termination of Gaussian 16 at Sat Aug 27 09:17:31 2022.
