 Gaussian 16, Revision A.03,
 Gaussian 16:  ES64L-G16RevA.03 25-Dec-2016

 ------------------
 #p CCSD(T)/cc-pVTZ
 ------------------

 ------------
 H2O_H2O_2765
 ------------
 Symbolic Z-matrix:
 Charge =  0 Multiplicity = 1

                         Standard orientation:
 ---------------------------------------------------------------------
 Center     Atomic      Atomic             Coordinates (Angstroms)
 Number     Number       Type             X           Y           Z
 ---------------------------------------------------------------------
      1          8           0        0.047534   -2.238671    0.000000
      2          1           0       -0.753067   -2.808358    0.000000
      3          1           0        0.846072   -2.811246    0.000000
      4          8           0        0.047534    2.289265    0.000000
      5          1           0        0.018646    3.271441    0.000000
      6          1           0       -0.872189    1.943410    0.000000
 ---------------------------------------------------------------------

 SCF Done:  E(RHF) =  -152.106838223     A.U. after   10 cycles
 E2 =    -0.5260372590D+00 EUMP2 =    -0.15263287548221D+03
 CCSD(T)
 CCSD(T)= -0.15266009763D+03

 The electronic state is 1-A'.
 Alpha  occ. eigenvalues --  -20.55315 -20.54714  -1.32607  -1.32003  -0.70017
 Alpha  occ. eigenvalues --   -0.69394  -0.56022  -0.55419  -0.49714  -0.49114
 Alpha virt. eigenvalues --    0.13780   0.15328   0.20248   0.21208   0.54230
 Alpha virt. eigenvalues --    0.55016   0.57432   0.57957   0.66262   0.71839
 Alpha virt. eigenvalues --    0.79155   0.79764   0.80328   0.81528   0.83031

 Mulliken charges:
               1
     1  O   -0.504743
     2  H    0.249795
     3  H    0.255247
     4  O   -0.504574
     5  H    0.247862
     6  H    0.256414
 Sum of Mulliken charges =  -0.00000

 Dipole moment (field-independent basis, Debye):
    X=             -1.6184    Y=             -0.9039    Z=              0.0000  Tot=              1.8537
 Quadrupole moment (field-independent basis, Debye-Ang):
   XX=             -9.2279   YY=              3.3851   ZZ=            -14.7119
   XY=             -2.9847   XZ=              0.0000   YZ=              0.0000

 Normal termination of Gaussian 16 at Fri Aug 26 15:54:52 2022.
