 Gaussian 16, Revision A.03,
 Gaussian 16:  ES64L-G16RevA.03 25-Dec-2016

 ------------------
 #p CCSD(T)/cc-pVTZ
 ------------------

 ------------
 H2O_H2O_4248
 ------------
 Symbolic Z-matrix:
 Charge =  0 Multiplicity = 1

                         Standard orientation:
 ---------------------------------------------------------------------
 Center     Atomic      Atomic             Coordinates (Angstroms)
 Number     Number       Type             X           Y           Z
 ---------------------------------------------------------------------
      1          8           0        0.057077   -2.992730    0.000000
      2          1           0       -0.743413   -3.562574    0.000000
      3          1           0        0.855727   -3.565150    0.000000
      4          8           0        0.057077    3.099302    0.000000
      5          1           0       -0.459192    3.935348    0.000000
      6          1           0       -0.566351    2.339800    0.000000
 ---------------------------------------------------------------------

 SCF Done:  E(RHF) =  -152.107682560     A.U. after   10 cycles
 E2 =    -0.5258599765D+00 EUMP2 =    -0.15263354253653D+03
 CCSD(T)
 CCSD(T)= -0.15266075644D+03

 The electronic state is 1-A'.
 Alpha  occ. eigenvalues --  -20.55759 -20.55095  -1.33059  -1.32395  -0.70464
 Alpha  occ. eigenvalues --   -0.69793  -0.56519  -0.55849  -0.50172  -0.49511
 Alpha virt. eigenvalues --    0.13899   0.14628   0.20026   0.20747   0.54092
 Alpha virt. eigenvalues --    0.54775   0.57036   0.57694   0.67570   0.68412
 Alpha virt. eigenvalues --    0.78709   0.79358   0.80132   0.80773   0.82160

 Mulliken charges:
               1
     1  O   -0.510525
     2  H    0.253951
     3  H    0.256581
     4  O   -0.510087
     5  H    0.252187
     6  H    0.257892
 Sum of Mulliken charges =  -0.00000

 Dipole moment (field-independent basis, Debye):
    X=             -1.9609    Y=             -1.8656    Z=              0.0000  Tot=              2.7066
 Quadrupole moment (field-independent basis, Debye-Ang):
   XX=             -9.8548   YY=              2.8676   ZZ=            -14.7128
   XY=             -6.1028   XZ=              0.0000   YZ=              0.0000

 Normal termination of Gaussian 16 at Sat Aug 27 06:14:48 2022.
