 Gaussian 16, Revision A.03,
 Gaussian 16:  ES64L-G16RevA.03 25-Dec-2016

 ------------------
 #p CCSD(T)/cc-pVTZ
 ------------------

 ------------
 H2O_H2O_3359
 ------------
 Symbolic Z-matrix:
 Charge =  0 Multiplicity = 1

                         Standard orientation:
 ---------------------------------------------------------------------
 Center     Atomic      Atomic             Coordinates (Angstroms)
 Number     Number       Type             X           Y           Z
 ---------------------------------------------------------------------
      1          8           0        0.031741   -2.574832    0.000000
      2          1           0       -0.768434   -3.145118    0.000000
      3          1           0        0.830707   -3.146808    0.000000
      4          8           0        0.031741    2.594015    0.000000
      5          1           0        0.380227    3.512744    0.000000
      6          1           0       -0.950349    2.625714    0.000000
 ---------------------------------------------------------------------

 SCF Done:  E(RHF) =  -152.106542153     A.U. after   10 cycles
 E2 =    -0.5259834651D+00 EUMP2 =    -0.15263252561809D+03
 CCSD(T)
 CCSD(T)= -0.15265976239D+03

 The electronic state is 1-A'.
 Alpha  occ. eigenvalues --  -20.55119 -20.54952  -1.32414  -1.32245  -0.69823
 Alpha  occ. eigenvalues --   -0.69649  -0.55820  -0.55652  -0.49519  -0.49351
 Alpha virt. eigenvalues --    0.14336   0.14790   0.20476   0.20732   0.54703
 Alpha virt. eigenvalues --    0.54960   0.57584   0.57764   0.67750   0.69333
 Alpha virt. eigenvalues --    0.79358   0.79524   0.80790   0.81006   0.82741

 Mulliken charges:
               1
     1  O   -0.503793
     2  H    0.250629
     3  H    0.253170
     4  O   -0.503540
     5  H    0.249968
     6  H    0.253566
 Sum of Mulliken charges =   0.00000

 Dipole moment (field-independent basis, Debye):
    X=             -1.0859    Y=             -0.3378    Z=              0.0000  Tot=              1.1372
 Quadrupole moment (field-independent basis, Debye-Ang):
   XX=             -8.4424   YY=              7.4937   ZZ=            -14.7105
   XY=             -2.0227   XZ=              0.0000   YZ=              0.0000

 Normal termination of Gaussian 16 at Fri Aug 26 21:40:35 2022.
