 Gaussian 16, Revision A.03,
 Gaussian 16:  ES64L-G16RevA.03 25-Dec-2016

 ------------------
 #p CCSD(T)/cc-pVTZ
 ------------------

 ------------
 H2O_H2O_3803
 ------------
 Symbolic Z-matrix:
 Charge =  0 Multiplicity = 1

                         Standard orientation:
 ---------------------------------------------------------------------
 Center     Atomic      Atomic             Coordinates (Angstroms)
 Number     Number       Type             X           Y           Z
 ---------------------------------------------------------------------
      1          8           0        0.011143   -2.823389    0.000000
      2          1           0       -0.788622   -3.394250    0.000000
      3          1           0        0.810520   -3.394793    0.000000
      4          8           0        0.011143    2.825577    0.000000
      5          1           0        0.684171    3.541494    0.000000
      6          1           0       -0.884350    3.230050    0.000000
 ---------------------------------------------------------------------

 SCF Done:  E(RHF) =  -152.106572570     A.U. after   10 cycles
 E2 =    -0.5259628220D+00 EUMP2 =    -0.15263253539183D+03
 CCSD(T)
 CCSD(T)= -0.15265977267D+03

 The electronic state is 1-A'.
 Alpha  occ. eigenvalues --  -20.55088 -20.55072  -1.32382  -1.32366  -0.69790
 Alpha  occ. eigenvalues --   -0.69774  -0.55790  -0.55774  -0.49488  -0.49472
 Alpha virt. eigenvalues --    0.14466   0.14589   0.20535   0.20585   0.54767
 Alpha virt. eigenvalues --    0.54812   0.57621   0.57648   0.68261   0.68688
 Alpha virt. eigenvalues --    0.79390   0.79406   0.80834   0.80861   0.82761

 Mulliken charges:
               1
     1  O   -0.503944
     2  H    0.251625
     3  H    0.252319
     4  O   -0.503921
     5  H    0.251489
     6  H    0.252431
 Sum of Mulliken charges =  -0.00000

 Dipole moment (field-independent basis, Debye):
    X=             -0.3820    Y=             -0.0383    Z=              0.0000  Tot=              0.3839
 Quadrupole moment (field-independent basis, Debye-Ang):
   XX=             -7.8854   YY=             10.4131   ZZ=            -14.7103
   XY=             -0.7410   XZ=              0.0000   YZ=              0.0000

 Normal termination of Gaussian 16 at Sat Aug 27 03:26:58 2022.
