 Gaussian 16, Revision A.03,
 Gaussian 16:  ES64L-G16RevA.03 25-Dec-2016

 ------------------
 #p CCSD(T)/cc-pVTZ
 ------------------

 ------------
 H2O_H2O_4975
 ------------
 Symbolic Z-matrix:
 Charge =  0 Multiplicity = 1

                         Standard orientation:
 ---------------------------------------------------------------------
 Center     Atomic      Atomic             Coordinates (Angstroms)
 Number     Number       Type             X           Y           Z
 ---------------------------------------------------------------------
      1          8           0        0.000000   -0.000000    3.449485
      2          1           0        0.000000    0.799571    4.020617
      3          1           0       -0.000000   -0.799571    4.020617
      4          8           0        0.000000   -0.000000   -3.449485
      5          1           0       -0.000000   -0.799571   -4.020617
      6          1           0        0.000000    0.799571   -4.020617
 ---------------------------------------------------------------------

 SCF Done:  E(RHF) =  -152.106969614     A.U. after   10 cycles
 E2 =    -0.5259117082D+00 EUMP2 =    -0.15263288132220D+03
 CCSD(T)
 CCSD(T)= -0.15266011114D+03

 The electronic state is 1-AG.
 Alpha  occ. eigenvalues --  -20.55262 -20.55262  -1.32559  -1.32559  -0.69966
 Alpha  occ. eigenvalues --   -0.69966  -0.55986  -0.55986  -0.49667  -0.49667
 Alpha virt. eigenvalues --    0.14376   0.14381   0.20429   0.20432   0.54602
 Alpha virt. eigenvalues --    0.54603   0.57480   0.57482   0.68234   0.68241
 Alpha virt. eigenvalues --    0.79212   0.79212   0.80653   0.80654   0.82578

 Mulliken charges:
               1
     1  O   -0.506275
     2  H    0.253137
     3  H    0.253137
     4  O   -0.506275
     5  H    0.253137
     6  H    0.253137
 Sum of Mulliken charges =   0.00000

 Dipole moment (field-independent basis, Debye):
    X=             -0.0000    Y=              0.0000    Z=             -0.0000  Tot=              0.0000
 Quadrupole moment (field-independent basis, Debye-Ang):
   XX=            -14.7109   YY=             -7.8003   ZZ=             15.5585
   XY=              0.0000   XZ=              0.0000   YZ=             -0.0000

 1\MP4DQ=-152.6420083\MP4SDQ=-152.6450669\CCSD=-152.6444791\CCSD(T)=-15
 Normal termination of Gaussian 16 at Sat Aug 27 10:25:52 2022.
