 Gaussian 16, Revision A.03,
 Gaussian 16:  ES64L-G16RevA.03 25-Dec-2016

 ------------------
 #p CCSD(T)/cc-pVTZ
 ------------------

 ------------
 H2O_H2O_1053
 ------------
 Symbolic Z-matrix:
 Charge =  0 Multiplicity = 1

                         Standard orientation:
 ---------------------------------------------------------------------
 Center     Atomic      Atomic             Coordinates (Angstroms)
 Number     Number       Type             X           Y           Z
 ---------------------------------------------------------------------
      1          8           0        0.011143   -1.360843    0.000000
      2          1           0       -0.788830   -1.931412    0.000000
      3          1           0        0.810312   -1.932538    0.000000
      4          8           0        0.011143    1.363022    0.000000
      5          1           0        0.684432    2.078695    0.000000
      6          1           0       -0.884202    1.767823    0.000000
 ---------------------------------------------------------------------

 SCF Done:  E(RHF) =  -152.097888910     A.U. after   11 cycles
 E2 =    -0.5281652051D+00 EUMP2 =    -0.15262605411509D+03
 CCSD(T)
 CCSD(T)= -0.15265336958D+03

 The electronic state is 1-A'.
 Alpha  occ. eigenvalues --  -20.53505 -20.53447  -1.31101  -1.30608  -0.68467
 Alpha  occ. eigenvalues --   -0.68116  -0.56180  -0.51640  -0.48352  -0.47470
 Alpha virt. eigenvalues --    0.14438   0.17126   0.20557   0.22142   0.50974
 Alpha virt. eigenvalues --    0.58576   0.58790   0.61563   0.71100   0.76476
 Alpha virt. eigenvalues --    0.76981   0.78495   0.79884   0.83497   0.86307

 Mulliken charges:
               1
     1  O   -0.466134
     2  H    0.230638
     3  H    0.235317
     4  O   -0.464128
     5  H    0.229962
     6  H    0.234345
 Sum of Mulliken charges =  -0.00000

 Dipole moment (field-independent basis, Debye):
    X=             -0.3573    Y=             -0.0415    Z=              0.0000  Tot=              0.3597
 Quadrupole moment (field-independent basis, Debye-Ang):
   XX=             -8.0132   YY=             -1.7558   ZZ=            -14.7160
   XY=             -0.2014   XZ=              0.0000   YZ=              0.0000

 Normal termination of Gaussian 16 at Sat Aug 27 01:42:13 2022.
