 Gaussian 16, Revision A.03,
 Gaussian 16:  ES64L-G16RevA.03 25-Dec-2016

 ------------------
 #p CCSD(T)/cc-pVTZ
 ------------------

 ------------
 H2O_H2O_2735
 ------------
 Symbolic Z-matrix:
 Charge =  0 Multiplicity = 1

                         Standard orientation:
 ---------------------------------------------------------------------
 Center     Atomic      Atomic             Coordinates (Angstroms)
 Number     Number       Type             X           Y           Z
 ---------------------------------------------------------------------
      1          8           0        0.034784   -2.240083    0.000000
      2          1           0       -0.765545   -2.810152    0.000000
      3          1           0        0.833595   -2.812277    0.000000
      4          8           0        0.034784    2.263595    0.000000
      5          1           0        0.322693    3.203071    0.000000
      6          1           0       -0.947286    2.231261    0.000000
 ---------------------------------------------------------------------

 SCF Done:  E(RHF) =  -152.106214017     A.U. after   10 cycles
 E2 =    -0.5260764417D+00 EUMP2 =    -0.15263229045900D+03
 CCSD(T)
 CCSD(T)= -0.15265952820D+03

 The electronic state is 1-A'.
 Alpha  occ. eigenvalues --  -20.55016 -20.54741  -1.32307  -1.32028  -0.69718
 Alpha  occ. eigenvalues --   -0.69430  -0.55698  -0.55410  -0.49410  -0.49134
 Alpha virt. eigenvalues --    0.14096   0.15243   0.20450   0.21010   0.54485
 Alpha virt. eigenvalues --    0.55247   0.57657   0.57941   0.65897   0.71900
 Alpha virt. eigenvalues --    0.79435   0.79767   0.80792   0.81323   0.82579

 Mulliken charges:
               1
     1  O   -0.501593
     2  H    0.248811
     3  H    0.252875
     4  O   -0.501170
     5  H    0.247750
     6  H    0.253327
 Sum of Mulliken charges =  -0.00000

 Dipole moment (field-independent basis, Debye):
    X=             -1.1838    Y=             -0.4191    Z=              0.0000  Tot=              1.2558
 Quadrupole moment (field-independent basis, Debye-Ang):
   XX=             -8.5750   YY=              4.8051   ZZ=            -14.7105
   XY=             -1.8740   XZ=              0.0000   YZ=              0.0000

 Normal termination of Gaussian 16 at Fri Aug 26 15:36:05 2022.
