 Gaussian 16, Revision A.03,
 Gaussian 16:  ES64L-G16RevA.03 25-Dec-2016

 ------------------
 #p CCSD(T)/cc-pVTZ
 ------------------

 ------------
 H2O_H2O_1951
 ------------
 Symbolic Z-matrix:
 Charge =  0 Multiplicity = 1

                         Standard orientation:
 ---------------------------------------------------------------------
 Center     Atomic      Atomic             Coordinates (Angstroms)
 Number     Number       Type             X           Y           Z
 ---------------------------------------------------------------------
      1          8           0        0.003735   -1.840548    0.000000
      2          1           0       -0.795935   -2.411540    0.000000
      3          1           0        0.803207   -2.411819    0.000000
      4          8           0        0.003735    1.840791    0.000000
      5          1           0        0.764350    2.462861    0.000000
      6          1           0       -0.831387    2.358551    0.000000
 ---------------------------------------------------------------------

 SCF Done:  E(RHF) =  -152.104477580     A.U. after   10 cycles
 E2 =    -0.5265043156D+00 EUMP2 =    -0.15263098189554D+03
 CCSD(T)
 CCSD(T)= -0.15265823430D+03

 The electronic state is 1-A'.
 Alpha  occ. eigenvalues --  -20.54395 -20.54391  -1.31690  -1.31654  -0.69111
 Alpha  occ. eigenvalues --   -0.69078  -0.55308  -0.54584  -0.48818  -0.48714
 Alpha virt. eigenvalues --    0.14218   0.15920   0.20623   0.21299   0.53810
 Alpha virt. eigenvalues --    0.57074   0.57957   0.58319   0.60998   0.75606
 Alpha virt. eigenvalues --    0.79270   0.80100   0.80605   0.80852   0.83046

 Mulliken charges:
               1
     1  O   -0.488708
     2  H    0.243996
     3  H    0.244720
     4  O   -0.488706
     5  H    0.243930
     6  H    0.244769
 Sum of Mulliken charges =  -0.00000

 Dipole moment (field-independent basis, Debye):
    X=             -0.1254    Y=             -0.0045    Z=              0.0000  Tot=              0.1255
 Quadrupole moment (field-independent basis, Debye-Ang):
   XX=             -7.8575   YY=              2.5223   ZZ=            -14.7090
   XY=             -0.1228   XZ=              0.0000   YZ=              0.0000

 Normal termination of Gaussian 16 at Sat Aug 27 07:44:14 2022.
