 Gaussian 16, Revision A.03,
 Gaussian 16:  ES64L-G16RevA.03 25-Dec-2016

 ------------------
 #p CCSD(T)/cc-pVTZ
 ------------------

 ------------
 H2O_H2O_2044
 ------------
 Symbolic Z-matrix:
 Charge =  0 Multiplicity = 1

                         Standard orientation:
 ---------------------------------------------------------------------
 Center     Atomic      Atomic             Coordinates (Angstroms)
 Number     Number       Type             X           Y           Z
 ---------------------------------------------------------------------
      1          8           0        0.054178   -1.838617    0.000000
      2          1           0       -0.746807   -2.407764    0.000000
      3          1           0        0.852330   -2.411730    0.000000
      4          8           0        0.054178    1.915858    0.000000
      5          1           0       -0.227297    2.857281    0.000000
      6          1           0       -0.745078    1.344284    0.000000
 ---------------------------------------------------------------------

 SCF Done:  E(RHF) =  -152.107665492     A.U. after   10 cycles
 E2 =    -0.5263373481D+00 EUMP2 =    -0.15263400283973D+03
 CCSD(T)
 CCSD(T)= -0.15266117589D+03

 The electronic state is 1-A'.
 Alpha  occ. eigenvalues --  -20.55688 -20.54226  -1.32961  -1.31510  -0.70373
 Alpha  occ. eigenvalues --   -0.68880  -0.56388  -0.54943  -0.50076  -0.48633
 Alpha virt. eigenvalues --    0.13265   0.16189   0.19976   0.22670   0.54151
 Alpha virt. eigenvalues --    0.54355   0.57141   0.58550   0.65207   0.75262
 Alpha virt. eigenvalues --    0.78473   0.78909   0.80132   0.80479   0.84715

 Mulliken charges:
               1
     1  O   -0.500325
     2  H    0.247023
     3  H    0.256425
     4  O   -0.506710
     5  H    0.243571
     6  H    0.260016
 Sum of Mulliken charges =  -0.00000

 Dipole moment (field-independent basis, Debye):
    X=             -1.8203    Y=             -1.4293    Z=              0.0000  Tot=              2.3144
 Quadrupole moment (field-independent basis, Debye-Ang):
   XX=             -9.6516   YY=             -0.4090   ZZ=            -14.7159
   XY=             -3.1526   XZ=              0.0000   YZ=              0.0000

 Normal termination of Gaussian 16 at Sat Aug 27 08:16:23 2022.
