 Gaussian 16, Revision A.03,
 Gaussian 16:  ES64L-G16RevA.03 25-Dec-2016

 ------------------
 #p CCSD(T)/cc-pVTZ
 ------------------

 -----------
 H2O_H2O_807
 -----------
 Symbolic Z-matrix:
 Charge =  0 Multiplicity = 1

                         Standard orientation:
 ---------------------------------------------------------------------
 Center     Atomic      Atomic             Coordinates (Angstroms)
 Number     Number       Type             X           Y           Z
 ---------------------------------------------------------------------
      1          8           0        0.025271   -1.222718    0.000000
      2          1           0       -0.775310   -1.792434    0.000000
      3          1           0        0.823830   -1.795264    0.000000
      4          8           0        0.025271    1.234408    0.000000
      5          1           0        0.491311    2.099459    0.000000
      6          1           0       -0.944166    1.394715    0.000000
 ---------------------------------------------------------------------

 SCF Done:  E(RHF) =  -152.092139722     A.U. after   11 cycles
 E2 =    -0.5294764602D+00 EUMP2 =    -0.15262161618174D+03
 CCSD(T)
 CCSD(T)= -0.15264887976D+03

 The electronic state is 1-A'.
 Alpha  occ. eigenvalues --  -20.53342 -20.52987  -1.31242  -1.30117  -0.68530
 Alpha  occ. eigenvalues --   -0.67730  -0.57077  -0.50144  -0.48529  -0.46888
 Alpha virt. eigenvalues --    0.14397   0.17456   0.20487   0.22612   0.51579
 Alpha virt. eigenvalues --    0.58616   0.58769   0.62490   0.71189   0.76469
 Alpha virt. eigenvalues --    0.76940   0.79827   0.83873   0.86285   0.86465

 Mulliken charges:
               1
     1  O   -0.463600
     2  H    0.225235
     3  H    0.236976
     4  O   -0.450948
     5  H    0.216575
     6  H    0.235762
 Sum of Mulliken charges =  -0.00000

 Dipole moment (field-independent basis, Debye):
    X=             -0.7871    Y=             -0.2275    Z=              0.0000  Tot=              0.8193
 Quadrupole moment (field-independent basis, Debye-Ang):
   XX=             -8.3706   YY=             -3.1452   ZZ=            -14.7259
   XY=             -0.4271   XZ=              0.0000   YZ=              0.0000

 Normal termination of Gaussian 16 at Fri Aug 26 20:12:12 2022.
