 Gaussian 16, Revision A.03,
 Gaussian 16:  ES64L-G16RevA.03 25-Dec-2016

 ------------------
 #p CCSD(T)/cc-pVTZ
 ------------------

 -----------
 H2O_H2O_377
 -----------
 Symbolic Z-matrix:
 Charge =  0 Multiplicity = 1

                         Standard orientation:
 ---------------------------------------------------------------------
 Center     Atomic      Atomic             Coordinates (Angstroms)
 Number     Number       Type             X           Y           Z
 ---------------------------------------------------------------------
      1          8           0        0.007455   -1.002512    0.000000
      2          1           0       -0.792481   -1.573132    0.000000
      3          1           0        0.806661   -1.574155    0.000000
      4          8           0        0.007455    1.003480    0.000000
      5          1           0        0.726067    1.673631    0.000000
      6          1           0       -0.859528    1.465915    0.000000
 ---------------------------------------------------------------------

 SCF Done:  E(RHF) =  -152.050053961     A.U. after   11 cycles
 E2 =    -0.5352707523D+00 EUMP2 =    -0.15258532471378D+03
 CCSD(T)
 CCSD(T)= -0.15261213725D+03

 The electronic state is 1-A'.
 Alpha  occ. eigenvalues --  -20.51802 -20.51772  -1.31921  -1.28497  -0.68499
 Alpha  occ. eigenvalues --   -0.66440  -0.61087  -0.49139  -0.44923  -0.43522
 Alpha virt. eigenvalues --    0.14659   0.18456   0.20466   0.22824   0.50326
 Alpha virt. eigenvalues --    0.59136   0.59234   0.66256   0.69858   0.78026
 Alpha virt. eigenvalues --    0.79193   0.82884   0.84459   0.86674   0.87289

 Mulliken charges:
               1
     1  O   -0.429072
     2  H    0.212098
     3  H    0.216682
     4  O   -0.426229
     5  H    0.205736
     6  H    0.220785
 Sum of Mulliken charges =  -0.00000

 Dipole moment (field-independent basis, Debye):
    X=             -0.2182    Y=             -0.0207    Z=              0.0000  Tot=              0.2192
 Quadrupole moment (field-independent basis, Debye-Ang):
   XX=             -8.1873   YY=             -5.7329   ZZ=            -14.7519
   XY=             -0.0692   XZ=              0.0000   YZ=              0.0000

 7614\MP4DQ=-152.5925146\MP4SDQ=-152.5960619\CCSD=-152.595276\CCSD(T)=-
 Normal termination of Gaussian 16 at Fri Aug 26 15:49:22 2022.
