 Gaussian 16, Revision A.03,
 Gaussian 16:  ES64L-G16RevA.03 25-Dec-2016

 ------------------
 #p CCSD(T)/cc-pVTZ
 ------------------

 ------------
 H2O_H2O_1167
 ------------
 Symbolic Z-matrix:
 Charge =  0 Multiplicity = 1

                         Standard orientation:
 ---------------------------------------------------------------------
 Center     Atomic      Atomic             Coordinates (Angstroms)
 Number     Number       Type             X           Y           Z
 ---------------------------------------------------------------------
      1          8           0        0.051322   -1.380783    0.000000
      2          1           0       -0.750028   -1.949416    0.000000
      3          1           0        0.849107   -1.954408    0.000000
      4          8           0        0.051322    1.444168    0.000000
      5          1           0       -0.104240    2.414377    0.000000
      6          1           0       -0.815997    0.982365    0.000000
 ---------------------------------------------------------------------

 SCF Done:  E(RHF) =  -152.104543370     A.U. after   10 cycles
 E2 =    -0.5278839280D+00 EUMP2 =    -0.15263242729817D+03
 CCSD(T)
 CCSD(T)= -0.15265959518D+03

 The electronic state is 1-A'.
 Alpha  occ. eigenvalues --  -20.55337 -20.53331  -1.32718  -1.30587  -0.70137
 Alpha  occ. eigenvalues --   -0.68114  -0.56167  -0.53659  -0.49840  -0.47669
 Alpha virt. eigenvalues --    0.13610   0.17179   0.19960   0.23642   0.53522
 Alpha virt. eigenvalues --    0.57308   0.57432   0.58449   0.69310   0.75616
 Alpha virt. eigenvalues --    0.75887   0.77526   0.81154   0.82576   0.84924

 Mulliken charges:
               1
     1  O   -0.480402
     2  H    0.235713
     3  H    0.252270
     4  O   -0.486826
     5  H    0.226593
     6  H    0.252652
 Sum of Mulliken charges =  -0.00000

 Dipole moment (field-independent basis, Debye):
    X=             -1.6521    Y=             -1.2376    Z=              0.0000  Tot=              2.0642
 Quadrupole moment (field-independent basis, Debye-Ang):
   XX=             -9.4984   YY=             -2.6467   ZZ=            -14.7221
   XY=             -1.9788   XZ=              0.0000   YZ=              0.0000

 Normal termination of Gaussian 16 at Sat Aug 27 02:40:48 2022.
