 Gaussian 16, Revision A.03,
 Gaussian 16:  ES64L-G16RevA.03 25-Dec-2016

 ------------------
 #p CCSD(T)/cc-pVTZ
 ------------------

 -----------
 H2O_H2O_840
 -----------
 Symbolic Z-matrix:
 Charge =  0 Multiplicity = 1

                         Standard orientation:
 ---------------------------------------------------------------------
 Center     Atomic      Atomic             Coordinates (Angstroms)
 Number     Number       Type             X           Y           Z
 ---------------------------------------------------------------------
      1          8           0        0.047571   -1.214960    0.000000
      2          1           0       -0.753878   -1.783453    0.000000
      3          1           0        0.845255   -1.788724    0.000000
      4          8           0        0.047571    1.265412    0.000000
      5          1           0        0.020148    2.247631    0.000000
      6          1           0       -0.872666    0.920927    0.000000
 ---------------------------------------------------------------------

 SCF Done:  E(RHF) =  -152.097102762     A.U. after   11 cycles
 E2 =    -0.5294340006D+00 EUMP2 =    -0.15262653676266D+03
 CCSD(T)
 CCSD(T)= -0.15265370848D+03

 The electronic state is 1-A'.
 Alpha  occ. eigenvalues --  -20.54660 -20.52869  -1.32374  -1.30087  -0.69755
 Alpha  occ. eigenvalues --   -0.67930  -0.56389  -0.51978  -0.49528  -0.47046
 Alpha virt. eigenvalues --    0.13852   0.17525   0.20070   0.23623   0.53153
 Alpha virt. eigenvalues --    0.57605   0.58474   0.60178   0.70901   0.75294
 Alpha virt. eigenvalues --    0.77769   0.80110   0.83158   0.85202   0.85224

 Mulliken charges:
               1
     1  O   -0.469163
     2  H    0.228117
     3  H    0.246601
     4  O   -0.464670
     5  H    0.211926
     6  H    0.247190
 Sum of Mulliken charges =   0.00000

 Dipole moment (field-independent basis, Debye):
    X=             -1.4828    Y=             -0.9971    Z=              0.0000  Tot=              1.7868
 Quadrupole moment (field-independent basis, Debye-Ang):
   XX=             -9.3125   YY=             -3.6065   ZZ=            -14.7244
   XY=             -1.3785   XZ=              0.0000   YZ=              0.0000

 Normal termination of Gaussian 16 at Fri Aug 26 20:28:40 2022.
