 Gaussian 16, Revision A.03,
 Gaussian 16:  ES64L-G16RevA.03 25-Dec-2016

 ------------------
 #p CCSD(T)/cc-pVTZ
 ------------------

 ------------
 H2O_H2O_3574
 ------------
 Symbolic Z-matrix:
 Charge =  0 Multiplicity = 1

                         Standard orientation:
 ---------------------------------------------------------------------
 Center     Atomic      Atomic             Coordinates (Angstroms)
 Number     Number       Type             X           Y           Z
 ---------------------------------------------------------------------
      1          8           0        0.057218   -2.629697    0.000000
      2          1           0       -0.743397   -3.199365    0.000000
      3          1           0        0.855742   -3.202292    0.000000
      4          8           0        0.057218    2.743715    0.000000
      5          1           0       -0.512450    3.544329    0.000000
      6          1           0       -0.515377    1.945190    0.000000
 ---------------------------------------------------------------------

 SCF Done:  E(RHF) =  -152.107926438     A.U. after   10 cycles
 E2 =    -0.5258714895D+00 EUMP2 =    -0.15263379792772D+03
 CCSD(T)
 CCSD(T)= -0.15266100313D+03

 The electronic state is 1-A'.
 Alpha  occ. eigenvalues --  -20.55859 -20.54921  -1.33158  -1.32222  -0.70563
 Alpha  occ. eigenvalues --   -0.69614  -0.56628  -0.55680  -0.50273  -0.49340
 Alpha virt. eigenvalues --    0.13605   0.14944   0.19948   0.21045   0.53976
 Alpha virt. eigenvalues --    0.54880   0.56958   0.57811   0.67060   0.69036
 Alpha virt. eigenvalues --    0.78613   0.79521   0.79973   0.80355   0.82714

 Mulliken charges:
               1
     1  O   -0.511678
     2  H    0.254049
     3  H    0.257773
     4  O   -0.511073
     5  H    0.251289
     6  H    0.259640
 Sum of Mulliken charges =  -0.00000

 Dipole moment (field-independent basis, Debye):
    X=             -1.9610    Y=             -2.0114    Z=              0.0000  Tot=              2.8091
 Quadrupole moment (field-independent basis, Debye-Ang):
   XX=             -9.8632   YY=              0.6347   ZZ=            -14.7136
   XY=             -5.5498   XZ=              0.0000   YZ=              0.0000

 Normal termination of Gaussian 16 at Sat Aug 27 01:36:54 2022.
