 Gaussian 16, Revision A.03,
 Gaussian 16:  ES64L-G16RevA.03 25-Dec-2016

 ------------------
 #p CCSD(T)/cc-pVTZ
 ------------------

 ------------
 H2O_H2O_2417
 ------------
 Symbolic Z-matrix:
 Charge =  0 Multiplicity = 1

                         Standard orientation:
 ---------------------------------------------------------------------
 Center     Atomic      Atomic             Coordinates (Angstroms)
 Number     Number       Type             X           Y           Z
 ---------------------------------------------------------------------
      1          8           0        0.051291   -2.045525    0.000000
      2          1           0       -0.749491   -2.614958    0.000000
      3          1           0        0.849648   -2.618353    0.000000
      4          8           0        0.051291    2.109013    0.000000
      5          1           0       -0.105241    3.079066    0.000000
      6          1           0       -0.815567    1.646344    0.000000
 ---------------------------------------------------------------------

 SCF Done:  E(RHF) =  -152.107123789     A.U. after   10 cycles
 E2 =    -0.5261347170D+00 EUMP2 =    -0.15263325850574D+03
 CCSD(T)
 CCSD(T)= -0.15266046191D+03

 The electronic state is 1-A'.
 Alpha  occ. eigenvalues --  -20.55454 -20.54518  -1.32738  -1.31805  -0.70149
 Alpha  occ. eigenvalues --   -0.69186  -0.56157  -0.55226  -0.49848  -0.48921
 Alpha virt. eigenvalues --    0.13461   0.15720   0.20127   0.21727   0.53934
 Alpha virt. eigenvalues --    0.54753   0.57337   0.58227   0.65509   0.74006
 Alpha virt. eigenvalues --    0.78968   0.79754   0.80004   0.81988   0.83205

 Mulliken charges:
               1
     1  O   -0.503700
     2  H    0.248789
     3  H    0.256005
     4  O   -0.505331
     5  H    0.246182
     6  H    0.258055
 Sum of Mulliken charges =  -0.00000

 Dipole moment (field-independent basis, Debye):
    X=             -1.7375    Y=             -1.1503    Z=              0.0000  Tot=              2.0838
 Quadrupole moment (field-independent basis, Debye-Ang):
   XX=             -9.4608   YY=              1.4924   ZZ=            -14.7133
   XY=             -3.1064   XZ=              0.0000   YZ=              0.0000

 Normal termination of Gaussian 16 at Sat Aug 27 10:26:37 2022.
