 Gaussian 16, Revision A.03,
 Gaussian 16:  ES64L-G16RevA.03 25-Dec-2016

 ------------------
 #p CCSD(T)/cc-pVTZ
 ------------------

 ------------
 H2O_H2O_1629
 ------------
 Symbolic Z-matrix:
 Charge =  0 Multiplicity = 1

                         Standard orientation:
 ---------------------------------------------------------------------
 Center     Atomic      Atomic             Coordinates (Angstroms)
 Number     Number       Type             X           Y           Z
 ---------------------------------------------------------------------
      1          8           0        0.014783   -1.665731    0.000000
      2          1           0       -0.785223   -2.236253    0.000000
      3          1           0        0.813918   -2.237473    0.000000
      4          8           0        0.014783    1.669601    0.000000
      5          1           0        0.639869    2.427739    0.000000
      6          1           0       -0.905100    2.015030    0.000000
 ---------------------------------------------------------------------

 SCF Done:  E(RHF) =  -152.103513271     A.U. after   10 cycles
 E2 =    -0.5268519181D+00 EUMP2 =    -0.15263036518877D+03
 CCSD(T)
 CCSD(T)= -0.15265762846D+03

 The electronic state is 1-A'.
 Alpha  occ. eigenvalues --  -20.54223 -20.54141  -1.31526  -1.31400  -0.68949
 Alpha  occ. eigenvalues --   -0.68830  -0.55386  -0.53985  -0.48675  -0.48430
 Alpha virt. eigenvalues --    0.14246   0.16306   0.20565   0.21599   0.52796
 Alpha virt. eigenvalues --    0.57876   0.58120   0.58537   0.62437   0.76269
 Alpha virt. eigenvalues --    0.78626   0.78780   0.79922   0.81700   0.84899

 Mulliken charges:
               1
     1  O   -0.481443
     2  H    0.238940
     3  H    0.242666
     4  O   -0.481235
     5  H    0.238563
     6  H    0.242509
 Sum of Mulliken charges =   0.00000

 Dipole moment (field-independent basis, Debye):
    X=             -0.4910    Y=             -0.0723    Z=              0.0000  Tot=              0.4963
 Quadrupole moment (field-independent basis, Debye-Ang):
   XX=             -8.0031   YY=              0.9628   ZZ=            -14.7091
   XY=             -0.4185   XZ=              0.0000   YZ=              0.0000

 Normal termination of Gaussian 16 at Sat Aug 27 05:52:29 2022.
