 Gaussian 16, Revision A.03,
 Gaussian 16:  ES64L-G16RevA.03 25-Dec-2016

 ------------------
 #p CCSD(T)/cc-pVTZ
 ------------------

 ------------
 H2O_H2O_1217
 ------------
 Symbolic Z-matrix:
 Charge =  0 Multiplicity = 1

                         Standard orientation:
 ---------------------------------------------------------------------
 Center     Atomic      Atomic             Coordinates (Angstroms)
 Number     Number       Type             X           Y           Z
 ---------------------------------------------------------------------
      1          8           0        0.051321   -1.407372    0.000000
      2          1           0       -0.749997   -1.976051    0.000000
      3          1           0        0.849138   -1.980951    0.000000
      4          8           0        0.051321    1.470763    0.000000
      5          1           0       -0.104298    2.440963    0.000000
      6          1           0       -0.815973    1.008909    0.000000
 ---------------------------------------------------------------------

 SCF Done:  E(RHF) =  -152.104995827     A.U. after   10 cycles
 E2 =    -0.5277154216D+00 EUMP2 =    -0.15263271124815D+03
 CCSD(T)
 CCSD(T)= -0.15265988071D+03

 The electronic state is 1-A'.
 Alpha  occ. eigenvalues --  -20.55356 -20.53408  -1.32714  -1.30665  -0.70134
 Alpha  occ. eigenvalues --   -0.68158  -0.56161  -0.53785  -0.49835  -0.47754
 Alpha virt. eigenvalues --    0.13603   0.17110   0.19965   0.23571   0.53660
 Alpha virt. eigenvalues --    0.57009   0.57354   0.58386   0.68797   0.75536
 Alpha virt. eigenvalues --    0.76105   0.77248   0.80808   0.82476   0.84926

 Mulliken charges:
               1
     1  O   -0.481596
     2  H    0.236390
     3  H    0.252444
     4  O   -0.488285
     5  H    0.228065
     6  H    0.252982
 Sum of Mulliken charges =  -0.00000

 Dipole moment (field-independent basis, Debye):
    X=             -1.6584    Y=             -1.2332    Z=              0.0000  Tot=              2.0666
 Quadrupole moment (field-independent basis, Debye-Ang):
   XX=             -9.4953   YY=             -2.4643   ZZ=            -14.7214
   XY=             -2.0228   XZ=              0.0000   YZ=              0.0000

 Normal termination of Gaussian 16 at Sat Aug 27 03:05:58 2022.
