 Gaussian 16, Revision A.03,
 Gaussian 16:  ES64L-G16RevA.03 25-Dec-2016

 ------------------
 #p CCSD(T)/cc-pVTZ
 ------------------

 ------------
 H2O_H2O_4186
 ------------
 Symbolic Z-matrix:
 Charge =  0 Multiplicity = 1

                         Standard orientation:
 ---------------------------------------------------------------------
 Center     Atomic      Atomic             Coordinates (Angstroms)
 Number     Number       Type             X           Y           Z
 ---------------------------------------------------------------------
      1          8           0        0.037673   -3.008665    0.000000
      2          1           0       -0.762510   -3.578939    0.000000
      3          1           0        0.836631   -3.580654    0.000000
      4          8           0        0.037673    3.036931    0.000000
      5          1           0        0.263274    3.993282    0.000000
      6          1           0       -0.940156    2.940184    0.000000
 ---------------------------------------------------------------------

 SCF Done:  E(RHF) =  -152.106969914     A.U. after   10 cycles
 E2 =    -0.5259219042D+00 EUMP2 =    -0.15263289181778D+03
 CCSD(T)
 CCSD(T)= -0.15266012100D+03

 The electronic state is 1-A'.
 Alpha  occ. eigenvalues --  -20.55311 -20.55132  -1.32608  -1.32427  -0.70015
 Alpha  occ. eigenvalues --   -0.69831  -0.56035  -0.55855  -0.49716  -0.49537
 Alpha virt. eigenvalues --    0.14316   0.14520   0.20378   0.20572   0.54551
 Alpha virt. eigenvalues --    0.54747   0.57432   0.57612   0.68152   0.68408
 Alpha virt. eigenvalues --    0.79163   0.79340   0.80603   0.80798   0.82533

 Mulliken charges:
               1
     1  O   -0.506298
     2  H    0.252182
     3  H    0.254116
     4  O   -0.506135
     5  H    0.251585
     6  H    0.254550
 Sum of Mulliken charges =  -0.00000

 Dipole moment (field-independent basis, Debye):
    X=             -1.2936    Y=             -0.4942    Z=              0.0000  Tot=              1.3848
 Quadrupole moment (field-independent basis, Debye-Ang):
   XX=             -8.6966   YY=             10.0108   ZZ=            -14.7111
   XY=             -3.0692   XZ=              0.0000   YZ=              0.0000

 Normal termination of Gaussian 16 at Sat Aug 27 05:52:30 2022.
