 Gaussian 16, Revision A.03,
 Gaussian 16:  ES64L-G16RevA.03 25-Dec-2016

 ------------------
 #p CCSD(T)/cc-pVTZ
 ------------------

 ------------
 H2O_H2O_1616
 ------------
 Symbolic Z-matrix:
 Charge =  0 Multiplicity = 1

                         Standard orientation:
 ---------------------------------------------------------------------
 Center     Atomic      Atomic             Coordinates (Angstroms)
 Number     Number       Type             X           Y           Z
 ---------------------------------------------------------------------
      1          8           0        0.049535   -1.623655    0.000000
      2          1           0       -0.751505   -2.192725    0.000000
      3          1           0        0.847631   -2.196846    0.000000
      4          8           0        0.049535    1.680514    0.000000
      5          1           0       -0.042773    2.658770    0.000000
      6          1           0       -0.845911    1.275936    0.000000
 ---------------------------------------------------------------------

 SCF Done:  E(RHF) =  -152.106294245     A.U. after   10 cycles
 E2 =    -0.5268258502D+00 EUMP2 =    -0.15263312009546D+03
 CCSD(T)
 CCSD(T)= -0.15266030509D+03

 The electronic state is 1-A'.
 Alpha  occ. eigenvalues --  -20.55292 -20.53943  -1.32573  -1.31205  -0.69994
 Alpha  occ. eigenvalues --   -0.68589  -0.56008  -0.54486  -0.49686  -0.48317
 Alpha virt. eigenvalues --    0.13596   0.16560   0.20083   0.22764   0.54184
 Alpha virt. eigenvalues --    0.54910   0.57437   0.58489   0.65107   0.76436
 Alpha virt. eigenvalues --    0.77854   0.78077   0.78653   0.81499   0.85027

 Mulliken charges:
               1
     1  O   -0.489591
     2  H    0.240787
     3  H    0.252585
     4  O   -0.495036
     5  H    0.236565
     6  H    0.254690
 Sum of Mulliken charges =   0.00000

 Dipole moment (field-independent basis, Debye):
    X=             -1.6387    Y=             -1.0735    Z=              0.0000  Tot=              1.9590
 Quadrupole moment (field-independent basis, Debye-Ang):
   XX=             -9.3682   YY=             -0.8103   ZZ=            -14.7160
   XY=             -2.1943   XZ=              0.0000   YZ=              0.0000

 Normal termination of Gaussian 16 at Sat Aug 27 05:47:52 2022.
