 Gaussian 16, Revision A.03,
 Gaussian 16:  ES64L-G16RevA.03 25-Dec-2016

 ------------------
 #p CCSD(T)/cc-pVTZ
 ------------------

 ------------
 H2O_H2O_4981
 ------------
 Symbolic Z-matrix:
 Charge =  0 Multiplicity = 1

                         Standard orientation:
 ---------------------------------------------------------------------
 Center     Atomic      Atomic             Coordinates (Angstroms)
 Number     Number       Type             X           Y           Z
 ---------------------------------------------------------------------
      1          8           0        0.021859   -3.444775    0.000000
      2          1           0       -0.778024   -4.015471    0.000000
      3          1           0        0.821118   -4.016344    0.000000
      4          8           0        0.021859    3.453447    0.000000
      5          1           0        0.542458    4.286803    0.000000
      6          1           0       -0.935290    3.675644    0.000000
 ---------------------------------------------------------------------

 SCF Done:  E(RHF) =  -152.107020832     A.U. after   10 cycles
 E2 =    -0.5259074337D+00 EUMP2 =    -0.15263292826610D+03
 CCSD(T)
 CCSD(T)= -0.15266015699D+03

 The electronic state is 1-A'.
 Alpha  occ. eigenvalues --  -20.55301 -20.55260  -1.32598  -1.32556  -0.70005
 Alpha  occ. eigenvalues --   -0.69962  -0.56028  -0.55986  -0.49707  -0.49665
 Alpha virt. eigenvalues --    0.14344   0.14386   0.20398   0.20442   0.54562
 Alpha virt. eigenvalues --    0.54607   0.57446   0.57488   0.68192   0.68234
 Alpha virt. eigenvalues --    0.79172   0.79214   0.80612   0.80658   0.82537

 Mulliken charges:
               1
     1  O   -0.506580
     2  H    0.252904
     3  H    0.253675
     4  O   -0.506547
     5  H    0.252707
     6  H    0.253840
 Sum of Mulliken charges =   0.00000

 Dipole moment (field-independent basis, Debye):
    X=             -0.7519    Y=             -0.1510    Z=              0.0000  Tot=              0.7669
 Quadrupole moment (field-independent basis, Debye-Ang):
   XX=             -8.1015   YY=             14.7977   ZZ=            -14.7110
   XY=             -1.9636   XZ=              0.0000   YZ=              0.0000

 Normal termination of Gaussian 16 at Sat Aug 27 10:27:46 2022.
