 Gaussian 16, Revision A.03,
 Gaussian 16:  ES64L-G16RevA.03 25-Dec-2016

 ------------------
 #p CCSD(T)/cc-pVTZ
 ------------------

 -----------
 H2O_H2O_198
 -----------
 Symbolic Z-matrix:
 Charge =  0 Multiplicity = 1

                         Standard orientation:
 ---------------------------------------------------------------------
 Center     Atomic      Atomic             Coordinates (Angstroms)
 Number     Number       Type             X           Y           Z
 ---------------------------------------------------------------------
      1          8           0        0.057284   -0.839025    0.000000
      2          1           0       -0.745416   -1.405751    0.000000
      3          1           0        0.853702   -1.414546    0.000000
      4          8           0        0.057284    0.945152    0.000000
      5          1           0       -0.455730    1.783200    0.000000
      6          1           0       -0.569093    0.188080    0.000000
 ---------------------------------------------------------------------

 SCF Done:  E(RHF) =  -151.960328209     A.U. after   11 cycles
 E2 =    -0.5460503462D+00 EUMP2 =    -0.15250637855503D+03
 CCSD(T)
 CCSD(T)= -0.15253123813D+03

 The electronic state is 1-A'.
 Alpha  occ. eigenvalues --  -20.57223 -20.46964  -1.41464  -1.25595  -0.79123
 Alpha  occ. eigenvalues --   -0.72952  -0.55624  -0.50015  -0.45125  -0.42437
 Alpha virt. eigenvalues --    0.12505   0.17926   0.20518   0.27230   0.48675
 Alpha virt. eigenvalues --    0.53268   0.63383   0.69635   0.73511   0.74959
 Alpha virt. eigenvalues --    0.78127   0.78329   0.84334   0.85484   0.88659

 Mulliken charges:
               1
     1  O   -0.299188
     2  H    0.178694
     3  H    0.226195
     4  O   -0.532436
     5  H    0.152702
     6  H    0.274033
 Sum of Mulliken charges =  -0.00000

 Dipole moment (field-independent basis, Debye):
    X=             -1.5328    Y=             -2.8330    Z=              0.0000  Tot=              3.2211
 Quadrupole moment (field-independent basis, Debye-Ang):
   XX=             -9.8195   YY=             -8.4310   ZZ=            -14.5485
   XY=             -1.9177   XZ=              0.0000   YZ=              0.0000

 Normal termination of Gaussian 16 at Fri Aug 26 13:54:38 2022.
