 Gaussian 16, Revision A.03,
 Gaussian 16:  ES64L-G16RevA.03 25-Dec-2016

 ------------------
 #p CCSD(T)/cc-pVTZ
 ------------------

 ------------
 H2O_H2O_3668
 ------------
 Symbolic Z-matrix:
 Charge =  0 Multiplicity = 1

                         Standard orientation:
 ---------------------------------------------------------------------
 Center     Atomic      Atomic             Coordinates (Angstroms)
 Number     Number       Type             X           Y           Z
 ---------------------------------------------------------------------
      1          8           0        0.052824   -2.706601    0.000000
      2          1           0       -0.747692   -3.276407    0.000000
      3          1           0        0.851448   -3.279057    0.000000
      4          8           0        0.052824    2.776940    0.000000
      5          1           0       -0.167264    3.734577    0.000000
      6          1           0       -0.781677    2.258177    0.000000
 ---------------------------------------------------------------------

 SCF Done:  E(RHF) =  -152.107326510     A.U. after   10 cycles
 E2 =    -0.5259089250D+00 EUMP2 =    -0.15263323543540D+03
 CCSD(T)
 CCSD(T)= -0.15266045552D+03

 The electronic state is 1-A'.
 Alpha  occ. eigenvalues --  -20.55543 -20.54990  -1.32841  -1.32286  -0.70247
 Alpha  occ. eigenvalues --   -0.69682  -0.56284  -0.55727  -0.49951  -0.49400
 Alpha virt. eigenvalues --    0.13997   0.14771   0.20176   0.20824   0.54296
 Alpha virt. eigenvalues --    0.54885   0.57225   0.57762   0.67605   0.68827
 Alpha virt. eigenvalues --    0.78930   0.79470   0.80347   0.80817   0.82519

 Mulliken charges:
               1
     1  O   -0.508409
     2  H    0.252457
     3  H    0.255979
     4  O   -0.507977
     5  H    0.250808
     6  H    0.257141
 Sum of Mulliken charges =  -0.00000

 Dipole moment (field-independent basis, Debye):
    X=             -1.8109    Y=             -1.2372    Z=              0.0000  Tot=              2.1931
 Quadrupole moment (field-independent basis, Debye-Ang):
   XX=             -9.5589   YY=              4.8027   ZZ=            -14.7121
   XY=             -4.4986   XZ=              0.0000   YZ=              0.0000

 Normal termination of Gaussian 16 at Sat Aug 27 02:20:29 2022.
