 Gaussian 16, Revision A.03,
 Gaussian 16:  ES64L-G16RevA.03 25-Dec-2016

 ------------------
 #p CCSD(T)/cc-pVTZ
 ------------------

 ------------
 H2O_H2O_3431
 ------------
 Symbolic Z-matrix:
 Charge =  0 Multiplicity = 1

                         Standard orientation:
 ---------------------------------------------------------------------
 Center     Atomic      Atomic             Coordinates (Angstroms)
 Number     Number       Type             X           Y           Z
 ---------------------------------------------------------------------
      1          8           0        0.021859   -2.620433    0.000000
      2          1           0       -0.778121   -3.190992    0.000000
      3          1           0        0.821021   -3.192138    0.000000
      4          8           0        0.021859    2.629097    0.000000
      5          1           0        0.542602    3.462364    0.000000
      6          1           0       -0.935251    2.851457    0.000000
 ---------------------------------------------------------------------

 SCF Done:  E(RHF) =  -152.106441029     A.U. after   10 cycles
 E2 =    -0.5259871893D+00 EUMP2 =    -0.15263242821779D+03
 CCSD(T)
 CCSD(T)= -0.15265966752D+03

 The electronic state is 1-A'.
 Alpha  occ. eigenvalues --  -20.55052 -20.54980  -1.32346  -1.32273  -0.69755
 Alpha  occ. eigenvalues --   -0.69680  -0.55748  -0.55674  -0.49451  -0.49378
 Alpha virt. eigenvalues --    0.14422   0.14734   0.20536   0.20678   0.54778
 Alpha virt. eigenvalues --    0.54931   0.57643   0.57733   0.67924   0.69196
 Alpha virt. eigenvalues --    0.79425   0.79499   0.80864   0.80972   0.82764

 Mulliken charges:
               1
     1  O   -0.503186
     2  H    0.250758
     3  H    0.252430
     4  O   -0.503064
     5  H    0.250393
     6  H    0.252669
 Sum of Mulliken charges =  -0.00000

 Dipole moment (field-independent basis, Debye):
    X=             -0.7481    Y=             -0.1524    Z=              0.0000  Tot=              0.7634
 Quadrupole moment (field-independent basis, Debye-Ang):
   XX=             -8.1104   YY=              8.4383   ZZ=            -14.7102
   XY=             -1.3505   XZ=              0.0000   YZ=              0.0000

 491136\MP4DQ=-152.64155\MP4SDQ=-152.6446139\CCSD=-152.6440241\CCSD(T)=
 Normal termination of Gaussian 16 at Fri Aug 26 22:16:33 2022.
