 Gaussian 16, Revision A.03,
 Gaussian 16:  ES64L-G16RevA.03 25-Dec-2016

 ------------------
 #p CCSD(T)/cc-pVTZ
 ------------------

 -----------
 H2O_H2O_674
 -----------
 Symbolic Z-matrix:
 Charge =  0 Multiplicity = 1

                         Standard orientation:
 ---------------------------------------------------------------------
 Center     Atomic      Atomic             Coordinates (Angstroms)
 Number     Number       Type             X           Y           Z
 ---------------------------------------------------------------------
      1          8           0        0.057358   -1.087519    0.000000
      2          1           0       -0.744659   -1.655211    0.000000
      3          1           0        0.854468   -1.662081    0.000000
      4          8           0        0.057358    1.201254    0.000000
      5          1           0       -0.510334    2.003271    0.000000
      6          1           0       -0.517204    0.404144    0.000000
 ---------------------------------------------------------------------

 SCF Done:  E(RHF) =  -152.088286872     A.U. after   11 cycles
 E2 =    -0.5329357424D+00 EUMP2 =    -0.15262122261475D+03
 CCSD(T)
 CCSD(T)= -0.15264777800D+03

 The electronic state is 1-A'.
 Alpha  occ. eigenvalues --  -20.57423 -20.50394  -1.36028  -1.28237  -0.73287
 Alpha  occ. eigenvalues --   -0.69653  -0.55084  -0.52733  -0.51822  -0.45238
 Alpha virt. eigenvalues --    0.12700   0.18694   0.19156   0.27825   0.49397
 Alpha virt. eigenvalues --    0.55116   0.61685   0.64839   0.71465   0.73507
 Alpha virt. eigenvalues --    0.75920   0.81746   0.83475   0.83617   0.86799

 Mulliken charges:
               1
     1  O   -0.425718
     2  H    0.225734
     3  H    0.250258
     4  O   -0.530817
     5  H    0.211034
     6  H    0.269509
 Sum of Mulliken charges =  -0.00000

 Dipole moment (field-independent basis, Debye):
    X=             -1.7490    Y=             -2.6180    Z=              0.0000  Tot=              3.1485
 Quadrupole moment (field-independent basis, Debye-Ang):
   XX=             -9.8374   YY=             -6.2813   ZZ=            -14.6852
   XY=             -2.6052   XZ=              0.0000   YZ=              0.0000

 Normal termination of Gaussian 16 at Fri Aug 26 18:55:29 2022.
