 Gaussian 16, Revision A.03,
 Gaussian 16:  ES64L-G16RevA.03 25-Dec-2016

 ------------------
 #p CCSD(T)/cc-pVTZ
 ------------------

 -----------
 H2O_H2O_139
 -----------
 Symbolic Z-matrix:
 Charge =  0 Multiplicity = 1

                         Standard orientation:
 ---------------------------------------------------------------------
 Center     Atomic      Atomic             Coordinates (Angstroms)
 Number     Number       Type             X           Y           Z
 ---------------------------------------------------------------------
      1          8           0        0.045411   -0.846023    0.000000
      2          1           0       -0.756718   -1.413557    0.000000
      3          1           0        0.842408   -1.420741    0.000000
      4          8           0        0.045411    0.890305    0.000000
      5          1           0        0.083462    1.872170    0.000000
      6          1           0       -0.895726    0.607870    0.000000
 ---------------------------------------------------------------------

 SCF Done:  E(RHF) =  -151.983146905     A.U. after   11 cycles
 E2 =    -0.5441820103D+00 EUMP2 =    -0.15252732891489D+03
 CCSD(T)
 CCSD(T)= -0.15255306877D+03

 The electronic state is 1-A'.
 Alpha  occ. eigenvalues --  -20.52985 -20.51237  -1.36390  -1.27138  -0.73145
 Alpha  occ. eigenvalues --   -0.69383  -0.58229  -0.52376  -0.43867  -0.40763
 Alpha virt. eigenvalues --    0.13976   0.18907   0.19739   0.23983   0.52815
 Alpha virt. eigenvalues --    0.56650   0.58823   0.65292   0.73068   0.77177
 Alpha virt. eigenvalues --    0.81255   0.82073   0.82318   0.84164   0.88848

 Mulliken charges:
               1
     1  O   -0.368263
     2  H    0.171406
     3  H    0.204076
     4  O   -0.367796
     5  H    0.126203
     6  H    0.234374
 Sum of Mulliken charges =  -0.00000

 Dipole moment (field-independent basis, Debye):
    X=             -1.2276    Y=             -0.9889    Z=              0.0000  Tot=              1.5764
 Quadrupole moment (field-independent basis, Debye-Ang):
   XX=             -9.3301   YY=             -7.8732   ZZ=            -14.6622
   XY=             -0.7334   XZ=              0.0000   YZ=              0.0000

 Normal termination of Gaussian 16 at Fri Aug 26 13:13:14 2022.
