 Gaussian 16, Revision A.03,
 Gaussian 16:  ES64L-G16RevA.03 25-Dec-2016

 ------------------
 #p CCSD(T)/cc-pVTZ
 ------------------

 ------------
 H2O_H2O_3012
 ------------
 Symbolic Z-matrix:
 Charge =  0 Multiplicity = 1

                         Standard orientation:
 ---------------------------------------------------------------------
 Center     Atomic      Atomic             Coordinates (Angstroms)
 Number     Number       Type             X           Y           Z
 ---------------------------------------------------------------------
      1          8           0        0.040409   -2.381001    0.000000
      2          1           0       -0.759989   -2.950973    0.000000
      3          1           0        0.839151   -2.953292    0.000000
      4          8           0        0.040409    2.414340    0.000000
      5          1           0        0.203346    3.383339    0.000000
      6          1           0       -0.929058    2.254215    0.000000
 ---------------------------------------------------------------------

 SCF Done:  E(RHF) =  -152.106582581     A.U. after   10 cycles
 E2 =    -0.5260102291D+00 EUMP2 =    -0.15263259281019D+03
 CCSD(T)
 CCSD(T)= -0.15265982596D+03

 The electronic state is 1-A'.
 Alpha  occ. eigenvalues --  -20.55174 -20.54831  -1.32468  -1.32122  -0.69878
 Alpha  occ. eigenvalues --   -0.69521  -0.55875  -0.55529  -0.49574  -0.49230
 Alpha virt. eigenvalues --    0.14102   0.15054   0.20384   0.20931   0.54534
 Alpha virt. eigenvalues --    0.55074   0.57534   0.57865   0.66922   0.70481
 Alpha virt. eigenvalues --    0.79300   0.79645   0.80659   0.81214   0.82789

 Mulliken charges:
               1
     1  O   -0.503934
     2  H    0.250003
     3  H    0.253994
     4  O   -0.503500
     5  H    0.248784
     6  H    0.254652
 Sum of Mulliken charges =  -0.00000

 Dipole moment (field-independent basis, Debye):
    X=             -1.3791    Y=             -0.5909    Z=              0.0000  Tot=              1.5004
 Quadrupole moment (field-independent basis, Debye-Ang):
   XX=             -8.8357   YY=              5.2994   ZZ=            -14.7109
   XY=             -2.5003   XZ=              0.0000   YZ=              0.0000

 Normal termination of Gaussian 16 at Fri Aug 26 18:29:16 2022.
