 Gaussian 16, Revision A.03,
 Gaussian 16:  ES64L-G16RevA.03 25-Dec-2016

 ------------------
 #p CCSD(T)/cc-pVTZ
 ------------------

 ----------
 H2O_H2O_59
 ----------
 Symbolic Z-matrix:
 Charge =  0 Multiplicity = 1

                         Standard orientation:
 ---------------------------------------------------------------------
 Center     Atomic      Atomic             Coordinates (Angstroms)
 Number     Number       Type             X           Y           Z
 ---------------------------------------------------------------------
      1          8           0        0.031762   -0.819846    0.000000
      2          1           0       -0.769686   -1.388341    0.000000
      3          1           0        0.829448   -1.393608    0.000000
      4          8           0        0.031762    0.838887    0.000000
      5          1           0        0.382302    1.756835    0.000000
      6          1           0       -0.950255    0.872783    0.000000
 ---------------------------------------------------------------------

 SCF Done:  E(RHF) =  -151.945459471     A.U. after   12 cycles
 E2 =    -0.5485368731D+00 EUMP2 =    -0.15249399634445D+03
 CCSD(T)
 CCSD(T)= -0.15251891512D+03

 The electronic state is 1-A'.
 Alpha  occ. eigenvalues --  -20.52047 -20.51461  -1.36829  -1.26889  -0.72381
 Alpha  occ. eigenvalues --   -0.69025  -0.62135  -0.52830  -0.43352  -0.35645
 Alpha virt. eigenvalues --    0.14199   0.19181   0.19846   0.23491   0.53387
 Alpha virt. eigenvalues --    0.55936   0.58780   0.65608   0.71615   0.78256
 Alpha virt. eigenvalues --    0.79718   0.82821   0.83101   0.84799   0.88861

 Mulliken charges:
               1
     1  O   -0.356437
     2  H    0.167399
     3  H    0.191110
     4  O   -0.337833
     5  H    0.112053
     6  H    0.223708
 Sum of Mulliken charges =  -0.00000

 Dipole moment (field-independent basis, Debye):
    X=             -0.8741    Y=             -0.4821    Z=              0.0000  Tot=              0.9983
 Quadrupole moment (field-independent basis, Debye-Ang):
   XX=             -8.8849   YY=             -8.7337   ZZ=            -14.7098
   XY=             -0.4335   XZ=              0.0000   YZ=              0.0000

 Normal termination of Gaussian 16 at Fri Aug 26 12:21:23 2022.
