 Gaussian 16, Revision A.03,
 Gaussian 16:  ES64L-G16RevA.03 25-Dec-2016

 ------------------
 #p CCSD(T)/cc-pVTZ
 ------------------

 ------------
 H2O_H2O_4716
 ------------
 Symbolic Z-matrix:
 Charge =  0 Multiplicity = 1

                         Standard orientation:
 ---------------------------------------------------------------------
 Center     Atomic      Atomic             Coordinates (Angstroms)
 Number     Number       Type             X           Y           Z
 ---------------------------------------------------------------------
      1          8           0        0.049498   -3.272281    0.000000
      2          1           0       -0.750809   -3.842382    0.000000
      3          1           0        0.848332   -3.844444    0.000000
      4          8           0        0.049498    3.329267    0.000000
      5          1           0       -0.044069    4.307404    0.000000
      6          1           0       -0.845426    2.923538    0.000000
 ---------------------------------------------------------------------

 SCF Done:  E(RHF) =  -152.107288790     A.U. after   10 cycles
 E2 =    -0.5258871273D+00 EUMP2 =    -0.15263317591771D+03
 CCSD(T)
 CCSD(T)= -0.15266039872D+03

 The electronic state is 1-A'.
 Alpha  occ. eigenvalues --  -20.55506 -20.55205  -1.32804  -1.32502  -0.70211
 Alpha  occ. eigenvalues --   -0.69903  -0.56246  -0.55943  -0.49915  -0.49613
 Alpha virt. eigenvalues --    0.14159   0.14463   0.20229   0.20547   0.54353
 Alpha virt. eigenvalues --    0.54671   0.57261   0.57563   0.67950   0.68263
 Alpha virt. eigenvalues --    0.78965   0.79262   0.80398   0.80721   0.82323

 Mulliken charges:
               1
     1  O   -0.508178
     2  H    0.253118
     3  H    0.255060
     4  O   -0.507995
     5  H    0.252308
     6  H    0.255687
 Sum of Mulliken charges =  -0.00000

 Dipole moment (field-independent basis, Debye):
    X=             -1.7022    Y=             -0.9940    Z=              0.0000  Tot=              1.9712
 Quadrupole moment (field-independent basis, Debye-Ang):
   XX=             -9.3455   YY=              9.2494   ZZ=            -14.7117
   XY=             -4.9506   XZ=              0.0000   YZ=              0.0000

 Normal termination of Gaussian 16 at Sat Aug 27 08:55:13 2022.
