 Gaussian 16, Revision A.03,
 Gaussian 16:  ES64L-G16RevA.03 25-Dec-2016

 ------------------
 #p CCSD(T)/cc-pVTZ
 ------------------

 -----------
 H2O_H2O_459
 -----------
 Symbolic Z-matrix:
 Charge =  0 Multiplicity = 1

                         Standard orientation:
 ---------------------------------------------------------------------
 Center     Atomic      Atomic             Coordinates (Angstroms)
 Number     Number       Type             X           Y           Z
 ---------------------------------------------------------------------
      1          8           0        0.031756   -1.032558    0.000000
      2          1           0       -0.769310   -1.601592    0.000000
      3          1           0        0.829827   -1.605784    0.000000
      4          8           0        0.031756    1.051642    0.000000
      5          1           0        0.381678    1.969825    0.000000
      6          1           0       -0.950284    1.084877    0.000000
 ---------------------------------------------------------------------

 SCF Done:  E(RHF) =  -152.066448426     A.U. after   11 cycles
 E2 =    -0.5335562130D+00 EUMP2 =    -0.15260000463860D+03
 CCSD(T)
 CCSD(T)= -0.15262696661D+03

 The electronic state is 1-A'.
 Alpha  occ. eigenvalues --  -20.52751 -20.52122  -1.32071  -1.28965  -0.69054
 Alpha  occ. eigenvalues --   -0.67240  -0.59103  -0.49274  -0.46251  -0.45557
 Alpha virt. eigenvalues --    0.14416   0.18013   0.20326   0.23181   0.52473
 Alpha virt. eigenvalues --    0.58025   0.58563   0.63971   0.70574   0.76910
 Alpha virt. eigenvalues --    0.78501   0.81926   0.83805   0.86112   0.87827

 Mulliken charges:
               1
     1  O   -0.447306
     2  H    0.213646
     3  H    0.231272
     4  O   -0.418929
     5  H    0.186251
     6  H    0.235066
 Sum of Mulliken charges =   0.00000

 Dipole moment (field-independent basis, Debye):
    X=             -0.9353    Y=             -0.3886    Z=              0.0000  Tot=              1.0128
 Quadrupole moment (field-independent basis, Debye-Ang):
   XX=             -8.6756   YY=             -5.2207   ZZ=            -14.7347
   XY=             -0.4483   XZ=              0.0000   YZ=              0.0000

 Normal termination of Gaussian 16 at Fri Aug 26 16:39:46 2022.
