 Gaussian 16, Revision A.03,
 Gaussian 16:  ES64L-G16RevA.03 25-Dec-2016

 ------------------
 #p CCSD(T)/cc-pVTZ
 ------------------

 ------------
 H2O_H2O_4427
 ------------
 Symbolic Z-matrix:
 Charge =  0 Multiplicity = 1

                         Standard orientation:
 ---------------------------------------------------------------------
 Center     Atomic      Atomic             Coordinates (Angstroms)
 Number     Number       Type             X           Y           Z
 ---------------------------------------------------------------------
      1          8           0        0.007455   -3.156446    0.000000
      2          1           0       -0.792232   -3.727415    0.000000
      3          1           0        0.806910   -3.727740    0.000000
      4          8           0        0.007455    3.157420    0.000000
      5          1           0        0.725774    3.827885    0.000000
      6          1           0       -0.859730    3.619476    0.000000
 ---------------------------------------------------------------------

 SCF Done:  E(RHF) =  -152.106819662     A.U. after   10 cycles
 E2 =    -0.5259301520D+00 EUMP2 =    -0.15263274981386D+03
 CCSD(T)
 CCSD(T)= -0.15265998249D+03

 The electronic state is 1-A'.
 Alpha  occ. eigenvalues --  -20.55192 -20.55186  -1.32488  -1.32482  -0.69895
 Alpha  occ. eigenvalues --   -0.69889  -0.55908  -0.55902  -0.49595  -0.49589
 Alpha virt. eigenvalues --    0.14426   0.14453   0.20477   0.20491   0.54673
 Alpha virt. eigenvalues --    0.54682   0.57539   0.57548   0.68303   0.68359
 Alpha virt. eigenvalues --    0.79284   0.79290   0.80728   0.80734   0.82656

 Mulliken charges:
               1
     1  O   -0.505393
     2  H    0.252527
     3  H    0.252866
     4  O   -0.505388
     5  H    0.252457
     6  H    0.252931
 Sum of Mulliken charges =  -0.00000

 Dipole moment (field-independent basis, Debye):
    X=             -0.2561    Y=             -0.0170    Z=              0.0000  Tot=              0.2567
 Quadrupole moment (field-independent basis, Debye-Ang):
   XX=             -7.8380   YY=             13.1471   ZZ=            -14.7107
   XY=             -0.5772   XZ=              0.0000   YZ=              0.0000

 Normal termination of Gaussian 16 at Sat Aug 27 07:15:39 2022.
