 Gaussian 16, Revision A.03,
 Gaussian 16:  ES64L-G16RevA.03 25-Dec-2016

 ------------------
 #p CCSD(T)/cc-pVTZ
 ------------------

 -----------
 H2O_H2O_195
 -----------
 Symbolic Z-matrix:
 Charge =  0 Multiplicity = 1

                         Standard orientation:
 ---------------------------------------------------------------------
 Center     Atomic      Atomic             Coordinates (Angstroms)
 Number     Number       Type             X           Y           Z
 ---------------------------------------------------------------------
      1          8           0        0.055391   -0.851001    0.000000
      2          1           0       -0.747205   -1.417873    0.000000
      3          1           0        0.851914   -1.426377    0.000000
      4          8           0        0.055391    0.935076    0.000000
      5          1           0       -0.284438    1.857043    0.000000
      6          1           0       -0.706534    0.314612    0.000000
 ---------------------------------------------------------------------

 SCF Done:  E(RHF) =  -151.983046289     A.U. after   11 cycles
 E2 =    -0.5444153641D+00 EUMP2 =    -0.15252746165286D+03
 CCSD(T)
 CCSD(T)= -0.15255298932D+03

 The electronic state is 1-A'.
 Alpha  occ. eigenvalues --  -20.55242 -20.49404  -1.38516  -1.26660  -0.76089
 Alpha  occ. eigenvalues --   -0.71178  -0.53676  -0.52655  -0.45056  -0.43617
 Alpha virt. eigenvalues --    0.13244   0.18786   0.19778   0.25611   0.50325
 Alpha virt. eigenvalues --    0.54834   0.61808   0.67136   0.72989   0.76255
 Alpha virt. eigenvalues --    0.79303   0.80198   0.84105   0.85008   0.88439

 Mulliken charges:
               1
     1  O   -0.337607
     2  H    0.172118
     3  H    0.216658
     4  O   -0.452715
     5  H    0.145607
     6  H    0.255939
 Sum of Mulliken charges =  -0.00000

 Dipole moment (field-independent basis, Debye):
    X=             -1.4994    Y=             -1.9949    Z=              0.0000  Tot=              2.4956
 Quadrupole moment (field-independent basis, Debye-Ang):
   XX=             -9.7825   YY=             -7.9109   ZZ=            -14.6015
   XY=             -1.4764   XZ=              0.0000   YZ=              0.0000

 Normal termination of Gaussian 16 at Fri Aug 26 13:52:24 2022.
