 Gaussian 16, Revision A.03,
 Gaussian 16:  ES64L-G16RevA.03 25-Dec-2016

 ------------------
 #p CCSD(T)/cc-pVTZ
 ------------------

 ------------
 H2O_H2O_2434
 ------------
 Symbolic Z-matrix:
 Charge =  0 Multiplicity = 1

                         Standard orientation:
 ---------------------------------------------------------------------
 Center     Atomic      Atomic             Coordinates (Angstroms)
 Number     Number       Type             X           Y           Z
 ---------------------------------------------------------------------
      1          8           0        0.031743   -2.082891    0.000000
      2          1           0       -0.768573   -2.652979    0.000000
      3          1           0        0.830568   -2.655067    0.000000
      4          8           0        0.031743    2.102059    0.000000
      5          1           0        0.380457    3.020702    0.000000
      6          1           0       -0.950339    2.134002    0.000000
 ---------------------------------------------------------------------

 SCF Done:  E(RHF) =  -152.105853643     A.U. after   10 cycles
 E2 =    -0.5261803623D+00 EUMP2 =    -0.15263203400553D+03
 CCSD(T)
 CCSD(T)= -0.15265927188D+03

 The electronic state is 1-A'.
 Alpha  occ. eigenvalues --  -20.54880 -20.54617  -1.32167  -1.31901  -0.69581
 Alpha  occ. eigenvalues --   -0.69304  -0.55562  -0.55230  -0.49269  -0.49003
 Alpha virt. eigenvalues --    0.14030   0.15503   0.20477   0.21153   0.54188
 Alpha virt. eigenvalues --    0.55494   0.57756   0.58057   0.64315   0.73724
 Alpha virt. eigenvalues --    0.79462   0.80004   0.80734   0.81175   0.82496

 Mulliken charges:
               1
     1  O   -0.498780
     2  H    0.247235
     3  H    0.251724
     4  O   -0.498437
     5  H    0.246176
     6  H    0.252081
 Sum of Mulliken charges =  -0.00000

 Dipole moment (field-independent basis, Debye):
    X=             -1.0758    Y=             -0.3449    Z=              0.0000  Tot=              1.1298
 Quadrupole moment (field-independent basis, Debye-Ang):
   XX=             -8.4546   YY=              3.8322   ZZ=            -14.7104
   XY=             -1.4972   XZ=              0.0000   YZ=              0.0000

 Normal termination of Gaussian 16 at Sat Aug 27 10:32:27 2022.
