 Gaussian 16, Revision A.03,
 Gaussian 16:  ES64L-G16RevA.03 25-Dec-2016

 ------------------
 #p CCSD(T)/cc-pVTZ
 ------------------

 -----------
 H2O_H2O_936
 -----------
 Symbolic Z-matrix:
 Charge =  0 Multiplicity = 1

                         Standard orientation:
 ---------------------------------------------------------------------
 Center     Atomic      Atomic             Coordinates (Angstroms)
 Number     Number       Type             X           Y           Z
 ---------------------------------------------------------------------
      1          8           0        0.037693   -1.280253    0.000000
      2          1           0       -0.763306   -1.849380    0.000000
      3          1           0        0.835831   -1.853385    0.000000
      4          8           0        0.037693    1.308410    0.000000
      5          1           0        0.264664    2.264439    0.000000
      6          1           0       -0.940273    1.213064    0.000000
 ---------------------------------------------------------------------

 SCF Done:  E(RHF) =  -152.097893287     A.U. after   11 cycles
 E2 =    -0.5287403099D+00 EUMP2 =    -0.15262663359694D+03
 CCSD(T)
 CCSD(T)= -0.15265387980D+03

 The electronic state is 1-A'.
 Alpha  occ. eigenvalues --  -20.54074 -20.53202  -1.31657  -1.30416  -0.69037
 Alpha  occ. eigenvalues --   -0.67980  -0.56442  -0.51749  -0.48869  -0.47331
 Alpha virt. eigenvalues --    0.14147   0.17247   0.20323   0.22864   0.52936
 Alpha virt. eigenvalues --    0.58156   0.58337   0.60517   0.70145   0.76212
 Alpha virt. eigenvalues --    0.76972   0.78147   0.83426   0.83867   0.85808

 Mulliken charges:
               1
     1  O   -0.470986
     2  H    0.228266
     3  H    0.243477
     4  O   -0.459098
     5  H    0.217067
     6  H    0.241273
 Sum of Mulliken charges =  -0.00000

 Dipole moment (field-independent basis, Debye):
    X=             -1.1894    Y=             -0.5463    Z=              0.0000  Tot=              1.3089
 Quadrupole moment (field-independent basis, Debye-Ang):
   XX=             -8.8095   YY=             -2.7252   ZZ=            -14.7216
   XY=             -0.8974   XZ=              0.0000   YZ=              0.0000

 Normal termination of Gaussian 16 at Fri Aug 26 21:20:04 2022.
