 Gaussian 16, Revision A.03,
 Gaussian 16:  ES64L-G16RevA.03 25-Dec-2016

 ------------------
 #p CCSD(T)/cc-pVTZ
 ------------------

 ------------
 H2O_H2O_3776
 ------------
 Symbolic Z-matrix:
 Charge =  0 Multiplicity = 1

                         Standard orientation:
 ---------------------------------------------------------------------
 Center     Atomic      Atomic             Coordinates (Angstroms)
 Number     Number       Type             X           Y           Z
 ---------------------------------------------------------------------
      1          8           0        0.003735   -2.811149    0.000000
      2          1           0       -0.795901   -3.382189    0.000000
      3          1           0        0.803241   -3.382372    0.000000
      4          8           0        0.003735    2.811392    0.000000
      5          1           0        0.764313    3.433509    0.000000
      6          1           0       -0.831418    3.329103    0.000000
 ---------------------------------------------------------------------

 SCF Done:  E(RHF) =  -152.106538806     A.U. after   10 cycles
 E2 =    -0.5259662783D+00 EUMP2 =    -0.15263250508400D+03
 CCSD(T)
 CCSD(T)= -0.15265974305D+03

 The electronic state is 1-A'.
 Alpha  occ. eigenvalues --  -20.55069 -20.55067  -1.32364  -1.32362  -0.69772
 Alpha  occ. eigenvalues --   -0.69770  -0.55771  -0.55767  -0.49469  -0.49467
 Alpha virt. eigenvalues --    0.14475   0.14598   0.20544   0.20589   0.54780
 Alpha virt. eigenvalues --    0.54821   0.57633   0.57654   0.68262   0.68718
 Alpha virt. eigenvalues --    0.79408   0.79412   0.80848   0.80870   0.82771

 Mulliken charges:
               1
     1  O   -0.503744
     2  H    0.251754
     3  H    0.251990
     4  O   -0.503742
     5  H    0.251713
     6  H    0.252029
 Sum of Mulliken charges =  -0.00000

 Dipole moment (field-independent basis, Debye):
    X=             -0.1280    Y=             -0.0043    Z=              0.0000  Tot=              0.1281
 Quadrupole moment (field-independent basis, Debye-Ang):
   XX=             -7.8165   YY=             10.4322   ZZ=            -14.7103
   XY=             -0.2445   XZ=              0.0000   YZ=              0.0000

 Normal termination of Gaussian 16 at Sat Aug 27 03:13:17 2022.
