 Gaussian 16, Revision A.03,
 Gaussian 16:  ES64L-G16RevA.03 25-Dec-2016

 ------------------
 #p CCSD(T)/cc-pVTZ
 ------------------

 ------------
 H2O_H2O_3619
 ------------
 Symbolic Z-matrix:
 Charge =  0 Multiplicity = 1

                         Standard orientation:
 ---------------------------------------------------------------------
 Center     Atomic      Atomic             Coordinates (Angstroms)
 Number     Number       Type             X           Y           Z
 ---------------------------------------------------------------------
      1          8           0        0.054149   -2.676216    0.000000
      2          1           0       -0.746401   -3.245976    0.000000
      3          1           0        0.852739   -3.248718    0.000000
      4          8           0        0.054149    2.753540    0.000000
      5          1           0       -0.228047    3.694747    0.000000
      6          1           0       -0.744670    2.181355    0.000000
 ---------------------------------------------------------------------

 SCF Done:  E(RHF) =  -152.107417317     A.U. after   10 cycles
 E2 =    -0.5259046697D+00 EUMP2 =    -0.15263332198690D+03
 CCSD(T)
 CCSD(T)= -0.15266053971D+03

 The electronic state is 1-A'.
 Alpha  occ. eigenvalues --  -20.55592 -20.54971  -1.32890  -1.32267  -0.70297
 Alpha  occ. eigenvalues --   -0.69662  -0.56338  -0.55711  -0.50002  -0.49382
 Alpha virt. eigenvalues --    0.13925   0.14815   0.20137   0.20871   0.54242
 Alpha virt. eigenvalues --    0.54894   0.57183   0.57778   0.67490   0.68908
 Alpha virt. eigenvalues --    0.78880   0.79487   0.80286   0.80760   0.82572

 Mulliken charges:
               1
     1  O   -0.508918
     2  H    0.252637
     3  H    0.256324
     4  O   -0.508450
     5  H    0.250784
     6  H    0.257623
 Sum of Mulliken charges =  -0.00000

 Dipole moment (field-independent basis, Debye):
    X=             -1.8559    Y=             -1.3613    Z=              0.0000  Tot=              2.3017
 Quadrupole moment (field-independent basis, Debye-Ang):
   XX=             -9.6479   YY=              4.0693   ZZ=            -14.7123
   XY=             -4.6808   XZ=              0.0000   YZ=              0.0000

 Normal termination of Gaussian 16 at Sat Aug 27 01:56:46 2022.
