 Gaussian 16, Revision A.03,
 Gaussian 16:  ES64L-G16RevA.03 25-Dec-2016

 ------------------
 #p CCSD(T)/cc-pVTZ
 ------------------

 ------------
 H2O_H2O_1528
 ------------
 Symbolic Z-matrix:
 Charge =  0 Multiplicity = 1

                         Standard orientation:
 ---------------------------------------------------------------------
 Center     Atomic      Atomic             Coordinates (Angstroms)
 Number     Number       Type             X           Y           Z
 ---------------------------------------------------------------------
      1          8           0        0.011143   -1.613464    0.000000
      2          1           0       -0.788767   -2.184121    0.000000
      3          1           0        0.810375   -2.185071    0.000000
      4          8           0        0.011143    1.615646    0.000000
      5          1           0        0.684353    2.331392    0.000000
      6          1           0       -0.884247    2.020347    0.000000
 ---------------------------------------------------------------------

 SCF Done:  E(RHF) =  -152.102911632     A.U. after   10 cycles
 E2 =    -0.5269982870D+00 EUMP2 =    -0.15262990991922D+03
 CCSD(T)
 CCSD(T)= -0.15265718424D+03

 The electronic state is 1-A'.
 Alpha  occ. eigenvalues --  -20.54099 -20.54051  -1.31429  -1.31295  -0.68848
 Alpha  occ. eigenvalues --   -0.68736  -0.55429  -0.53687  -0.48596  -0.48300
 Alpha virt. eigenvalues --    0.14303   0.16429   0.20571   0.21670   0.52464
 Alpha virt. eigenvalues --    0.58169   0.58455   0.58727   0.63142   0.76237
 Alpha virt. eigenvalues --    0.78380   0.78457   0.79664   0.82023   0.85662

 Mulliken charges:
               1
     1  O   -0.478422
     2  H    0.237713
     3  H    0.240797
     4  O   -0.478147
     5  H    0.237523
     6  H    0.240537
 Sum of Mulliken charges =  -0.00000

 Dipole moment (field-independent basis, Debye):
    X=             -0.3686    Y=             -0.0409    Z=              0.0000  Tot=              0.3708
 Quadrupole moment (field-independent basis, Debye-Ang):
   XX=             -7.9534   YY=              0.5413   ZZ=            -14.7091
   XY=             -0.2904   XZ=              0.0000   YZ=              0.0000

 Normal termination of Gaussian 16 at Sat Aug 27 05:17:44 2022.
