 Gaussian 16, Revision A.03,
 Gaussian 16:  ES64L-G16RevA.03 25-Dec-2016

 ------------------
 #p CCSD(T)/cc-pVTZ
 ------------------

 ------------
 H2O_H2O_1153
 ------------
 Symbolic Z-matrix:
 Charge =  0 Multiplicity = 1

                         Standard orientation:
 ---------------------------------------------------------------------
 Center     Atomic      Atomic             Coordinates (Angstroms)
 Number     Number       Type             X           Y           Z
 ---------------------------------------------------------------------
      1          8           0        0.011143   -1.414027    0.000000
      2          1           0       -0.788815   -1.984617    0.000000
      3          1           0        0.810327   -1.985701    0.000000
      4          8           0        0.011143    1.416207    0.000000
      5          1           0        0.684413    2.131897    0.000000
      6          1           0       -0.884213    1.820983    0.000000
 ---------------------------------------------------------------------

 SCF Done:  E(RHF) =  -152.099509647     A.U. after   11 cycles
 E2 =    -0.5278218870D+00 EUMP2 =    -0.15262733153439D+03
 CCSD(T)
 CCSD(T)= -0.15265464234D+03

 The electronic state is 1-A'.
 Alpha  occ. eigenvalues --  -20.53658 -20.53602  -1.31159  -1.30788  -0.68547
 Alpha  occ. eigenvalues --   -0.68274  -0.55926  -0.52207  -0.48390  -0.47689
 Alpha virt. eigenvalues --    0.14414   0.16965   0.20555   0.22039   0.51234
 Alpha virt. eigenvalues --    0.58477   0.58740   0.60899   0.69252   0.76384
 Alpha virt. eigenvalues --    0.77246   0.78287   0.79216   0.83218   0.86228

 Mulliken charges:
               1
     1  O   -0.468628
     2  H    0.232092
     3  H    0.236456
     4  O   -0.467083
     5  H    0.231671
     6  H    0.235492
 Sum of Mulliken charges =  -0.00000

 Dipole moment (field-independent basis, Debye):
    X=             -0.3603    Y=             -0.0414    Z=              0.0000  Tot=              0.3627
 Quadrupole moment (field-independent basis, Debye-Ang):
   XX=             -7.9969   YY=             -1.2538   ZZ=            -14.7134
   XY=             -0.2197   XZ=              0.0000   YZ=              0.0000

 Normal termination of Gaussian 16 at Sat Aug 27 02:33:08 2022.
