 Gaussian 16, Revision A.03,
 Gaussian 16:  ES64L-G16RevA.03 25-Dec-2016

 ------------------
 #p CCSD(T)/cc-pVTZ
 ------------------

 ------------
 H2O_H2O_4473
 ------------
 Symbolic Z-matrix:
 Charge =  0 Multiplicity = 1

                         Standard orientation:
 ---------------------------------------------------------------------
 Center     Atomic      Atomic             Coordinates (Angstroms)
 Number     Number       Type             X           Y           Z
 ---------------------------------------------------------------------
      1          8           0        0.057074   -3.112390    0.000000
      2          1           0       -0.743382   -3.682283    0.000000
      3          1           0        0.855759   -3.684761    0.000000
      4          8           0        0.057074    3.218969    0.000000
      5          1           0       -0.459246    4.054983    0.000000
      6          1           0       -0.566308    2.459428    0.000000
 ---------------------------------------------------------------------

 SCF Done:  E(RHF) =  -152.107654990     A.U. after   10 cycles
 E2 =    -0.5258578615D+00 EUMP2 =    -0.15263351285181D+03
 CCSD(T)
 CCSD(T)= -0.15266072769D+03

 The electronic state is 1-A'.
 Alpha  occ. eigenvalues --  -20.55749 -20.55139  -1.33049  -1.32439  -0.70454
 Alpha  occ. eigenvalues --   -0.69837  -0.56508  -0.55891  -0.50162  -0.49554
 Alpha virt. eigenvalues --    0.13930   0.14568   0.20034   0.20689   0.54103
 Alpha virt. eigenvalues --    0.54732   0.57044   0.57652   0.67629   0.68325
 Alpha virt. eigenvalues --    0.78718   0.79317   0.80144   0.80769   0.82102

 Mulliken charges:
               1
     1  O   -0.510357
     2  H    0.254006
     3  H    0.256353
     4  O   -0.509983
     5  H    0.252443
     6  H    0.257538
 Sum of Mulliken charges =  -0.00000

 Dipole moment (field-independent basis, Debye):
    X=             -1.9619    Y=             -1.8627    Z=              0.0000  Tot=              2.7053
 Quadrupole moment (field-independent basis, Debye-Ang):
   XX=             -9.8551   YY=              3.3766   ZZ=            -14.7126
   XY=             -6.3362   XZ=              0.0000   YZ=              0.0000

 Normal termination of Gaussian 16 at Sat Aug 27 07:30:42 2022.
