 Gaussian 16, Revision A.03,
 Gaussian 16:  ES64L-G16RevA.03 25-Dec-2016

 ------------------
 #p CCSD(T)/cc-pVTZ
 ------------------

 ------------
 H2O_H2O_2103
 ------------
 Symbolic Z-matrix:
 Charge =  0 Multiplicity = 1

                         Standard orientation:
 ---------------------------------------------------------------------
 Center     Atomic      Atomic             Coordinates (Angstroms)
 Number     Number       Type             X           Y           Z
 ---------------------------------------------------------------------
      1          8           0        0.011143   -1.919269    0.000000
      2          1           0       -0.788713   -2.490002    0.000000
      3          1           0        0.810428   -2.490801    0.000000
      4          8           0        0.011143    1.921453    0.000000
      5          1           0        0.684285    2.637263    0.000000
      6          1           0       -0.884285    2.326069    0.000000
 ---------------------------------------------------------------------

 SCF Done:  E(RHF) =  -152.104887583     A.U. after   10 cycles
 E2 =    -0.5263849886D+00 EUMP2 =    -0.15263127257171D+03
 CCSD(T)
 CCSD(T)= -0.15265852109D+03

 The electronic state is 1-A'.
 Alpha  occ. eigenvalues --  -20.54513 -20.54477  -1.31797  -1.31755  -0.69217
 Alpha  occ. eigenvalues --   -0.69173  -0.55334  -0.54819  -0.48912  -0.48832
 Alpha virt. eigenvalues --    0.14186   0.15766   0.20615   0.21213   0.54064
 Alpha virt. eigenvalues --    0.56486   0.57925   0.58233   0.61667   0.75212
 Alpha virt. eigenvalues --    0.79420   0.80410   0.80534   0.81028   0.82440

 Mulliken charges:
               1
     1  O   -0.491933
     2  H    0.245014
     3  H    0.246963
     4  O   -0.491889
     5  H    0.244758
     6  H    0.247087
 Sum of Mulliken charges =  -0.00000

 Dipole moment (field-independent basis, Debye):
    X=             -0.3754    Y=             -0.0399    Z=              0.0000  Tot=              0.3775
 Quadrupole moment (field-independent basis, Debye-Ang):
   XX=             -7.9186   YY=              3.1259   ZZ=            -14.7093
   XY=             -0.4024   XZ=              0.0000   YZ=              0.0000

 Normal termination of Gaussian 16 at Sat Aug 27 08:36:25 2022.
