 Gaussian 16, Revision A.03,
 Gaussian 16:  ES64L-G16RevA.03 25-Dec-2016

 ------------------
 #p CCSD(T)/cc-pVTZ
 ------------------

 ------------
 H2O_H2O_2433
 ------------
 Symbolic Z-matrix:
 Charge =  0 Multiplicity = 1

                         Standard orientation:
 ---------------------------------------------------------------------
 Center     Atomic      Atomic             Coordinates (Angstroms)
 Number     Number       Type             X           Y           Z
 ---------------------------------------------------------------------
      1          8           0        0.028566   -2.085027    0.000000
      2          1           0       -0.771676   -2.655219    0.000000
      3          1           0        0.827465   -2.657098    0.000000
      4          8           0        0.028566    2.100263    0.000000
      5          1           0        0.436500    2.994185    0.000000
      6          1           0       -0.949337    2.196241    0.000000
 ---------------------------------------------------------------------

 SCF Done:  E(RHF) =  -152.105749527     A.U. after   10 cycles
 E2 =    -0.5261859925D+00 EUMP2 =    -0.15263193551976D+03
 CCSD(T)
 CCSD(T)= -0.15265917604D+03

 The electronic state is 1-A'.
 Alpha  occ. eigenvalues --  -20.54831 -20.54623  -1.32118  -1.31907  -0.69532
 Alpha  occ. eigenvalues --   -0.69312  -0.55518  -0.55221  -0.49219  -0.49008
 Alpha virt. eigenvalues --    0.14080   0.15488   0.20511   0.21119   0.54262
 Alpha virt. eigenvalues --    0.55566   0.57784   0.58056   0.64162   0.73701
 Alpha virt. eigenvalues --    0.79496   0.80014   0.80814   0.81156   0.82381

 Mulliken charges:
               1
     1  O   -0.498258
     2  H    0.247178
     3  H    0.251216
     4  O   -0.497925
     5  H    0.246289
     6  H    0.251499
 Sum of Mulliken charges =  -0.00000

 Dipole moment (field-independent basis, Debye):
    X=             -0.9682    Y=             -0.2741    Z=              0.0000  Tot=              1.0062
 Quadrupole moment (field-independent basis, Debye-Ang):
   XX=             -8.3359   YY=              4.0036   ZZ=            -14.7102
   XY=             -1.3123   XZ=              0.0000   YZ=              0.0000

 Normal termination of Gaussian 16 at Sat Aug 27 10:32:08 2022.
