 Gaussian 16, Revision A.03,
 Gaussian 16:  ES64L-G16RevA.03 25-Dec-2016

 ------------------
 #p CCSD(T)/cc-pVTZ
 ------------------

 ------------
 H2O_H2O_1756
 ------------
 Symbolic Z-matrix:
 Charge =  0 Multiplicity = 1

                         Standard orientation:
 ---------------------------------------------------------------------
 Center     Atomic      Atomic             Coordinates (Angstroms)
 Number     Number       Type             X           Y           Z
 ---------------------------------------------------------------------
      1          8           0        0.021861   -1.729616    0.000000
      2          1           0       -0.778329   -2.299880    0.000000
      3          1           0        0.820812   -2.301615    0.000000
      4          8           0        0.021861    1.738263    0.000000
      5          1           0        0.542910    2.571338    0.000000
      6          1           0       -0.935168    1.960976    0.000000
 ---------------------------------------------------------------------

 SCF Done:  E(RHF) =  -152.104234848     A.U. after   10 cycles
 E2 =    -0.5266922592D+00 EUMP2 =    -0.15263092710713D+03
 CCSD(T)
 CCSD(T)= -0.15265817617D+03

 The electronic state is 1-A'.
 Alpha  occ. eigenvalues --  -20.54408 -20.54235  -1.31692  -1.31503  -0.69116
 Alpha  occ. eigenvalues --   -0.68921  -0.55383  -0.54330  -0.48814  -0.48570
 Alpha virt. eigenvalues --    0.14143   0.16172   0.20534   0.21548   0.53082
 Alpha virt. eigenvalues --    0.56945   0.58045   0.58449   0.62259   0.76314
 Alpha virt. eigenvalues --    0.78862   0.79113   0.80300   0.81307   0.84078

 Mulliken charges:
               1
     1  O   -0.485473
     2  H    0.240427
     3  H    0.245385
     4  O   -0.485414
     5  H    0.239646
     6  H    0.245430
 Sum of Mulliken charges =  -0.00000

 Dipole moment (field-independent basis, Debye):
    X=             -0.7292    Y=             -0.1608    Z=              0.0000  Tot=              0.7467
 Quadrupole moment (field-independent basis, Debye-Ang):
   XX=             -8.1536   YY=              1.3980   ZZ=            -14.7095
   XY=             -0.6985   XZ=              0.0000   YZ=              0.0000

 Normal termination of Gaussian 16 at Sat Aug 27 06:36:44 2022.
