 Gaussian 16, Revision A.03,
 Gaussian 16:  ES64L-G16RevA.03 25-Dec-2016

 ------------------
 #p CCSD(T)/cc-pVTZ
 ------------------

 -----------
 H2O_H2O_750
 -----------
 Symbolic Z-matrix:
 Charge =  0 Multiplicity = 1

                         Standard orientation:
 ---------------------------------------------------------------------
 Center     Atomic      Atomic             Coordinates (Angstroms)
 Number     Number       Type             X           Y           Z
 ---------------------------------------------------------------------
      1          8           0       -0.000000   -0.000000   -1.202476
      2          1           0        0.000000   -0.799571   -1.773608
      3          1           0        0.000000    0.799571   -1.773608
      4          8           0       -0.000000    0.000000    1.202476
      5          1           0        0.000000    0.799571    1.773608
      6          1           0       -0.000000   -0.799571    1.773608
 ---------------------------------------------------------------------

 SCF Done:  E(RHF) =  -152.088227258     A.U. after   10 cycles
 E2 =    -0.5298522420D+00 EUMP2 =    -0.15261807949958D+03
 CCSD(T)
 CCSD(T)= -0.15264535457D+03

 The electronic state is 1-AG.
 Alpha  occ. eigenvalues --  -20.52848 -20.52847  -1.31022  -1.29877  -0.68239
 Alpha  occ. eigenvalues --   -0.67489  -0.57506  -0.49132  -0.48332  -0.46578
 Alpha virt. eigenvalues --    0.14537   0.17680   0.20580   0.22412   0.50228
 Alpha virt. eigenvalues --    0.58924   0.58957   0.63842   0.73062   0.76724
 Alpha virt. eigenvalues --    0.77402   0.79952   0.84154   0.86573   0.86685

 Mulliken charges:
               1
     1  O   -0.455802
     2  H    0.227901
     3  H    0.227901
     4  O   -0.455802
     5  H    0.227901
     6  H    0.227901
 Sum of Mulliken charges =   0.00000

 Dipole moment (field-independent basis, Debye):
    X=              0.0000    Y=             -0.0000    Z=              0.0000  Tot=              0.0000
 Quadrupole moment (field-independent basis, Debye-Ang):
   XX=            -14.7302   YY=             -8.0066   ZZ=             -3.3470
   XY=              0.0000   XZ=             -0.0000   YZ=              0.0000

 \MP4DQ=-152.6265331\MP4SDQ=-152.6298094\CCSD=-152.6291445\CCSD(T)=-152
 Normal termination of Gaussian 16 at Fri Aug 26 19:40:02 2022.
