 Gaussian 16, Revision A.03,
 Gaussian 16:  ES64L-G16RevA.03 25-Dec-2016

 ------------------
 #p CCSD(T)/cc-pVTZ
 ------------------

 -----------
 H2O_H2O_852
 -----------
 Symbolic Z-matrix:
 Charge =  0 Multiplicity = 1

                         Standard orientation:
 ---------------------------------------------------------------------
 Center     Atomic      Atomic             Coordinates (Angstroms)
 Number     Number       Type             X           Y           Z
 ---------------------------------------------------------------------
      1          8           0        0.007455   -1.255133    0.000000
      2          1           0       -0.792408   -1.825857    0.000000
      3          1           0        0.806734   -1.826674    0.000000
      4          8           0        0.007455    1.256103    0.000000
      5          1           0        0.725981    1.926347    0.000000
      6          1           0       -0.859588    1.718426    0.000000
 ---------------------------------------------------------------------

 SCF Done:  E(RHF) =  -152.092563530     A.U. after   11 cycles
 E2 =    -0.5291426693D+00 EUMP2 =    -0.15262170619941D+03
 CCSD(T)
 CCSD(T)= -0.15264900928D+03

 The electronic state is 1-A'.
 Alpha  occ. eigenvalues --  -20.53102 -20.53074  -1.31020  -1.30156  -0.68307
 Alpha  occ. eigenvalues --   -0.67727  -0.56945  -0.50128  -0.48313  -0.46919
 Alpha virt. eigenvalues --    0.14500   0.17481   0.20572   0.22328   0.50464
 Alpha virt. eigenvalues --    0.58800   0.58893   0.63049   0.73091   0.76691
 Alpha virt. eigenvalues --    0.76942   0.79345   0.83948   0.83965   0.86490

 Mulliken charges:
               1
     1  O   -0.459948
     2  H    0.228126
     3  H    0.231626
     4  O   -0.458592
     5  H    0.227227
     6  H    0.231561
 Sum of Mulliken charges =   0.00000

 Dipole moment (field-independent basis, Debye):
    X=             -0.2340    Y=             -0.0187    Z=              0.0000  Tot=              0.2348
 Quadrupole moment (field-independent basis, Debye-Ang):
   XX=             -8.0134   YY=             -2.7957   ZZ=            -14.7243
   XY=             -0.1086   XZ=              0.0000   YZ=              0.0000

 815\MP4DQ=-152.6303048\MP4SDQ=-152.6335461\CCSD=-152.632894\CCSD(T)=-1
 Normal termination of Gaussian 16 at Fri Aug 26 20:34:44 2022.
