 Gaussian 16, Revision A.03,
 Gaussian 16:  ES64L-G16RevA.03 25-Dec-2016

 ------------------
 #p CCSD(T)/cc-pVTZ
 ------------------

 ------------
 H2O_H2O_2317
 ------------
 Symbolic Z-matrix:
 Charge =  0 Multiplicity = 1

                         Standard orientation:
 ---------------------------------------------------------------------
 Center     Atomic      Atomic             Coordinates (Angstroms)
 Number     Number       Type             X           Y           Z
 ---------------------------------------------------------------------
      1          8           0        0.051293   -1.992344    0.000000
      2          1           0       -0.749521   -2.561733    0.000000
      3          1           0        0.849617   -2.565217    0.000000
      4          8           0        0.051293    2.055826    0.000000
      5          1           0       -0.105186    3.025888    0.000000
      6          1           0       -0.815591    1.593206    0.000000
 ---------------------------------------------------------------------

 SCF Done:  E(RHF) =  -152.107115233     A.U. after   10 cycles
 E2 =    -0.5261805436D+00 EUMP2 =    -0.15263329577640D+03
 CCSD(T)
 CCSD(T)= -0.15266049536D+03

 The electronic state is 1-A'.
 Alpha  occ. eigenvalues --  -20.55454 -20.54461  -1.32735  -1.31745  -0.70147
 Alpha  occ. eigenvalues --   -0.69124  -0.56151  -0.55162  -0.49846  -0.48862
 Alpha virt. eigenvalues --    0.13434   0.15823   0.20117   0.21866   0.53886
 Alpha virt. eigenvalues --    0.54691   0.57339   0.58313   0.65263   0.74560
 Alpha virt. eigenvalues --    0.78926   0.79577   0.80101   0.81746   0.83661

 Mulliken charges:
               1
     1  O   -0.502685
     2  H    0.248179
     3  H    0.255860
     4  O   -0.504912
     5  H    0.245482
     6  H    0.258075
 Sum of Mulliken charges =  -0.00000

 Dipole moment (field-independent basis, Debye):
    X=             -1.7343    Y=             -1.1552    Z=              0.0000  Tot=              2.0838
 Quadrupole moment (field-independent basis, Debye-Ang):
   XX=             -9.4617   YY=              1.1792   ZZ=            -14.7136
   XY=             -3.0149   XZ=              0.0000   YZ=              0.0000

 Normal termination of Gaussian 16 at Sat Aug 27 09:50:08 2022.
