 Gaussian 16, Revision A.03,
 Gaussian 16:  ES64L-G16RevA.03 25-Dec-2016

 ------------------
 #p CCSD(T)/cc-pVTZ
 ------------------

 -----------
 H2O_H2O_854
 -----------
 Symbolic Z-matrix:
 Charge =  0 Multiplicity = 1

                         Standard orientation:
 ---------------------------------------------------------------------
 Center     Atomic      Atomic             Coordinates (Angstroms)
 Number     Number       Type             X           Y           Z
 ---------------------------------------------------------------------
      1          8           0        0.014784   -1.253562    0.000000
      2          1           0       -0.785365   -1.823883    0.000000
      3          1           0        0.813776   -1.825504    0.000000
      4          8           0        0.014784    1.257424    0.000000
      5          1           0        0.640060    2.015406    0.000000
      6          1           0       -0.905013    1.603083    0.000000
 ---------------------------------------------------------------------

 SCF Done:  E(RHF) =  -152.092951788     A.U. after   11 cycles
 E2 =    -0.5291449527D+00 EUMP2 =    -0.15262209674085D+03
 CCSD(T)
 CCSD(T)= -0.15264939189D+03

 The electronic state is 1-A'.
 Alpha  occ. eigenvalues --  -20.53193 -20.53080  -1.31071  -1.30187  -0.68364
 Alpha  occ. eigenvalues --   -0.67760  -0.56922  -0.50247  -0.48363  -0.46957
 Alpha virt. eigenvalues --    0.14468   0.17446   0.20553   0.22384   0.50791
 Alpha virt. eigenvalues --    0.58760   0.58880   0.62793   0.72457   0.76643
 Alpha virt. eigenvalues --    0.76836   0.79491   0.83926   0.84370   0.86434

 Mulliken charges:
               1
     1  O   -0.461616
     2  H    0.227045
     3  H    0.233894
     4  O   -0.456648
     5  H    0.224109
     6  H    0.233216
 Sum of Mulliken charges =  -0.00000

 Dipole moment (field-independent basis, Debye):
    X=             -0.4639    Y=             -0.0747    Z=              0.0000  Tot=              0.4698
 Quadrupole moment (field-independent basis, Debye-Ang):
   XX=             -8.1103   YY=             -2.8154   ZZ=            -14.7241
   XY=             -0.2277   XZ=              0.0000   YZ=              0.0000

 Normal termination of Gaussian 16 at Fri Aug 26 20:35:41 2022.
