 Gaussian 16, Revision A.03,
 Gaussian 16:  ES64L-G16RevA.03 25-Dec-2016

 ------------------
 #p CCSD(T)/cc-pVTZ
 ------------------

 ------------
 H2O_H2O_1125
 ------------
 Symbolic Z-matrix:
 Charge =  0 Multiplicity = 1

                         Standard orientation:
 ---------------------------------------------------------------------
 Center     Atomic      Atomic             Coordinates (Angstroms)
 Number     Number       Type             X           Y           Z
 ---------------------------------------------------------------------
      1          8           0        0.000000   -0.000000    1.401915
      2          1           0        0.000000    0.799571    1.973047
      3          1           0       -0.000000   -0.799571    1.973047
      4          8           0        0.000000   -0.000000   -1.401915
      5          1           0       -0.000000   -0.799571   -1.973047
      6          1           0        0.000000    0.799571   -1.973047
 ---------------------------------------------------------------------

 SCF Done:  E(RHF) =  -152.098944244     A.U. after   10 cycles
 E2 =    -0.5278997953D+00 EUMP2 =    -0.15262684403918D+03
 CCSD(T)
 CCSD(T)= -0.15265416184D+03

 The electronic state is 1-AG.
 Alpha  occ. eigenvalues --  -20.53564 -20.53564  -1.31114  -1.30724  -0.68496
 Alpha  occ. eigenvalues --   -0.68218  -0.55981  -0.52010  -0.48350  -0.47613
 Alpha virt. eigenvalues --    0.14451   0.17018   0.20568   0.22031   0.50973
 Alpha virt. eigenvalues --    0.58495   0.58762   0.61266   0.69906   0.76333
 Alpha virt. eigenvalues --    0.77203   0.78012   0.79287   0.83304   0.86283

 Mulliken charges:
               1
     1  O   -0.466927
     2  H    0.233463
     3  H    0.233463
     4  O   -0.466927
     5  H    0.233463
     6  H    0.233463
 Sum of Mulliken charges =   0.00000

 Dipole moment (field-independent basis, Debye):
    X=             -0.0000    Y=              0.0000    Z=              0.0000  Tot=              0.0000
 Quadrupole moment (field-independent basis, Debye-Ang):
   XX=            -14.7138   YY=             -7.9256   ZZ=             -1.3513
   XY=              0.0000   XZ=             -0.0000   YZ=             -0.0000

 \MP4DQ=-152.6356746\MP4SDQ=-152.6388529\CCSD=-152.6382219\CCSD(T)=-152
 Normal termination of Gaussian 16 at Sat Aug 27 02:19:40 2022.
