 Gaussian 16, Revision A.03,
 Gaussian 16:  ES64L-G16RevA.03 25-Dec-2016

 ------------------
 #p CCSD(T)/cc-pVTZ
 ------------------

 ------------
 H2O_H2O_3472
 ------------
 Symbolic Z-matrix:
 Charge =  0 Multiplicity = 1

                         Standard orientation:
 ---------------------------------------------------------------------
 Center     Atomic      Atomic             Coordinates (Angstroms)
 Number     Number       Type             X           Y           Z
 ---------------------------------------------------------------------
      1          8           0        0.056716   -2.584610    0.000000
      2          1           0       -0.743910   -3.154262    0.000000
      3          1           0        0.855229   -3.157221    0.000000
      4          8           0        0.056716    2.683718    0.000000
      5          1           0       -0.403559    3.551850    0.000000
      6          1           0       -0.615222    1.966777    0.000000
 ---------------------------------------------------------------------

 SCF Done:  E(RHF) =  -152.107746857     A.U. after   10 cycles
 E2 =    -0.5258920856D+00 EUMP2 =    -0.15263363894307D+03
 CCSD(T)
 CCSD(T)= -0.15266084759D+03

 The electronic state is 1-A'.
 Alpha  occ. eigenvalues --  -20.55761 -20.54905  -1.33058  -1.32205  -0.70464
 Alpha  occ. eigenvalues --   -0.69596  -0.56520  -0.55658  -0.50172  -0.49322
 Alpha virt. eigenvalues --    0.13670   0.14964   0.20013   0.21039   0.54065
 Alpha virt. eigenvalues --    0.54899   0.57044   0.57818   0.67116   0.69188
 Alpha virt. eigenvalues --    0.78713   0.79541   0.80052   0.80472   0.82725

 Mulliken charges:
               1
     1  O   -0.510619
     2  H    0.253350
     3  H    0.257413
     4  O   -0.510101
     5  H    0.250801
     6  H    0.259155
 Sum of Mulliken charges =  -0.00000

 Dipole moment (field-independent basis, Debye):
    X=             -1.9427    Y=             -1.7503    Z=              0.0000  Tot=              2.6149
 Quadrupole moment (field-independent basis, Debye-Ang):
   XX=             -9.8267   YY=              1.7834   ZZ=            -14.7132
   XY=             -5.1350   XZ=              0.0000   YZ=              0.0000

 Normal termination of Gaussian 16 at Fri Aug 26 22:37:30 2022.
