 Gaussian 16, Revision A.03,
 Gaussian 16:  ES64L-G16RevA.03 25-Dec-2016

 ------------------
 #p CCSD(T)/cc-pVTZ
 ------------------

 ------------
 H2O_H2O_1438
 ------------
 Symbolic Z-matrix:
 Charge =  0 Multiplicity = 1

                         Standard orientation:
 ---------------------------------------------------------------------
 Center     Atomic      Atomic             Coordinates (Angstroms)
 Number     Number       Type             X           Y           Z
 ---------------------------------------------------------------------
      1          8           0        0.042986   -1.540441    0.000000
      2          1           0       -0.757936   -2.109677    0.000000
      3          1           0        0.841201   -2.113467    0.000000
      4          8           0        0.042986    1.579149    0.000000
      5          1           0        0.143097    2.556638    0.000000
      6          1           0       -0.914138    1.356841    0.000000
 ---------------------------------------------------------------------

 SCF Done:  E(RHF) =  -152.104597974     A.U. after   10 cycles
 E2 =    -0.5271403363D+00 EUMP2 =    -0.15263173831015D+03
 CCSD(T)
 CCSD(T)= -0.15265895573D+03

 The electronic state is 1-A'.
 Alpha  occ. eigenvalues --  -20.54821 -20.53850  -1.32121  -1.31102  -0.69546
 Alpha  occ. eigenvalues --   -0.68506  -0.55777  -0.54010  -0.49242  -0.48186
 Alpha virt. eigenvalues --    0.13868   0.16660   0.20239   0.22491   0.53658
 Alpha virt. eigenvalues --    0.56494   0.57788   0.58616   0.65615   0.76400
 Alpha virt. eigenvalues --    0.77602   0.77871   0.79468   0.82121   0.85383

 Mulliken charges:
               1
     1  O   -0.483242
     2  H    0.236962
     3  H    0.248841
     4  O   -0.483694
     5  H    0.232105
     6  H    0.249029
 Sum of Mulliken charges =  -0.00000

 Dipole moment (field-independent basis, Debye):
    X=             -1.4101    Y=             -0.7342    Z=              0.0000  Tot=              1.5898
 Quadrupole moment (field-independent basis, Debye-Ang):
   XX=             -9.0113   YY=             -0.8281   ZZ=            -14.7146
   XY=             -1.5294   XZ=              0.0000   YZ=              0.0000

 Normal termination of Gaussian 16 at Sat Aug 27 04:45:59 2022.
