 Gaussian 16, Revision A.03,
 Gaussian 16:  ES64L-G16RevA.03 25-Dec-2016

 ------------------
 #p CCSD(T)/cc-pVTZ
 ------------------

 -----------
 H2O_H2O_105
 -----------
 Symbolic Z-matrix:
 Charge =  0 Multiplicity = 1

                         Standard orientation:
 ---------------------------------------------------------------------
 Center     Atomic      Atomic             Coordinates (Angstroms)
 Number     Number       Type             X           Y           Z
 ---------------------------------------------------------------------
      1          8           0        0.018364   -0.853526    0.000000
      2          1           0       -0.782260   -1.423182    0.000000
      3          1           0        0.816880   -1.426132    0.000000
      4          8           0        0.018364    0.859520    0.000000
      5          1           0        0.593389    1.656296    0.000000
      6          1           0       -0.921833    1.145064    0.000000
 ---------------------------------------------------------------------

 SCF Done:  E(RHF) =  -151.966276979     A.U. after   11 cycles
 E2 =    -0.5459468115D+00 EUMP2 =    -0.15251222379077D+03
 CCSD(T)
 CCSD(T)= -0.15253754260D+03

 The electronic state is 1-A'.
 Alpha  occ. eigenvalues --  -20.51437 -20.51265  -1.35178  -1.27176  -0.70509
 Alpha  occ. eigenvalues --   -0.67450  -0.63980  -0.51672  -0.43472  -0.36155
 Alpha virt. eigenvalues --    0.14477   0.19258   0.19980   0.23197   0.51485
 Alpha virt. eigenvalues --    0.58052   0.59077   0.66223   0.69158   0.78990
 Alpha virt. eigenvalues --    0.80086   0.83685   0.83890   0.85915   0.88191

 Mulliken charges:
               1
     1  O   -0.376556
     2  H    0.180002
     3  H    0.196630
     4  O   -0.360723
     5  H    0.147029
     6  H    0.213618
 Sum of Mulliken charges =   0.00000

 Dipole moment (field-independent basis, Debye):
    X=             -0.5197    Y=             -0.1542    Z=              0.0000  Tot=              0.5421
 Quadrupole moment (field-independent basis, Debye-Ang):
   XX=             -8.5543   YY=             -8.1794   ZZ=            -14.7503
   XY=             -0.2287   XZ=              0.0000   YZ=              0.0000

 52686\MP4DQ=-152.5165354\MP4SDQ=-152.5206483\CCSD=-152.519491\CCSD(T)=
 Normal termination of Gaussian 16 at Fri Aug 26 12:48:38 2022.
