 Gaussian 16, Revision A.03,
 Gaussian 16:  ES64L-G16RevA.03 25-Dec-2016

 ------------------
 #p CCSD(T)/cc-pVTZ
 ------------------

 -----------
 H2O_H2O_887
 -----------
 Symbolic Z-matrix:
 Charge =  0 Multiplicity = 1

                         Standard orientation:
 ---------------------------------------------------------------------
 Center     Atomic      Atomic             Coordinates (Angstroms)
 Number     Number       Type             X           Y           Z
 ---------------------------------------------------------------------
      1          8           0        0.040431   -1.250903    0.000000
      2          1           0       -0.760704   -1.819840    0.000000
      3          1           0        0.838432   -1.824226    0.000000
      4          8           0        0.040431    1.284137    0.000000
      5          1           0        0.204620    2.252925    0.000000
      6          1           0       -0.929243    1.125265    0.000000
 ---------------------------------------------------------------------

 SCF Done:  E(RHF) =  -152.097085240     A.U. after   11 cycles
 E2 =    -0.5290228133D+00 EUMP2 =    -0.15262610805350D+03
 CCSD(T)
 CCSD(T)= -0.15265333623D+03

 The electronic state is 1-A'.
 Alpha  occ. eigenvalues --  -20.54161 -20.53090  -1.31804  -1.30297  -0.69177
 Alpha  occ. eigenvalues --   -0.67925  -0.56530  -0.51618  -0.49009  -0.47210
 Alpha virt. eigenvalues --    0.14092   0.17333   0.20265   0.23058   0.53146
 Alpha virt. eigenvalues --    0.58034   0.58209   0.60528   0.70403   0.75973
 Alpha virt. eigenvalues --    0.77220   0.78610   0.83398   0.84718   0.85700

 Mulliken charges:
               1
     1  O   -0.470355
     2  H    0.227675
     3  H    0.244248
     4  O   -0.458365
     5  H    0.214317
     6  H    0.242481
 Sum of Mulliken charges =  -0.00000

 Dipole moment (field-independent basis, Debye):
    X=             -1.2683    Y=             -0.6480    Z=              0.0000  Tot=              1.4243
 Quadrupole moment (field-independent basis, Debye-Ang):
   XX=             -8.9427   YY=             -3.0453   ZZ=            -14.7232
   XY=             -0.9917   XZ=              0.0000   YZ=              0.0000

 Normal termination of Gaussian 16 at Fri Aug 26 20:52:57 2022.
