 Gaussian 16, Revision A.03,
 Gaussian 16:  ES64L-G16RevA.03 25-Dec-2016

 ------------------
 #p CCSD(T)/cc-pVTZ
 ------------------

 ------------
 H2O_H2O_3081
 ------------
 Symbolic Z-matrix:
 Charge =  0 Multiplicity = 1

                         Standard orientation:
 ---------------------------------------------------------------------
 Center     Atomic      Atomic             Coordinates (Angstroms)
 Number     Number       Type             X           Y           Z
 ---------------------------------------------------------------------
      1          8           0        0.021860   -2.434292    0.000000
      2          1           0       -0.778152   -3.004807    0.000000
      3          1           0        0.820990   -3.006040    0.000000
      4          8           0        0.021860    2.442953    0.000000
      5          1           0        0.542648    3.276191    0.000000
      6          1           0       -0.935239    2.665365    0.000000
 ---------------------------------------------------------------------

 SCF Done:  E(RHF) =  -152.106199793     A.U. after   10 cycles
 E2 =    -0.5260286573D+00 EUMP2 =    -0.15263222845032D+03
 CCSD(T)
 CCSD(T)= -0.15265947137D+03

 The electronic state is 1-A'.
 Alpha  occ. eigenvalues --  -20.54963 -20.54879  -1.32256  -1.32171  -0.69667
 Alpha  occ. eigenvalues --   -0.69578  -0.55648  -0.55556  -0.49359  -0.49274
 Alpha virt. eigenvalues --    0.14366   0.14930   0.20556   0.20782   0.54782
 Alpha virt. eigenvalues --    0.55101   0.57701   0.57824   0.67174   0.70204
 Alpha virt. eigenvalues --    0.79507   0.79609   0.80933   0.81108   0.82659

 Mulliken charges:
               1
     1  O   -0.501761
     2  H    0.249859
     3  H    0.251909
     4  O   -0.501589
     5  H    0.249436
     6  H    0.252147
 Sum of Mulliken charges =  -0.00000

 Dipole moment (field-independent basis, Debye):
    X=             -0.7463    Y=             -0.1530    Z=              0.0000  Tot=              0.7619
 Quadrupole moment (field-independent basis, Debye-Ang):
   XX=             -8.1144   YY=              6.9892   ZZ=            -14.7100
   XY=             -1.2131   XZ=              0.0000   YZ=              0.0000

 Normal termination of Gaussian 16 at Fri Aug 26 19:14:32 2022.
