 Gaussian 16, Revision A.03,
 Gaussian 16:  ES64L-G16RevA.03 25-Dec-2016

 ------------------
 #p CCSD(T)/cc-pVTZ
 ------------------

 ------------
 H2O_H2O_3169
 ------------
 Symbolic Z-matrix:
 Charge =  0 Multiplicity = 1

                         Standard orientation:
 ---------------------------------------------------------------------
 Center     Atomic      Atomic             Coordinates (Angstroms)
 Number     Number       Type             X           Y           Z
 ---------------------------------------------------------------------
      1          8           0        0.054155   -2.436899    0.000000
      2          1           0       -0.746489   -3.006526    0.000000
      3          1           0        0.852651   -3.009534    0.000000
      4          8           0        0.054155    2.514205    0.000000
      5          1           0       -0.227884    3.455459    0.000000
      6          1           0       -0.744758    1.942152    0.000000
 ---------------------------------------------------------------------

 SCF Done:  E(RHF) =  -152.107436925     A.U. after   10 cycles
 E2 =    -0.5259416231D+00 EUMP2 =    -0.15263337854792D+03
 CCSD(T)
 CCSD(T)= -0.15266059170D+03

 The electronic state is 1-A'.
 Alpha  occ. eigenvalues --  -20.55596 -20.54831  -1.32892  -1.32126  -0.70299
 Alpha  occ. eigenvalues --   -0.69516  -0.56338  -0.55569  -0.50003  -0.49242
 Alpha virt. eigenvalues --    0.13703   0.15100   0.20107   0.21114   0.54180
 Alpha virt. eigenvalues --    0.54934   0.57191   0.57861   0.66989   0.69929
 Alpha virt. eigenvalues --    0.78881   0.79622   0.80124   0.80731   0.82781

 Mulliken charges:
               1
     1  O   -0.508583
     2  H    0.252005
     3  H    0.256794
     4  O   -0.508260
     5  H    0.249660
     6  H    0.258384
 Sum of Mulliken charges =  -0.00000

 Dipole moment (field-independent basis, Debye):
    X=             -1.8511    Y=             -1.3713    Z=              0.0000  Tot=              2.3037
 Quadrupole moment (field-independent basis, Debye-Ang):
   XX=             -9.6477   YY=              2.7989   ZZ=            -14.7127
   XY=             -4.2416   XZ=              0.0000   YZ=              0.0000

 Normal termination of Gaussian 16 at Fri Aug 26 20:04:00 2022.
