 Gaussian 16, Revision A.03,
 Gaussian 16:  ES64L-G16RevA.03 25-Dec-2016

 ------------------
 #p CCSD(T)/cc-pVTZ
 ------------------

 ------------
 H2O_H2O_1569
 ------------
 Symbolic Z-matrix:
 Charge =  0 Multiplicity = 1

                         Standard orientation:
 ---------------------------------------------------------------------
 Center     Atomic      Atomic             Coordinates (Angstroms)
 Number     Number       Type             X           Y           Z
 ---------------------------------------------------------------------
      1          8           0        0.054193   -1.586016    0.000000
      2          1           0       -0.747011   -2.154854    0.000000
      3          1           0        0.852124   -2.159437    0.000000
      4          8           0        0.054193    1.663215    0.000000
      5          1           0       -0.226919    2.604748    0.000000
      6          1           0       -0.745283    1.091950    0.000000
 ---------------------------------------------------------------------

 SCF Done:  E(RHF) =  -152.107476181     A.U. after   10 cycles
 E2 =    -0.5268987811D+00 EUMP2 =    -0.15263437496219D+03
 CCSD(T)
 CCSD(T)= -0.15266152612D+03

 The electronic state is 1-A'.
 Alpha  occ. eigenvalues --  -20.55750 -20.53766  -1.33033  -1.31041  -0.70449
 Alpha  occ. eigenvalues --   -0.68434  -0.56431  -0.54448  -0.50150  -0.48165
 Alpha virt. eigenvalues --    0.13358   0.16762   0.19885   0.23580   0.53933
 Alpha virt. eigenvalues --    0.55007   0.57062   0.58297   0.66320   0.76014
 Alpha virt. eigenvalues --    0.76860   0.77215   0.79174   0.81528   0.84671

 Mulliken charges:
               1
     1  O   -0.491189
     2  H    0.242320
     3  H    0.255373
     4  O   -0.502406
     5  H    0.237302
     6  H    0.258601
 Sum of Mulliken charges =  -0.00000

 Dipole moment (field-independent basis, Debye):
    X=             -1.7893    Y=             -1.4739    Z=              0.0000  Tot=              2.3182
 Quadrupole moment (field-independent basis, Debye-Ang):
   XX=             -9.6602   YY=             -1.8320   ZZ=            -14.7196
   XY=             -2.6993   XZ=              0.0000   YZ=              0.0000

 Normal termination of Gaussian 16 at Sat Aug 27 05:31:29 2022.
