 Gaussian 16, Revision A.03,
 Gaussian 16:  ES64L-G16RevA.03 25-Dec-2016

 ------------------
 #p CCSD(T)/cc-pVTZ
 ------------------

 ------------
 H2O_H2O_1241
 ------------
 Symbolic Z-matrix:
 Charge =  0 Multiplicity = 1

                         Standard orientation:
 ---------------------------------------------------------------------
 Center     Atomic      Atomic             Coordinates (Angstroms)
 Number     Number       Type             X           Y           Z
 ---------------------------------------------------------------------
      1          8           0        0.049545   -1.424235    0.000000
      2          1           0       -0.751697   -1.993021    0.000000
      3          1           0        0.847438   -1.997708    0.000000
      4          8           0        0.049545    1.481058    0.000000
      5          1           0       -0.042417    2.459347    0.000000
      6          1           0       -0.846044    1.076798    0.000000
 ---------------------------------------------------------------------

 SCF Done:  E(RHF) =  -152.104682704     A.U. after   10 cycles
 E2 =    -0.5276234979D+00 EUMP2 =    -0.15263230620146D+03
 CCSD(T)
 CCSD(T)= -0.15265949148D+03

 The electronic state is 1-A'.
 Alpha  occ. eigenvalues --  -20.55181 -20.53498  -1.32527  -1.30749  -0.69949
 Alpha  occ. eigenvalues --   -0.68212  -0.56071  -0.53763  -0.49651  -0.47833
 Alpha virt. eigenvalues --    0.13690   0.17020   0.20034   0.23302   0.53853
 Alpha virt. eigenvalues --    0.57017   0.57479   0.58297   0.68268   0.75668
 Alpha virt. eigenvalues --    0.76418   0.76953   0.80640   0.82490   0.85069

 Mulliken charges:
               1
     1  O   -0.481262
     2  H    0.235895
     3  H    0.251227
     4  O   -0.485391
     5  H    0.228097
     6  H    0.251434
 Sum of Mulliken charges =  -0.00000

 Dipole moment (field-independent basis, Debye):
    X=             -1.6038    Y=             -1.0993    Z=              0.0000  Tot=              1.9444
 Quadrupole moment (field-independent basis, Debye-Ang):
   XX=             -9.3885   YY=             -2.1579   ZZ=            -14.7200
   XY=             -1.8720   XZ=              0.0000   YZ=              0.0000

 Normal termination of Gaussian 16 at Sat Aug 27 03:16:46 2022.
