 Gaussian 16, Revision A.03,
 Gaussian 16:  ES64L-G16RevA.03 25-Dec-2016

 ------------------
 #p CCSD(T)/cc-pVTZ
 ------------------

 ------------
 H2O_H2O_4554
 ------------
 Symbolic Z-matrix:
 Charge =  0 Multiplicity = 1

                         Standard orientation:
 ---------------------------------------------------------------------
 Center     Atomic      Atomic             Coordinates (Angstroms)
 Number     Number       Type             X           Y           Z
 ---------------------------------------------------------------------
      1          8           0        0.014783   -3.221347    0.000000
      2          1           0       -0.785014   -3.792163    0.000000
      3          1           0        0.814128   -3.792795    0.000000
      4          8           0        0.014783    3.225227    0.000000
      5          1           0        0.639589    3.983597    0.000000
      6          1           0       -0.905228    3.570318    0.000000
 ---------------------------------------------------------------------

 SCF Done:  E(RHF) =  -152.106880767     A.U. after   10 cycles
 E2 =    -0.5259234970D+00 EUMP2 =    -0.15263280426372D+03
 CCSD(T)
 CCSD(T)= -0.15266003572D+03

 The electronic state is 1-A'.
 Alpha  occ. eigenvalues --  -20.55226 -20.55204  -1.32522  -1.32500  -0.69929
 Alpha  occ. eigenvalues --   -0.69907  -0.55945  -0.55923  -0.49629  -0.49608
 Alpha virt. eigenvalues --    0.14404   0.14433   0.20454   0.20479   0.54640
 Alpha virt. eigenvalues --    0.54664   0.57511   0.57533   0.68275   0.68319
 Alpha virt. eigenvalues --    0.79250   0.79271   0.80692   0.80716   0.82619

 Mulliken charges:
               1
     1  O   -0.505755
     2  H    0.252561
     3  H    0.253194
     4  O   -0.505734
     5  H    0.252417
     6  H    0.253317
 Sum of Mulliken charges =  -0.00000

 Dipole moment (field-independent basis, Debye):
    X=             -0.5080    Y=             -0.0677    Z=              0.0000  Tot=              0.5125
 Quadrupole moment (field-independent basis, Debye-Ang):
   XX=             -7.9399   YY=             13.4464   ZZ=            -14.7108
   XY=             -1.1916   XZ=              0.0000   YZ=              0.0000

 Normal termination of Gaussian 16 at Sat Aug 27 07:58:56 2022.
