 Gaussian 16, Revision A.03,
 Gaussian 16:  ES64L-G16RevA.03 25-Dec-2016

 ------------------
 #p CCSD(T)/cc-pVTZ
 ------------------

 ------------
 H2O_H2O_4620
 ------------
 Symbolic Z-matrix:
 Charge =  0 Multiplicity = 1

                         Standard orientation:
 ---------------------------------------------------------------------
 Center     Atomic      Atomic             Coordinates (Angstroms)
 Number     Number       Type             X           Y           Z
 ---------------------------------------------------------------------
      1          8           0        0.055229   -3.204155    0.000000
      2          1           0       -0.745177   -3.774117    0.000000
      3          1           0        0.853964   -3.776456    0.000000
      4          8           0        0.055229    3.288656    0.000000
      5          1           0       -0.288152    4.209306    0.000000
      6          1           0       -0.704299    2.665260    0.000000
 ---------------------------------------------------------------------

 SCF Done:  E(RHF) =  -152.107481262     A.U. after   10 cycles
 E2 =    -0.5258713339D+00 EUMP2 =    -0.15263335259548D+03
 CCSD(T)
 CCSD(T)= -0.15266057122D+03

 The electronic state is 1-A'.
 Alpha  occ. eigenvalues --  -20.55637 -20.55176  -1.32937  -1.32475  -0.70343
 Alpha  occ. eigenvalues --   -0.69874  -0.56387  -0.55922  -0.50049  -0.49588
 Alpha virt. eigenvalues --    0.14039   0.14510   0.20122   0.20614   0.54218
 Alpha virt. eigenvalues --    0.54699   0.57143   0.57605   0.67785   0.68281
 Alpha virt. eigenvalues --    0.78831   0.79285   0.80260   0.80748   0.82190

 Mulliken charges:
               1
     1  O   -0.509323
     2  H    0.253560
     3  H    0.255764
     4  O   -0.509055
     5  H    0.252378
     6  H    0.256677
 Sum of Mulliken charges =  -0.00000

 Dipole moment (field-independent basis, Debye):
    X=             -1.8990    Y=             -1.4752    Z=              0.0000  Tot=              2.4047
 Quadrupole moment (field-independent basis, Debye-Ang):
   XX=             -9.7243   YY=              6.1334   ZZ=            -14.7122
   XY=             -5.9002   XZ=              0.0000   YZ=              0.0000

 Normal termination of Gaussian 16 at Sat Aug 27 08:22:41 2022.
