 Gaussian 16, Revision A.03,
 Gaussian 16:  ES64L-G16RevA.03 25-Dec-2016

 ------------------
 #p CCSD(T)/cc-pVTZ
 ------------------

 ------------
 H2O_H2O_3222
 ------------
 Symbolic Z-matrix:
 Charge =  0 Multiplicity = 1

                         Standard orientation:
 ---------------------------------------------------------------------
 Center     Atomic      Atomic             Coordinates (Angstroms)
 Number     Number       Type             X           Y           Z
 ---------------------------------------------------------------------
      1          8           0        0.056721   -2.451657    0.000000
      2          1           0       -0.743961   -3.021230    0.000000
      3          1           0        0.855178   -3.024346    0.000000
      4          8           0        0.056721    2.550753    0.000000
      5          1           0       -0.403469    3.418931    0.000000
      6          1           0       -0.615288    1.833878    0.000000
 ---------------------------------------------------------------------

 SCF Done:  E(RHF) =  -152.107827727     A.U. after   10 cycles
 E2 =    -0.5259142561D+00 EUMP2 =    -0.15263374198357D+03
 CCSD(T)
 CCSD(T)= -0.15266094548D+03

 The electronic state is 1-A'.
 Alpha  occ. eigenvalues --  -20.55786 -20.54820  -1.33082  -1.32119  -0.70487
 Alpha  occ. eigenvalues --   -0.69508  -0.56545  -0.55573  -0.50196  -0.49237
 Alpha virt. eigenvalues --    0.13512   0.15139   0.19988   0.21216   0.54022
 Alpha virt. eigenvalues --    0.54898   0.57034   0.57871   0.66876   0.69738
 Alpha virt. eigenvalues --    0.78692   0.79622   0.79879   0.80404   0.82790

 Mulliken charges:
               1
     1  O   -0.510552
     2  H    0.253095
     3  H    0.257788
     4  O   -0.510304
     5  H    0.250207
     6  H    0.259765
 Sum of Mulliken charges =   0.00000

 Dipole moment (field-independent basis, Debye):
    X=             -1.9398    Y=             -1.7587    Z=              0.0000  Tot=              2.6184
 Quadrupole moment (field-independent basis, Debye-Ang):
   XX=             -9.8264   YY=              1.1824   ZZ=            -14.7137
   XY=             -4.8793   XZ=              0.0000   YZ=              0.0000

 Normal termination of Gaussian 16 at Fri Aug 26 20:29:35 2022.
