 Gaussian 16, Revision A.03,
 Gaussian 16:  ES64L-G16RevA.03 25-Dec-2016

 ------------------
 #p CCSD(T)/cc-pVTZ
 ------------------

 ------------
 H2O_H2O_2495
 ------------
 Symbolic Z-matrix:
 Charge =  0 Multiplicity = 1

                         Standard orientation:
 ---------------------------------------------------------------------
 Center     Atomic      Atomic             Coordinates (Angstroms)
 Number     Number       Type             X           Y           Z
 ---------------------------------------------------------------------
      1          8           0        0.055262   -2.074048    0.000000
      2          1           0       -0.745589   -2.643384    0.000000
      3          1           0        0.853549   -2.646973    0.000000
      4          8           0        0.055262    2.158463    0.000000
      5          1           0       -0.287399    3.079380    0.000000
      6          1           0       -0.704753    1.535660    0.000000
 ---------------------------------------------------------------------

 SCF Done:  E(RHF) =  -152.107778368     A.U. after   10 cycles
 E2 =    -0.5260854460D+00 EUMP2 =    -0.15263386381389D+03
 CCSD(T)
 CCSD(T)= -0.15266105207D+03

 The electronic state is 1-A'.
 Alpha  occ. eigenvalues --  -20.55729 -20.54509  -1.33012  -1.31802  -0.70420
 Alpha  occ. eigenvalues --   -0.69179  -0.56458  -0.55249  -0.50126  -0.48923
 Alpha virt. eigenvalues --    0.13244   0.15736   0.19989   0.21972   0.54075
 Alpha virt. eigenvalues --    0.54619   0.57120   0.58295   0.66059   0.73116
 Alpha virt. eigenvalues --    0.78730   0.79543   0.79962   0.81829   0.82269

 Mulliken charges:
               1
     1  O   -0.506275
     2  H    0.250324
     3  H    0.257514
     4  O   -0.509117
     5  H    0.247162
     6  H    0.260392
 Sum of Mulliken charges =   0.00000

 Dipole moment (field-independent basis, Debye):
    X=             -1.8747    Y=             -1.5301    Z=              0.0000  Tot=              2.4198
 Quadrupole moment (field-independent basis, Debye-Ang):
   XX=             -9.7230   YY=              0.4269   ZZ=            -14.7147
   XY=             -3.7824   XZ=              0.0000   YZ=              0.0000

 Normal termination of Gaussian 16 at Sat Aug 27 10:52:24 2022.
