 Gaussian 16, Revision A.03,
 Gaussian 16:  ES64L-G16RevA.03 25-Dec-2016

 ------------------
 #p CCSD(T)/cc-pVTZ
 ------------------

 ------------
 H2O_H2O_3646
 ------------
 Symbolic Z-matrix:
 Charge =  0 Multiplicity = 1

                         Standard orientation:
 ---------------------------------------------------------------------
 Center     Atomic      Atomic             Coordinates (Angstroms)
 Number     Number       Type             X           Y           Z
 ---------------------------------------------------------------------
      1          8           0        0.056097   -2.681681    0.000000
      2          1           0       -0.744482   -3.251398    0.000000
      3          1           0        0.854657   -3.254226    0.000000
      4          8           0        0.056097    2.773425    0.000000
      5          1           0       -0.346488    3.669768    0.000000
      6          1           0       -0.661238    2.101906    0.000000
 ---------------------------------------------------------------------

 SCF Done:  E(RHF) =  -152.107607438     A.U. after   10 cycles
 E2 =    -0.5258892276D+00 EUMP2 =    -0.15263349666532D+03
 CCSD(T)
 CCSD(T)= -0.15266071006D+03

 The electronic state is 1-A'.
 Alpha  occ. eigenvalues --  -20.55695 -20.54964  -1.32994  -1.32263  -0.70400
 Alpha  occ. eigenvalues --   -0.69656  -0.56450  -0.55712  -0.50107  -0.49378
 Alpha virt. eigenvalues --    0.13820   0.14841   0.20064   0.20917   0.54140
 Alpha virt. eigenvalues --    0.54885   0.57095   0.57786   0.67356   0.68899
 Alpha virt. eigenvalues --    0.78776   0.79488   0.80173   0.80646   0.82604

 Mulliken charges:
               1
     1  O   -0.510001
     2  H    0.253187
     3  H    0.256876
     4  O   -0.509481
     5  H    0.251038
     6  H    0.258382
 Sum of Mulliken charges =  -0.00000

 Dipole moment (field-independent basis, Debye):
    X=             -1.9231    Y=             -1.6155    Z=              0.0000  Tot=              2.5116
 Quadrupole moment (field-independent basis, Debye-Ang):
   XX=             -9.7832   YY=              2.8757   ZZ=            -14.7128
   XY=             -5.1275   XZ=              0.0000   YZ=              0.0000

 Normal termination of Gaussian 16 at Sat Aug 27 02:11:08 2022.
