 Gaussian 16, Revision A.03,
 Gaussian 16:  ES64L-G16RevA.03 25-Dec-2016

 ------------------
 #p CCSD(T)/cc-pVTZ
 ------------------

 ------------
 H2O_H2O_1197
 ------------
 Symbolic Z-matrix:
 Charge =  0 Multiplicity = 1

                         Standard orientation:
 ---------------------------------------------------------------------
 Center     Atomic      Atomic             Coordinates (Angstroms)
 Number     Number       Type             X           Y           Z
 ---------------------------------------------------------------------
      1          8           0        0.056794   -1.374776    0.000000
      2          1           0       -0.744727   -1.943168    0.000000
      3          1           0        0.854406   -1.948641    0.000000
      4          8           0        0.056794    1.473705    0.000000
      5          1           0       -0.402116    2.342558    0.000000
      6          1           0       -0.616271    0.757821    0.000000
 ---------------------------------------------------------------------

 SCF Done:  E(RHF) =  -152.107731131     A.U. after   10 cycles
 E2 =    -0.5280255926D+00 EUMP2 =    -0.15263575672403D+03
 CCSD(T)
 CCSD(T)= -0.15266281817D+03

 The electronic state is 1-A'.
 Alpha  occ. eigenvalues --  -20.56457 -20.52927  -1.33854  -1.30267  -0.71243
 Alpha  occ. eigenvalues --   -0.68011  -0.56970  -0.53777  -0.50954  -0.47384
 Alpha virt. eigenvalues --    0.13084   0.17530   0.19584   0.25472   0.51929
 Alpha virt. eigenvalues --    0.56393   0.57186   0.59354   0.69854   0.74664
 Alpha virt. eigenvalues --    0.74675   0.78923   0.82299   0.83057   0.84078

 Mulliken charges:
               1
     1  O   -0.485660
     2  H    0.242200
     3  H    0.258559
     4  O   -0.511298
     5  H    0.231810
     6  H    0.264389
 Sum of Mulliken charges =  -0.00000

 Dipole moment (field-independent basis, Debye):
    X=             -1.8355    Y=             -1.9868    Z=              0.0000  Tot=              2.7049
 Quadrupole moment (field-independent basis, Debye-Ang):
   XX=             -9.8316   YY=             -3.9347   ZZ=            -14.7267
   XY=             -2.8471   XZ=              0.0000   YZ=              0.0000

 Normal termination of Gaussian 16 at Sat Aug 27 02:54:36 2022.
