 Gaussian 16, Revision A.03,
 Gaussian 16:  ES64L-G16RevA.03 25-Dec-2016

 ------------------
 #p CCSD(T)/cc-pVTZ
 ------------------

 ------------
 H2O_H2O_1898
 ------------
 Symbolic Z-matrix:
 Charge =  0 Multiplicity = 1

                         Standard orientation:
 ---------------------------------------------------------------------
 Center     Atomic      Atomic             Coordinates (Angstroms)
 Number     Number       Type             X           Y           Z
 ---------------------------------------------------------------------
      1          8           0        0.057137   -1.742982    0.000000
      2          1           0       -0.743991   -2.311928    0.000000
      3          1           0        0.855145   -2.316295    0.000000
      4          8           0        0.057137    1.849426    0.000000
      5          1           0       -0.458195    2.686049    0.000000
      6          1           0       -0.567142    1.090622    0.000000
 ---------------------------------------------------------------------

 SCF Done:  E(RHF) =  -152.109248672     A.U. after   10 cycles
 E2 =    -0.5264544474D+00 EUMP2 =    -0.15263570311919D+03
 CCSD(T)
 CCSD(T)= -0.15266283098D+03

 The electronic state is 1-A'.
 Alpha  occ. eigenvalues --  -20.56271 -20.53946  -1.33536  -1.31251  -0.70940
 Alpha  occ. eigenvalues --   -0.68623  -0.57020  -0.54730  -0.50660  -0.48385
 Alpha virt. eigenvalues --    0.12952   0.16547   0.19708   0.24136   0.53211
 Alpha virt. eigenvalues --    0.55638   0.56582   0.58231   0.66780   0.74505
 Alpha virt. eigenvalues --    0.77581   0.78286   0.79404   0.80743   0.84272

 Mulliken charges:
               1
     1  O   -0.500385
     2  H    0.248551
     3  H    0.258636
     4  O   -0.514811
     5  H    0.243733
     6  H    0.264276
 Sum of Mulliken charges =  -0.00000

 Dipole moment (field-independent basis, Debye):
    X=             -1.9137    Y=             -2.0052    Z=              0.0000  Tot=              2.7718
 Quadrupole moment (field-independent basis, Debye-Ang):
   XX=             -9.8517   YY=             -2.4870   ZZ=            -14.7205
   XY=             -3.6941   XZ=              0.0000   YZ=              0.0000

 Normal termination of Gaussian 16 at Sat Aug 27 07:25:47 2022.
