 Gaussian 16, Revision A.03,
 Gaussian 16:  ES64L-G16RevA.03 25-Dec-2016

 ------------------
 #p CCSD(T)/cc-pVTZ
 ------------------

 ------------
 H2O_H2O_3175
 ------------
 Symbolic Z-matrix:
 Charge =  0 Multiplicity = 1

                         Standard orientation:
 ---------------------------------------------------------------------
 Center     Atomic      Atomic             Coordinates (Angstroms)
 Number     Number       Type             X           Y           Z
 ---------------------------------------------------------------------
      1          8           0        0.000000   -0.000000    2.492180
      2          1           0        0.000000    0.799571    3.063312
      3          1           0       -0.000000   -0.799571    3.063312
      4          8           0        0.000000   -0.000000   -2.492180
      5          1           0       -0.000000   -0.799571   -3.063312
      6          1           0        0.000000    0.799571   -3.063312
 ---------------------------------------------------------------------

 SCF Done:  E(RHF) =  -152.106141540     A.U. after   10 cycles
 E2 =    -0.5260248260D+00 EUMP2 =    -0.15263216636571D+03
 CCSD(T)
 CCSD(T)= -0.15265941123D+03

 The electronic state is 1-AG.
 Alpha  occ. eigenvalues --  -20.54916 -20.54916  -1.32209  -1.32209  -0.69620
 Alpha  occ. eigenvalues --   -0.69618  -0.55609  -0.55580  -0.49313  -0.49310
 Alpha virt. eigenvalues --    0.14450   0.14856   0.20601   0.20728   0.54850
 Alpha virt. eigenvalues --    0.55060   0.57734   0.57795   0.67479   0.69891
 Alpha virt. eigenvalues --    0.79543   0.79585   0.80975   0.81067   0.82699

 Mulliken charges:
               1
     1  O   -0.501413
     2  H    0.250706
     3  H    0.250706
     4  O   -0.501413
     5  H    0.250706
     6  H    0.250706
 Sum of Mulliken charges =  -0.00000

 Dipole moment (field-independent basis, Debye):
    X=             -0.0000    Y=              0.0000    Z=              0.0000  Tot=              0.0000
 Quadrupole moment (field-independent basis, Debye-Ang):
   XX=            -14.7098   YY=             -7.8148   ZZ=              7.8717
   XY=              0.0000   XZ=              0.0000   YZ=             -0.0000

 2\MP4DQ=-152.641286\MP4SDQ=-152.6443527\CCSD=-152.6437619\CCSD(T)=-152
 Normal termination of Gaussian 16 at Fri Aug 26 20:07:21 2022.
