 Gaussian 16, Revision A.03,
 Gaussian 16:  ES64L-G16RevA.03 25-Dec-2016

 ------------------
 #p CCSD(T)/cc-pVTZ
 ------------------

 -----------
 H2O_H2O_267
 -----------
 Symbolic Z-matrix:
 Charge =  0 Multiplicity = 1

                         Standard orientation:
 ---------------------------------------------------------------------
 Center     Atomic      Atomic             Coordinates (Angstroms)
 Number     Number       Type             X           Y           Z
 ---------------------------------------------------------------------
      1          8           0        0.051373   -0.902216    0.000000
      2          1           0       -0.750886   -1.469566    0.000000
      3          1           0        0.848238   -1.477117    0.000000
      4          8           0        0.051373    0.965437    0.000000
      5          1           0       -0.102637    1.935894    0.000000
      6          1           0       -0.816685    0.505022    0.000000
 ---------------------------------------------------------------------

 SCF Done:  E(RHF) =  -152.024491495     A.U. after   11 cycles
 E2 =    -0.5397977139D+00 EUMP2 =    -0.15256428920910D+03
 CCSD(T)
 CCSD(T)= -0.15259057541D+03

 The electronic state is 1-A'.
 Alpha  occ. eigenvalues --  -20.54056 -20.50970  -1.35540  -1.27690  -0.72936
 Alpha  occ. eigenvalues --   -0.69418  -0.55701  -0.51785  -0.45696  -0.44540
 Alpha virt. eigenvalues --    0.13727   0.18788   0.19656   0.24578   0.51802
 Alpha virt. eigenvalues --    0.56413   0.60131   0.64816   0.72705   0.76265
 Alpha virt. eigenvalues --    0.80615   0.81655   0.84034   0.84076   0.88390

 Mulliken charges:
               1
     1  O   -0.387654
     2  H    0.185349
     3  H    0.219613
     4  O   -0.416393
     5  H    0.155373
     6  H    0.243712
 Sum of Mulliken charges =   0.00000

 Dipole moment (field-independent basis, Debye):
    X=             -1.4322    Y=             -1.3711    Z=              0.0000  Tot=              1.9827
 Quadrupole moment (field-independent basis, Debye-Ang):
   XX=             -9.5840   YY=             -6.9817   ZZ=            -14.6640
   XY=             -1.1584   XZ=              0.0000   YZ=              0.0000

 Normal termination of Gaussian 16 at Fri Aug 26 14:42:15 2022.
