 Gaussian 16, Revision A.03,
 Gaussian 16:  ES64L-G16RevA.03 25-Dec-2016

 ------------------
 #p CCSD(T)/cc-pVTZ
 ------------------

 ------------
 H2O_H2O_2329
 ------------
 Symbolic Z-matrix:
 Charge =  0 Multiplicity = 1

                         Standard orientation:
 ---------------------------------------------------------------------
 Center     Atomic      Atomic             Coordinates (Angstroms)
 Number     Number       Type             X           Y           Z
 ---------------------------------------------------------------------
      1          8           0        0.014783   -2.038015    0.000000
      2          1           0       -0.785144   -2.608648    0.000000
      3          1           0        0.813998   -2.609645    0.000000
      4          8           0        0.014783    2.041888    0.000000
      5          1           0        0.639763    2.800115    0.000000
      6          1           0       -0.905149    2.387189    0.000000
 ---------------------------------------------------------------------

 SCF Done:  E(RHF) =  -152.105317570     A.U. after   10 cycles
 E2 =    -0.5262485046D+00 EUMP2 =    -0.15263156607479D+03
 CCSD(T)
 CCSD(T)= -0.15265881360D+03

 The electronic state is 1-A'.
 Alpha  occ. eigenvalues --  -20.54647 -20.54592  -1.31932  -1.31875  -0.69349
 Alpha  occ. eigenvalues --   -0.69289  -0.55388  -0.55081  -0.49036  -0.48968
 Alpha virt. eigenvalues --    0.14195   0.15544   0.20608   0.21089   0.54384
 Alpha virt. eigenvalues --    0.55951   0.57872   0.58113   0.63031   0.74248
 Alpha virt. eigenvalues --    0.79550   0.80176   0.80850   0.81307   0.81997

 Mulliken charges:
               1
     1  O   -0.495552
     2  H    0.246684
     3  H    0.248911
     4  O   -0.495431
     5  H    0.246340
     6  H    0.249048
 Sum of Mulliken charges =  -0.00000

 Dipole moment (field-independent basis, Debye):
    X=             -0.5002    Y=             -0.0699    Z=              0.0000  Tot=              0.5051
 Quadrupole moment (field-independent basis, Debye-Ang):
   XX=             -7.9688   YY=              4.0430   ZZ=            -14.7096
   XY=             -0.6006   XZ=              0.0000   YZ=              0.0000

 Normal termination of Gaussian 16 at Sat Aug 27 09:54:17 2022.
