 Gaussian 16, Revision A.03,
 Gaussian 16:  ES64L-G16RevA.03 25-Dec-2016

 ------------------
 #p CCSD(T)/cc-pVTZ
 ------------------

 ------------
 H2O_H2O_2728
 ------------
 Symbolic Z-matrix:
 Charge =  0 Multiplicity = 1

                         Standard orientation:
 ---------------------------------------------------------------------
 Center     Atomic      Atomic             Coordinates (Angstroms)
 Number     Number       Type             X           Y           Z
 ---------------------------------------------------------------------
      1          8           0        0.011143   -2.251666    0.000000
      2          1           0       -0.788671   -2.822458    0.000000
      3          1           0        0.810471   -2.823138    0.000000
      4          8           0        0.011143    2.253851    0.000000
      5          1           0        0.684233    2.969711    0.000000
      6          1           0       -0.884315    2.658402    0.000000
 ---------------------------------------------------------------------

 SCF Done:  E(RHF) =  -152.105763406     A.U. after   10 cycles
 E2 =    -0.5261051748D+00 EUMP2 =    -0.15263186858077D+03
 CCSD(T)
 CCSD(T)= -0.15265911716D+03

 The electronic state is 1-A'.
 Alpha  occ. eigenvalues --  -20.54789 -20.54764  -1.32079  -1.32053  -0.69491
 Alpha  occ. eigenvalues --   -0.69465  -0.55486  -0.55373  -0.49180  -0.49152
 Alpha virt. eigenvalues --    0.14330   0.15176   0.20616   0.20888   0.54760
 Alpha virt. eigenvalues --    0.55414   0.57804   0.57941   0.65596   0.71951
 Alpha virt. eigenvalues --    0.79609   0.79803   0.81146   0.81184   0.82256

 Mulliken charges:
               1
     1  O   -0.499059
     2  H    0.248886
     3  H    0.250179
     4  O   -0.498991
     5  H    0.248691
     6  H    0.250295
 Sum of Mulliken charges =   0.00000

 Dipole moment (field-independent basis, Debye):
    X=             -0.3792    Y=             -0.0389    Z=              0.0000  Tot=              0.3812
 Quadrupole moment (field-independent basis, Debye-Ang):
   XX=             -7.9000   YY=              5.8300   ZZ=            -14.7096
   XY=             -0.5261   XZ=              0.0000   YZ=              0.0000

 Normal termination of Gaussian 16 at Fri Aug 26 15:31:56 2022.
