 Gaussian 16, Revision A.03,
 Gaussian 16:  ES64L-G16RevA.03 25-Dec-2016

 ------------------
 #p CCSD(T)/cc-pVTZ
 ------------------

 ------------
 H2O_H2O_1311
 ------------
 Symbolic Z-matrix:
 Charge =  0 Multiplicity = 1

                         Standard orientation:
 ---------------------------------------------------------------------
 Center     Atomic      Atomic             Coordinates (Angstroms)
 Number     Number       Type             X           Y           Z
 ---------------------------------------------------------------------
      1          8           0        0.037688   -1.479678    0.000000
      2          1           0       -0.763120   -2.049074    0.000000
      3          1           0        0.836018   -2.052544    0.000000
      4          8           0        0.037688    1.507861    0.000000
      5          1           0        0.264339    2.463965    0.000000
      6          1           0       -0.940246    1.412189    0.000000
 ---------------------------------------------------------------------

 SCF Done:  E(RHF) =  -152.103132296     A.U. after   10 cycles
 E2 =    -0.5274157802D+00 EUMP2 =    -0.15263054807628D+03
 CCSD(T)
 CCSD(T)= -0.15265779117D+03

 The electronic state is 1-A'.
 Alpha  occ. eigenvalues --  -20.54483 -20.53750  -1.31813  -1.31000  -0.69237
 Alpha  occ. eigenvalues --   -0.68424  -0.55779  -0.53480  -0.48954  -0.48044
 Alpha virt. eigenvalues --    0.14035   0.16763   0.20336   0.22391   0.53175
 Alpha virt. eigenvalues --    0.57750   0.58019   0.58837   0.66592   0.76376
 Alpha virt. eigenvalues --    0.77347   0.77747   0.80077   0.82577   0.85628

 Mulliken charges:
               1
     1  O   -0.479014
     2  H    0.234432
     3  H    0.246112
     4  O   -0.475610
     5  H    0.229180
     6  H    0.244899
 Sum of Mulliken charges =   0.00000

 Dipole moment (field-independent basis, Debye):
    X=             -1.2278    Y=             -0.5362    Z=              0.0000  Tot=              1.3398
 Quadrupole moment (field-independent basis, Debye-Ang):
   XX=             -8.7634   YY=             -1.0534   ZZ=            -14.7143
   XY=             -1.1367   XZ=              0.0000   YZ=              0.0000

 Normal termination of Gaussian 16 at Sat Aug 27 03:49:13 2022.
