 Gaussian 16, Revision A.03,
 Gaussian 16:  ES64L-G16RevA.03 25-Dec-2016

 ------------------
 #p CCSD(T)/cc-pVTZ
 ------------------

 -----------
 H2O_H2O_152
 -----------
 Symbolic Z-matrix:
 Charge =  0 Multiplicity = 1

                         Standard orientation:
 ---------------------------------------------------------------------
 Center     Atomic      Atomic             Coordinates (Angstroms)
 Number     Number       Type             X           Y           Z
 ---------------------------------------------------------------------
      1          8           0        0.007455   -0.882849    0.000000
      2          1           0       -0.792530   -1.453401    0.000000
      3          1           0        0.806611   -1.454562    0.000000
      4          8           0        0.007455    0.883816    0.000000
      5          1           0        0.726125    1.553904    0.000000
      6          1           0       -0.859488    1.346326    0.000000
 ---------------------------------------------------------------------

 SCF Done:  E(RHF) =  -151.985922376     A.U. after   11 cycles
 E2 =    -0.5433914960D+00 EUMP2 =    -0.15252931387247D+03
 CCSD(T)
 CCSD(T)= -0.15255504654D+03

 The electronic state is 1-A'.
 Alpha  occ. eigenvalues --  -20.51222 -20.51195  -1.34111  -1.27401  -0.69575
 Alpha  occ. eigenvalues --   -0.66098  -0.64748  -0.50870  -0.43659  -0.37404
 Alpha virt. eigenvalues --    0.14618   0.19193   0.20135   0.23020   0.50544
 Alpha virt. eigenvalues --    0.59045   0.59226   0.67171   0.68156   0.79177
 Alpha virt. eigenvalues --    0.80411   0.83932   0.84321   0.86333   0.87760

 Mulliken charges:
               1
     1  O   -0.385496
     2  H    0.189279
     3  H    0.196152
     4  O   -0.382040
     5  H    0.178098
     6  H    0.204008
 Sum of Mulliken charges =  -0.00000

 Dipole moment (field-independent basis, Debye):
    X=             -0.2129    Y=             -0.0243    Z=              0.0000  Tot=              0.2143
 Quadrupole moment (field-independent basis, Debye-Ang):
   XX=             -8.3746   YY=             -7.6580   ZZ=            -14.7610
   XY=             -0.0823   XZ=              0.0000   YZ=              0.0000

 Normal termination of Gaussian 16 at Fri Aug 26 13:23:30 2022.
