 Gaussian 16, Revision A.03,
 Gaussian 16:  ES64L-G16RevA.03 25-Dec-2016

 ------------------
 #p CCSD(T)/cc-pVTZ
 ------------------

 ------------
 H2O_H2O_3918
 ------------
 Symbolic Z-matrix:
 Charge =  0 Multiplicity = 1

                         Standard orientation:
 ---------------------------------------------------------------------
 Center     Atomic      Atomic             Coordinates (Angstroms)
 Number     Number       Type             X           Y           Z
 ---------------------------------------------------------------------
      1          8           0        0.052821   -2.839556    0.000000
      2          1           0       -0.747651   -3.409424    0.000000
      3          1           0        0.851489   -3.411951    0.000000
      4          8           0        0.052821    2.909903    0.000000
      5          1           0       -0.167340    3.867522    0.000000
      6          1           0       -0.781640    2.391076    0.000000
 ---------------------------------------------------------------------

 SCF Done:  E(RHF) =  -152.107340608     A.U. after   10 cycles
 E2 =    -0.5258979806D+00 EUMP2 =    -0.15263323858853D+03
 CCSD(T)
 CCSD(T)= -0.15266045920D+03

 The electronic state is 1-A'.
 Alpha  occ. eigenvalues --  -20.55549 -20.55051  -1.32848  -1.32347  -0.70254
 Alpha  occ. eigenvalues --   -0.69745  -0.56292  -0.55789  -0.49959  -0.49460
 Alpha virt. eigenvalues --    0.14055   0.14667   0.20181   0.20742   0.54300
 Alpha virt. eigenvalues --    0.54831   0.57219   0.57715   0.67754   0.68571
 Alpha virt. eigenvalues --    0.78922   0.79411   0.80350   0.80832   0.82379

 Mulliken charges:
               1
     1  O   -0.508509
     2  H    0.252725
     3  H    0.255793
     4  O   -0.508138
     5  H    0.251286
     6  H    0.256842
 Sum of Mulliken charges =  -0.00000

 Dipole moment (field-independent basis, Debye):
    X=             -1.8126    Y=             -1.2341    Z=              0.0000  Tot=              2.1928
 Quadrupole moment (field-independent basis, Debye-Ang):
   XX=             -9.5591   YY=              5.5404   ZZ=            -14.7120
   XY=             -4.7374   XZ=              0.0000   YZ=              0.0000

 Normal termination of Gaussian 16 at Sat Aug 27 04:17:41 2022.
