 Gaussian 16, Revision A.03,
 Gaussian 16:  ES64L-G16RevA.03 25-Dec-2016

 ------------------
 #p CCSD(T)/cc-pVTZ
 ------------------

 ------------
 H2O_H2O_2000
 ------------
 Symbolic Z-matrix:
 Charge =  0 Multiplicity = 1

                         Standard orientation:
 ---------------------------------------------------------------------
 Center     Atomic      Atomic             Coordinates (Angstroms)
 Number     Number       Type             X           Y           Z
 ---------------------------------------------------------------------
      1          8           0        0.000000   -0.000000    1.867272
      2          1           0        0.000000    0.799571    2.438404
      3          1           0       -0.000000   -0.799571    2.438404
      4          8           0        0.000000   -0.000000   -1.867272
      5          1           0       -0.000000   -0.799571   -2.438404
      6          1           0        0.000000    0.799571   -2.438404
 ---------------------------------------------------------------------

 SCF Done:  E(RHF) =  -152.104593341     A.U. after   10 cycles
 E2 =    -0.5264629885D+00 EUMP2 =    -0.15263105632926D+03
 CCSD(T)
 CCSD(T)= -0.15265830801D+03

 The electronic state is 1-AG.
 Alpha  occ. eigenvalues --  -20.54422 -20.54422  -1.31717  -1.31687  -0.69138
 Alpha  occ. eigenvalues --   -0.69109  -0.55309  -0.54658  -0.48842  -0.48751
 Alpha virt. eigenvalues --    0.14216   0.15865   0.20629   0.21262   0.53940
 Alpha virt. eigenvalues --    0.56933   0.57945   0.58291   0.61075   0.75490
 Alpha virt. eigenvalues --    0.79334   0.80284   0.80696   0.80745   0.82818

 Mulliken charges:
               1
     1  O   -0.489708
     2  H    0.244854
     3  H    0.244854
     4  O   -0.489708
     5  H    0.244854
     6  H    0.244854
 Sum of Mulliken charges =  -0.00000

 Dipole moment (field-independent basis, Debye):
    X=             -0.0000    Y=              0.0000    Z=              0.0000  Tot=              0.0000
 Quadrupole moment (field-independent basis, Debye-Ang):
   XX=            -14.7090   YY=             -7.8465   ZZ=              2.7526
   XY=              0.0000   XZ=              0.0000   YZ=             -0.0000

 \MP4DQ=-152.6401037\MP4SDQ=-152.6431984\CCSD=-152.6425947\CCSD(T)=-152
 Normal termination of Gaussian 16 at Sat Aug 27 08:01:31 2022.
