 Gaussian 16, Revision A.03,
 Gaussian 16:  ES64L-G16RevA.03 25-Dec-2016

 ------------------
 #p CCSD(T)/cc-pVTZ
 ------------------

 ------------
 H2O_H2O_3314
 ------------
 Symbolic Z-matrix:
 Charge =  0 Multiplicity = 1

                         Standard orientation:
 ---------------------------------------------------------------------
 Center     Atomic      Atomic             Coordinates (Angstroms)
 Number     Number       Type             X           Y           Z
 ---------------------------------------------------------------------
      1          8           0        0.045345   -2.534463    0.000000
      2          1           0       -0.755096   -3.104374    0.000000
      3          1           0        0.844044   -3.106814    0.000000
      4          8           0        0.045345    2.579014    0.000000
      5          1           0        0.080482    3.560987    0.000000
      6          1           0       -0.894949    2.293788    0.000000
 ---------------------------------------------------------------------

 SCF Done:  E(RHF) =  -152.106897661     A.U. after   10 cycles
 E2 =    -0.5259608075D+00 EUMP2 =    -0.15263285846887D+03
 CCSD(T)
 CCSD(T)= -0.15266008672D+03

 The electronic state is 1-A'.
 Alpha  occ. eigenvalues --  -20.55319 -20.54916  -1.32615  -1.32209  -0.70023
 Alpha  occ. eigenvalues --   -0.69607  -0.56037  -0.55632  -0.49722  -0.49319
 Alpha virt. eigenvalues --    0.14105   0.14887   0.20316   0.20854   0.54486
 Alpha virt. eigenvalues --    0.54970   0.57415   0.57805   0.67484   0.69450
 Alpha virt. eigenvalues --    0.79157   0.79552   0.80554   0.80996   0.82711

 Mulliken charges:
               1
     1  O   -0.505860
     2  H    0.251077
     3  H    0.254821
     4  O   -0.505439
     5  H    0.249747
     6  H    0.255656
 Sum of Mulliken charges =  -0.00000

 Dipole moment (field-independent basis, Debye):
    X=             -1.5512    Y=             -0.7862    Z=              0.0000  Tot=              1.7391
 Quadrupole moment (field-independent basis, Debye-Ang):
   XX=             -9.0987   YY=              5.6486   ZZ=            -14.7113
   XY=             -3.2092   XZ=              0.0000   YZ=              0.0000

 Normal termination of Gaussian 16 at Fri Aug 26 21:17:43 2022.
