 Gaussian 16, Revision A.03,
 Gaussian 16:  ES64L-G16RevA.03 25-Dec-2016

 ------------------
 #p CCSD(T)/cc-pVTZ
 ------------------

 ------------
 H2O_H2O_1794
 ------------
 Symbolic Z-matrix:
 Charge =  0 Multiplicity = 1

                         Standard orientation:
 ---------------------------------------------------------------------
 Center     Atomic      Atomic             Coordinates (Angstroms)
 Number     Number       Type             X           Y           Z
 ---------------------------------------------------------------------
      1          8           0        0.054185   -1.705668    0.000000
      2          1           0       -0.746907   -2.274664    0.000000
      3          1           0        0.852229   -2.278932    0.000000
      4          8           0        0.054185    1.782889    0.000000
      5          1           0       -0.227112    2.724365    0.000000
      6          1           0       -0.745178    1.211467    0.000000
 ---------------------------------------------------------------------

 SCF Done:  E(RHF) =  -152.107658281     A.U. after   10 cycles
 E2 =    -0.5265762413D+00 EUMP2 =    -0.15263423452197D+03
 CCSD(T)
 CCSD(T)= -0.15266139519D+03

 The electronic state is 1-A'.
 Alpha  occ. eigenvalues --  -20.55723 -20.54007  -1.32995  -1.31286  -0.70409
 Alpha  occ. eigenvalues --   -0.68658  -0.56412  -0.54710  -0.50111  -0.48411
 Alpha virt. eigenvalues --    0.13308   0.16482   0.19930   0.23167   0.53968
 Alpha virt. eigenvalues --    0.54666   0.57086   0.58446   0.65375   0.75822
 Alpha virt. eigenvalues --    0.77962   0.78300   0.78704   0.80979   0.84694

 Mulliken charges:
               1
     1  O   -0.495798
     2  H    0.244698
     3  H    0.255771
     4  O   -0.504933
     5  H    0.240691
     6  H    0.259572
 Sum of Mulliken charges =  -0.00000

 Dipole moment (field-independent basis, Debye):
    X=             -1.8061    Y=             -1.4512    Z=              0.0000  Tot=              2.3169
 Quadrupole moment (field-independent basis, Debye-Ang):
   XX=             -9.6551   YY=             -1.1474   ZZ=            -14.7175
   XY=             -2.9130   XZ=              0.0000   YZ=              0.0000

 Normal termination of Gaussian 16 at Sat Aug 27 06:49:32 2022.
