 Gaussian 16, Revision A.03,
 Gaussian 16:  ES64L-G16RevA.03 25-Dec-2016

 ------------------
 #p CCSD(T)/cc-pVTZ
 ------------------

 ------------
 H2O_H2O_3516
 ------------
 Symbolic Z-matrix:
 Charge =  0 Multiplicity = 1

                         Standard orientation:
 ---------------------------------------------------------------------
 Center     Atomic      Atomic             Coordinates (Angstroms)
 Number     Number       Type             X           Y           Z
 ---------------------------------------------------------------------
      1          8           0        0.049507   -2.634094    0.000000
      2          1           0       -0.750976   -3.203947    0.000000
      3          1           0        0.848164   -3.206504    0.000000
      4          8           0        0.049507    2.691049    0.000000
      5          1           0       -0.043758    3.669214    0.000000
      6          1           0       -0.845542    2.285597    0.000000
 ---------------------------------------------------------------------

 SCF Done:  E(RHF) =  -152.107130041     A.U. after   10 cycles
 E2 =    -0.5259313367D+00 EUMP2 =    -0.15263306137791D+03
 CCSD(T)
 CCSD(T)= -0.15266028532D+03

 The electronic state is 1-A'.
 Alpha  occ. eigenvalues --  -20.55437 -20.54962  -1.32734  -1.32257  -0.70141
 Alpha  occ. eigenvalues --   -0.69653  -0.56168  -0.55690  -0.49843  -0.49368
 Alpha virt. eigenvalues --    0.14060   0.14810   0.20246   0.20828   0.54393
 Alpha virt. eigenvalues --    0.54918   0.57316   0.57777   0.67613   0.69033
 Alpha virt. eigenvalues --    0.79038   0.79502   0.80450   0.80887   0.82598

 Mulliken charges:
               1
     1  O   -0.507245
     2  H    0.251824
     3  H    0.255451
     4  O   -0.506826
     5  H    0.250345
     6  H    0.256452
 Sum of Mulliken charges =  -0.00000

 Dipole moment (field-independent basis, Debye):
    X=             -1.6957    Y=             -1.0030    Z=              0.0000  Tot=              1.9702
 Quadrupole moment (field-independent basis, Debye-Ang):
   XX=             -9.3457   YY=              5.4128   ZZ=            -14.7117
   XY=             -3.8745   XZ=              0.0000   YZ=              0.0000

 497387\MP4DQ=-152.6421815\MP4SDQ=-152.64524\CCSD=-152.6446517\CCSD(T)=
 Normal termination of Gaussian 16 at Fri Aug 26 22:58:11 2022.
