 Gaussian 16, Revision A.03,
 Gaussian 16:  ES64L-G16RevA.03 25-Dec-2016

 ------------------
 #p CCSD(T)/cc-pVTZ
 ------------------

 ------------
 H2O_H2O_1378
 ------------
 Symbolic Z-matrix:
 Charge =  0 Multiplicity = 1

                         Standard orientation:
 ---------------------------------------------------------------------
 Center     Atomic      Atomic             Coordinates (Angstroms)
 Number     Number       Type             X           Y           Z
 ---------------------------------------------------------------------
      1          8           0        0.011143   -1.533689    0.000000
      2          1           0       -0.788785   -2.104322    0.000000
      3          1           0        0.810357   -2.105321    0.000000
      4          8           0        0.011143    1.535870    0.000000
      5          1           0        0.684375    2.251596    0.000000
      6          1           0       -0.884234    1.940599    0.000000
 ---------------------------------------------------------------------

 SCF Done:  E(RHF) =  -152.101899307     A.U. after   10 cycles
 E2 =    -0.5272631674D+00 EUMP2 =    -0.15262916247437D+03
 CCSD(T)
 CCSD(T)= -0.15265645187D+03

 The electronic state is 1-A'.
 Alpha  occ. eigenvalues --  -20.53944 -20.53893  -1.31318  -1.31119  -0.68731
 Alpha  occ. eigenvalues --   -0.68573  -0.55561  -0.53196  -0.48508  -0.48090
 Alpha virt. eigenvalues --    0.14352   0.16631   0.20560   0.21813   0.51947
 Alpha virt. eigenvalues --    0.58280   0.58613   0.59498   0.65128   0.76320
 Alpha virt. eigenvalues --    0.77937   0.78125   0.79317   0.82511   0.86062

 Mulliken charges:
               1
     1  O   -0.474405
     2  H    0.235444
     3  H    0.239017
     4  O   -0.473747
     5  H    0.235242
     6  H    0.238449
 Sum of Mulliken charges =  -0.00000

 Dipole moment (field-independent basis, Debye):
    X=             -0.3658    Y=             -0.0411    Z=              0.0000  Tot=              0.3681
 Quadrupole moment (field-independent basis, Debye-Ang):
   XX=             -7.9680   YY=             -0.1629   ZZ=            -14.7100
   XY=             -0.2618   XZ=              0.0000   YZ=              0.0000

 Normal termination of Gaussian 16 at Sat Aug 27 04:21:46 2022.
