 Gaussian 16, Revision A.03,
 Gaussian 16:  ES64L-G16RevA.03 25-Dec-2016

 ------------------
 #p CCSD(T)/cc-pVTZ
 ------------------

 -----------
 H2O_H2O_982
 -----------
 Symbolic Z-matrix:
 Charge =  0 Multiplicity = 1

                         Standard orientation:
 ---------------------------------------------------------------------
 Center     Atomic      Atomic             Coordinates (Angstroms)
 Number     Number       Type             X           Y           Z
 ---------------------------------------------------------------------
      1          8           0        0.025270   -1.315786    0.000000
      2          1           0       -0.775239   -1.885602    0.000000
      3          1           0        0.823900   -1.888233    0.000000
      4          8           0        0.025270    1.327483    0.000000
      5          1           0        0.491202    2.192591    0.000000
      6          1           0       -0.944187    1.487669    0.000000
 ---------------------------------------------------------------------

 SCF Done:  E(RHF) =  -152.097358498     A.U. after   11 cycles
 E2 =    -0.5284869816D+00 EUMP2 =    -0.15262584547916D+03
 CCSD(T)
 CCSD(T)= -0.15265313535D+03

 The electronic state is 1-A'.
 Alpha  occ. eigenvalues --  -20.53656 -20.53322  -1.31250  -1.30517  -0.68614
 Alpha  occ. eigenvalues --   -0.68037  -0.56388  -0.51482  -0.48502  -0.47380
 Alpha virt. eigenvalues --    0.14339   0.17188   0.20489   0.22410   0.51733
 Alpha virt. eigenvalues --    0.58505   0.58759   0.61337   0.70698   0.76671
 Alpha virt. eigenvalues --    0.76697   0.78491   0.82343   0.83582   0.86162

 Mulliken charges:
               1
     1  O   -0.468370
     2  H    0.228584
     3  H    0.239079
     4  O   -0.459185
     5  H    0.223173
     6  H    0.236719
 Sum of Mulliken charges =  -0.00000

 Dipole moment (field-independent basis, Debye):
    X=             -0.8030    Y=             -0.2248    Z=              0.0000  Tot=              0.8339
 Quadrupole moment (field-independent basis, Debye-Ang):
   XX=             -8.3358   YY=             -2.2452   ZZ=            -14.7190
   XY=             -0.4973   XZ=              0.0000   YZ=              0.0000

 Normal termination of Gaussian 16 at Fri Aug 26 21:44:22 2022.
