 Gaussian 16, Revision A.03,
 Gaussian 16:  ES64L-G16RevA.03 25-Dec-2016

 ------------------
 #p CCSD(T)/cc-pVTZ
 ------------------

 ------------
 H2O_H2O_1818
 ------------
 Symbolic Z-matrix:
 Charge =  0 Multiplicity = 1

                         Standard orientation:
 ---------------------------------------------------------------------
 Center     Atomic      Atomic             Coordinates (Angstroms)
 Number     Number       Type             X           Y           Z
 ---------------------------------------------------------------------
      1          8           0        0.052857   -1.722755    0.000000
      2          1           0       -0.748188   -2.291819    0.000000
      3          1           0        0.850949   -2.295951    0.000000
      4          8           0        0.052857    1.792996    0.000000
      5          1           0       -0.166343    2.750835    0.000000
      6          1           0       -0.782125    1.275007    0.000000
 ---------------------------------------------------------------------

 SCF Done:  E(RHF) =  -152.107291601     A.U. after   10 cycles
 E2 =    -0.5265537333D+00 EUMP2 =    -0.15263384533471D+03
 CCSD(T)
 CCSD(T)= -0.15266101633D+03

 The electronic state is 1-A'.
 Alpha  occ. eigenvalues --  -20.55581 -20.54066  -1.32855  -1.31341  -0.70270
 Alpha  occ. eigenvalues --   -0.68714  -0.56266  -0.54743  -0.49968  -0.48463
 Alpha virt. eigenvalues --    0.13383   0.16409   0.19995   0.22875   0.54155
 Alpha virt. eigenvalues --    0.54420   0.57212   0.58511   0.65013   0.76037
 Alpha virt. eigenvalues --    0.78161   0.78545   0.78808   0.80938   0.84804

 Mulliken charges:
               1
     1  O   -0.495521
     2  H    0.244312
     3  H    0.255082
     4  O   -0.502844
     5  H    0.240572
     6  H    0.258399
 Sum of Mulliken charges =  -0.00000

 Dipole moment (field-independent basis, Debye):
    X=             -1.7631    Y=             -1.3150    Z=              0.0000  Tot=              2.1995
 Quadrupole moment (field-independent basis, Debye-Ang):
   XX=             -9.5685   YY=             -0.7323   ZZ=            -14.7164
   XY=             -2.7492   XZ=              0.0000   YZ=              0.0000

 Normal termination of Gaussian 16 at Sat Aug 27 06:57:40 2022.
