 Gaussian 16, Revision A.03,
 Gaussian 16:  ES64L-G16RevA.03 25-Dec-2016

 ------------------
 #p CCSD(T)/cc-pVTZ
 ------------------

 ------------
 H2O_H2O_2972
 ------------
 Symbolic Z-matrix:
 Charge =  0 Multiplicity = 1

                         Standard orientation:
 ---------------------------------------------------------------------
 Center     Atomic      Atomic             Coordinates (Angstroms)
 Number     Number       Type             X           Y           Z
 ---------------------------------------------------------------------
      1          8           0        0.056727   -2.318705    0.000000
      2          1           0       -0.744018   -2.888190    0.000000
      3          1           0        0.855120   -2.891481    0.000000
      4          8           0        0.056727    2.417788    0.000000
      5          1           0       -0.403368    3.286016    0.000000
      6          1           0       -0.615361    1.700987    0.000000
 ---------------------------------------------------------------------

 SCF Done:  E(RHF) =  -152.107938749     A.U. after   10 cycles
 E2 =    -0.5259496475D+00 EUMP2 =    -0.15263388839647D+03
 CCSD(T)
 CCSD(T)= -0.15266108444D+03

 The electronic state is 1-A'.
 Alpha  occ. eigenvalues --  -20.55821 -20.54720  -1.33113  -1.32019  -0.70519
 Alpha  occ. eigenvalues --   -0.69403  -0.56577  -0.55474  -0.50228  -0.49138
 Alpha virt. eigenvalues --    0.13339   0.15343   0.19959   0.21464   0.53980
 Alpha virt. eigenvalues --    0.54856   0.57022   0.57977   0.66668   0.70523
 Alpha virt. eigenvalues --    0.78663   0.79677   0.79718   0.80455   0.82787

 Mulliken charges:
               1
     1  O   -0.510087
     2  H    0.252676
     3  H    0.258099
     4  O   -0.510594
     5  H    0.249489
     6  H    0.260417
 Sum of Mulliken charges =  -0.00000

 Dipole moment (field-independent basis, Debye):
    X=             -1.9360    Y=             -1.7697    Z=              0.0000  Tot=              2.6230
 Quadrupole moment (field-independent basis, Debye-Ang):
   XX=             -9.8260   YY=              0.5815   ZZ=            -14.7143
   XY=             -4.6244   XZ=              0.0000   YZ=              0.0000

 Normal termination of Gaussian 16 at Fri Aug 26 17:56:35 2022.
