 Gaussian 16, Revision A.03,
 Gaussian 16:  ES64L-G16RevA.03 25-Dec-2016

 ------------------
 #p CCSD(T)/cc-pVTZ
 ------------------

 ------------
 H2O_H2O_2799
 ------------
 Symbolic Z-matrix:
 Charge =  0 Multiplicity = 1

                         Standard orientation:
 ---------------------------------------------------------------------
 Center     Atomic      Atomic             Coordinates (Angstroms)
 Number     Number       Type             X           Y           Z
 ---------------------------------------------------------------------
      1          8           0        0.057237   -2.217544    0.000000
      2          1           0       -0.743567   -2.786947    0.000000
      3          1           0        0.855571   -2.790403    0.000000
      4          8           0        0.057237    2.331523    0.000000
      5          1           0       -0.512166    3.132327    0.000000
      6          1           0       -0.515622    1.533188    0.000000
 ---------------------------------------------------------------------

 SCF Done:  E(RHF) =  -152.108418138     A.U. after   10 cycles
 E2 =    -0.5259726046D+00 EUMP2 =    -0.15263439074302D+03
 CCSD(T)
 CCSD(T)= -0.15266156963D+03

 The electronic state is 1-A'.
 Alpha  occ. eigenvalues --  -20.56014 -20.54608  -1.33300  -1.31911  -0.70705
 Alpha  occ. eigenvalues --   -0.69291  -0.56781  -0.55377  -0.50419  -0.49035
 Alpha virt. eigenvalues --    0.13074   0.15560   0.19849   0.21881   0.53866
 Alpha virt. eigenvalues --    0.54864   0.56879   0.58183   0.66666   0.70901
 Alpha virt. eigenvalues --    0.78476   0.79400   0.79816   0.80260   0.82750

 Mulliken charges:
               1
     1  O   -0.510586
     2  H    0.253111
     3  H    0.258897
     4  O   -0.512648
     5  H    0.249312
     6  H    0.261914
 Sum of Mulliken charges =   0.00000

 Dipole moment (field-independent basis, Debye):
    X=             -1.9502    Y=             -2.0498    Z=              0.0000  Tot=              2.8293
 Quadrupole moment (field-independent basis, Debye-Ang):
   XX=             -9.8618   YY=             -1.0059   ZZ=            -14.7158
   XY=             -4.7510   XZ=              0.0000   YZ=              0.0000

 Normal termination of Gaussian 16 at Fri Aug 26 16:17:27 2022.
