 Gaussian 16, Revision A.03,
 Gaussian 16:  ES64L-G16RevA.03 25-Dec-2016

 ------------------
 #p CCSD(T)/cc-pVTZ
 ------------------

 ------------
 H2O_H2O_4853
 ------------
 Symbolic Z-matrix:
 Charge =  0 Multiplicity = 1

                         Standard orientation:
 ---------------------------------------------------------------------
 Center     Atomic      Atomic             Coordinates (Angstroms)
 Number     Number       Type             X           Y           Z
 ---------------------------------------------------------------------
      1          8           0        0.011143   -3.381817    0.000000
      2          1           0       -0.788590   -3.952722    0.000000
      3          1           0        0.810552   -3.953175    0.000000
      4          8           0        0.011143    3.384005    0.000000
      5          1           0        0.684131    4.099961    0.000000
      6          1           0       -0.884373    3.788428    0.000000
 ---------------------------------------------------------------------

 SCF Done:  E(RHF) =  -152.106952088     A.U. after   10 cycles
 E2 =    -0.5259142619D+00 EUMP2 =    -0.15263286634951D+03
 CCSD(T)
 CCSD(T)= -0.15266009648D+03

 The electronic state is 1-A'.
 Alpha  occ. eigenvalues --  -20.55257 -20.55246  -1.32553  -1.32542  -0.69960
 Alpha  occ. eigenvalues --   -0.69949  -0.55980  -0.55969  -0.49662  -0.49651
 Alpha virt. eigenvalues --    0.14381   0.14395   0.20433   0.20445   0.54608
 Alpha virt. eigenvalues --    0.54620   0.57485   0.57496   0.68242   0.68259
 Alpha virt. eigenvalues --    0.79218   0.79229   0.80659   0.80671   0.82585

 Mulliken charges:
               1
     1  O   -0.506172
     2  H    0.252878
     3  H    0.253294
     4  O   -0.506163
     5  H    0.252784
     6  H    0.253379
 Sum of Mulliken charges =  -0.00000

 Dipole moment (field-independent basis, Debye):
    X=             -0.3832    Y=             -0.0381    Z=              0.0000  Tot=              0.3851
 Quadrupole moment (field-independent basis, Debye-Ang):
   XX=             -7.8791   YY=             14.8433   ZZ=            -14.7109
   XY=             -0.9529   XZ=              0.0000   YZ=              0.0000

 Normal termination of Gaussian 16 at Sat Aug 27 09:42:24 2022.
