 Gaussian 16, Revision A.03,
 Gaussian 16:  ES64L-G16RevA.03 25-Dec-2016

 ------------------
 #p CCSD(T)/cc-pVTZ
 ------------------

 ------------
 H2O_H2O_1971
 ------------
 Symbolic Z-matrix:
 Charge =  0 Multiplicity = 1

                         Standard orientation:
 ---------------------------------------------------------------------
 Center     Atomic      Atomic             Coordinates (Angstroms)
 Number     Number       Type             X           Y           Z
 ---------------------------------------------------------------------
      1          8           0        0.056136   -1.790905    0.000000
      2          1           0       -0.744931   -2.359936    0.000000
      3          1           0        0.854205   -2.364134    0.000000
      4          8           0        0.056136    1.882553    0.000000
      5          1           0       -0.345680    2.779241    0.000000
      6          1           0       -0.661775    1.211649    0.000000
 ---------------------------------------------------------------------

 SCF Done:  E(RHF) =  -152.108384348     A.U. after   10 cycles
 E2 =    -0.5263875000D+00 EUMP2 =    -0.15263477184809D+03
 CCSD(T)
 CCSD(T)= -0.15266192377D+03

 The electronic state is 1-A'.
 Alpha  occ. eigenvalues --  -20.55961 -20.54099  -1.33230  -1.31391  -0.70639
 Alpha  occ. eigenvalues --   -0.68758  -0.56680  -0.54849  -0.50349  -0.48519
 Alpha virt. eigenvalues --    0.13113   0.16359   0.19846   0.23319   0.53733
 Alpha virt. eigenvalues --    0.54966   0.56891   0.58479   0.65832   0.74861
 Alpha virt. eigenvalues --    0.78086   0.79004   0.79174   0.80606   0.84505

 Mulliken charges:
               1
     1  O   -0.500385
     2  H    0.247620
     3  H    0.257456
     4  O   -0.510431
     5  H    0.243583
     6  H    0.262158
 Sum of Mulliken charges =  -0.00000

 Dipole moment (field-independent basis, Debye):
    X=             -1.8829    Y=             -1.7101    Z=              0.0000  Tot=              2.5436
 Quadrupole moment (field-independent basis, Debye-Ang):
   XX=             -9.7838   YY=             -1.4232   ZZ=            -14.7180
   XY=             -3.4450   XZ=              0.0000   YZ=              0.0000

 Normal termination of Gaussian 16 at Sat Aug 27 07:51:09 2022.
