 Gaussian 16, Revision A.03,
 Gaussian 16:  ES64L-G16RevA.03 25-Dec-2016

 ------------------
 #p CCSD(T)/cc-pVTZ
 ------------------

 -----------
 H2O_H2O_671
 -----------
 Symbolic Z-matrix:
 Charge =  0 Multiplicity = 1

                         Standard orientation:
 ---------------------------------------------------------------------
 Center     Atomic      Atomic             Coordinates (Angstroms)
 Number     Number       Type             X           Y           Z
 ---------------------------------------------------------------------
      1          8           0        0.056209   -1.099610    0.000000
      2          1           0       -0.745760   -1.667371    0.000000
      3          1           0        0.853368   -1.674104    0.000000
      4          8           0        0.056209    1.191080    0.000000
      5          1           0       -0.344186    2.088404    0.000000
      6          1           0       -0.662764    0.521316    0.000000
 ---------------------------------------------------------------------

 SCF Done:  E(RHF) =  -152.089225022     A.U. after   11 cycles
 E2 =    -0.5321298394D+00 EUMP2 =    -0.15262135486151D+03
 CCSD(T)
 CCSD(T)= -0.15264818170D+03

 The electronic state is 1-A'.
 Alpha  occ. eigenvalues --  -20.56168 -20.51464  -1.34544  -1.28940  -0.71912
 Alpha  occ. eigenvalues --   -0.68767  -0.55000  -0.52401  -0.51423  -0.45945
 Alpha virt. eigenvalues --    0.13196   0.18419   0.19449   0.25895   0.50788
 Alpha virt. eigenvalues --    0.56079   0.60943   0.62677   0.71778   0.73958
 Alpha virt. eigenvalues --    0.77491   0.82490   0.83774   0.84290   0.87204

 Mulliken charges:
               1
     1  O   -0.439889
     2  H    0.222419
     3  H    0.245523
     4  O   -0.493856
     5  H    0.206527
     6  H    0.259276
 Sum of Mulliken charges =  -0.00000

 Dipole moment (field-independent basis, Debye):
    X=             -1.7124    Y=             -1.9726    Z=              0.0000  Tot=              2.6122
 Quadrupole moment (field-independent basis, Debye-Ang):
   XX=             -9.8020   YY=             -5.4659   ZZ=            -14.7043
   XY=             -2.1693   XZ=              0.0000   YZ=              0.0000

 Normal termination of Gaussian 16 at Fri Aug 26 18:53:41 2022.
