 Gaussian 16, Revision A.03,
 Gaussian 16:  ES64L-G16RevA.03 25-Dec-2016

 ------------------
 #p CCSD(T)/cc-pVTZ
 ------------------

 -----------
 H2O_H2O_809
 -----------
 Symbolic Z-matrix:
 Charge =  0 Multiplicity = 1

                         Standard orientation:
 ---------------------------------------------------------------------
 Center     Atomic      Atomic             Coordinates (Angstroms)
 Number     Number       Type             X           Y           Z
 ---------------------------------------------------------------------
      1          8           0        0.031752   -1.218688    0.000000
      2          1           0       -0.769087   -1.788040    0.000000
      3          1           0        0.830051   -1.791597    0.000000
      4          8           0        0.031752    1.237797    0.000000
      5          1           0        0.381310    2.156119    0.000000
      6          1           0       -0.950301    1.270642    0.000000
 ---------------------------------------------------------------------

 SCF Done:  E(RHF) =  -152.093075680     A.U. after   11 cycles
 E2 =    -0.5294782927D+00 EUMP2 =    -0.15262255397316D+03
 CCSD(T)
 CCSD(T)= -0.15264980037D+03

 The electronic state is 1-A'.
 Alpha  occ. eigenvalues --  -20.53583 -20.52985  -1.31424  -1.30142  -0.68735
 Alpha  occ. eigenvalues --   -0.67779  -0.56975  -0.50469  -0.48690  -0.46948
 Alpha virt. eigenvalues --    0.14306   0.17422   0.20413   0.22789   0.52265
 Alpha virt. eigenvalues --    0.58425   0.58525   0.61911   0.70648   0.76288
 Alpha virt. eigenvalues --    0.77064   0.79649   0.83731   0.86096   0.86560

 Mulliken charges:
               1
     1  O   -0.465894
     2  H    0.225234
     3  H    0.239656
     4  O   -0.450218
     5  H    0.213148
     6  H    0.238075
 Sum of Mulliken charges =  -0.00000

 Dipole moment (field-independent basis, Debye):
    X=             -0.9881    Y=             -0.3725    Z=              0.0000  Tot=              1.0560
 Quadrupole moment (field-independent basis, Debye-Ang):
   XX=             -8.5882   YY=             -3.2176   ZZ=            -14.7254
   XY=             -0.6055   XZ=              0.0000   YZ=              0.0000

 Normal termination of Gaussian 16 at Fri Aug 26 20:13:10 2022.
