 Gaussian 16, Revision A.03,
 Gaussian 16:  ES64L-G16RevA.03 25-Dec-2016

 ------------------
 #p CCSD(T)/cc-pVTZ
 ------------------

 ------------
 H2O_H2O_2958
 ------------
 Symbolic Z-matrix:
 Charge =  0 Multiplicity = 1

                         Standard orientation:
 ---------------------------------------------------------------------
 Center     Atomic      Atomic             Coordinates (Angstroms)
 Number     Number       Type             X           Y           Z
 ---------------------------------------------------------------------
      1          8           0        0.028564   -2.364237    0.000000
      2          1           0       -0.771598   -2.934540    0.000000
      3          1           0        0.827543   -2.936197    0.000000
      4          8           0        0.028564    2.379481    0.000000
      5          1           0        0.436375    3.273460    0.000000
      6          1           0       -0.949352    2.475324    0.000000
 ---------------------------------------------------------------------

 SCF Done:  E(RHF) =  -152.106218171     A.U. after   10 cycles
 E2 =    -0.5260405181D+00 EUMP2 =    -0.15263225868879D+03
 CCSD(T)
 CCSD(T)= -0.15265950000D+03

 The electronic state is 1-A'.
 Alpha  occ. eigenvalues --  -20.54990 -20.54832  -1.32283  -1.32123  -0.69694
 Alpha  occ. eigenvalues --   -0.69528  -0.55675  -0.55509  -0.49386  -0.49227
 Alpha virt. eigenvalues --    0.14271   0.15034   0.20514   0.20857   0.54697
 Alpha virt. eigenvalues --    0.55160   0.57677   0.57866   0.66754   0.70710
 Alpha virt. eigenvalues --    0.79477   0.79658   0.80888   0.81183   0.82612

 Mulliken charges:
               1
     1  O   -0.501843
     2  H    0.249485
     3  H    0.252381
     4  O   -0.501541
     5  H    0.248808
     6  H    0.252709
 Sum of Mulliken charges =   0.00000

 Dipole moment (field-independent basis, Debye):
    X=             -0.9743    Y=             -0.2701    Z=              0.0000  Tot=              1.0110
 Quadrupole moment (field-independent basis, Debye-Ang):
   XX=             -8.3268   YY=              6.1272   ZZ=            -14.7102
   XY=             -1.5801   XZ=              0.0000   YZ=              0.0000

 Normal termination of Gaussian 16 at Fri Aug 26 17:48:49 2022.
