 Gaussian 16, Revision A.03,
 Gaussian 16:  ES64L-G16RevA.03 25-Dec-2016

 ------------------
 #p CCSD(T)/cc-pVTZ
 ------------------

 ------------
 H2O_H2O_1688
 ------------
 Symbolic Z-matrix:
 Charge =  0 Multiplicity = 1

                         Standard orientation:
 ---------------------------------------------------------------------
 Center     Atomic      Atomic             Coordinates (Angstroms)
 Number     Number       Type             X           Y           Z
 ---------------------------------------------------------------------
      1          8           0        0.042982   -1.673392    0.000000
      2          1           0       -0.757834   -2.242777    0.000000
      3          1           0        0.841304   -2.246269    0.000000
      4          8           0        0.042982    1.712116    0.000000
      5          1           0        0.142911    2.689623    0.000000
      6          1           0       -0.914100    1.489630    0.000000
 ---------------------------------------------------------------------

 SCF Done:  E(RHF) =  -152.105467270     A.U. after   10 cycles
 E2 =    -0.5267417780D+00 EUMP2 =    -0.15263220904803D+03
 CCSD(T)
 CCSD(T)= -0.15265942024D+03

 The electronic state is 1-A'.
 Alpha  occ. eigenvalues --  -20.54937 -20.54092  -1.32216  -1.31353  -0.69639
 Alpha  occ. eigenvalues --   -0.68743  -0.55712  -0.54501  -0.49327  -0.48454
 Alpha virt. eigenvalues --    0.13786   0.16377   0.20260   0.22169   0.53458
 Alpha virt. eigenvalues --    0.55519   0.57724   0.58612   0.64168   0.76911
 Alpha virt. eigenvalues --    0.78353   0.78501   0.79439   0.81373   0.85311

 Mulliken charges:
               1
     1  O   -0.488772
     2  H    0.240360
     3  H    0.250401
     4  O   -0.490648
     5  H    0.237205
     6  H    0.251453
 Sum of Mulliken charges =  -0.00000

 Dipole moment (field-independent basis, Debye):
    X=             -1.4272    Y=             -0.7245    Z=              0.0000  Tot=              1.6005
 Quadrupole moment (field-independent basis, Debye-Ang):
   XX=             -8.9963   YY=              0.1414   ZZ=            -14.7130
   XY=             -1.7171   XZ=              0.0000   YZ=              0.0000

 487851\MP4DQ=-152.6411734\MP4SDQ=-152.644283\CCSD=-152.643671\CCSD(T)=
 Normal termination of Gaussian 16 at Sat Aug 27 06:13:42 2022.
