 Gaussian 16, Revision A.03,
 Gaussian 16:  ES64L-G16RevA.03 25-Dec-2016

 ------------------
 #p CCSD(T)/cc-pVTZ
 ------------------

 ------------
 H2O_H2O_3525
 ------------
 Symbolic Z-matrix:
 Charge =  0 Multiplicity = 1

                         Standard orientation:
 ---------------------------------------------------------------------
 Center     Atomic      Atomic             Coordinates (Angstroms)
 Number     Number       Type             X           Y           Z
 ---------------------------------------------------------------------
      1          8           0        0.000000   -0.000000    2.678322
      2          1           0        0.000000    0.799571    3.249454
      3          1           0       -0.000000   -0.799571    3.249454
      4          8           0        0.000000   -0.000000   -2.678322
      5          1           0       -0.000000   -0.799571   -3.249454
      6          1           0        0.000000    0.799571   -3.249454
 ---------------------------------------------------------------------

 SCF Done:  E(RHF) =  -152.106392011     A.U. after   10 cycles
 E2 =    -0.5259865023D+00 EUMP2 =    -0.15263237851335D+03
 CCSD(T)
 CCSD(T)= -0.15265961917D+03

 The electronic state is 1-AG.
 Alpha  occ. eigenvalues --  -20.55010 -20.55010  -1.32304  -1.32304  -0.69713
 Alpha  occ. eigenvalues --   -0.69713  -0.55708  -0.55699  -0.49409  -0.49408
 Alpha virt. eigenvalues --    0.14478   0.14686   0.20569   0.20640   0.54818
 Alpha virt. eigenvalues --    0.54901   0.57674   0.57707   0.68092   0.69043
 Alpha virt. eigenvalues --    0.79463   0.79474   0.80897   0.80944   0.82786

 Mulliken charges:
               1
     1  O   -0.502883
     2  H    0.251442
     3  H    0.251442
     4  O   -0.502883
     5  H    0.251442
     6  H    0.251442
 Sum of Mulliken charges =   0.00000

 Dipole moment (field-independent basis, Debye):
    X=             -0.0000    Y=              0.0000    Z=              0.0000  Tot=              0.0000
 Quadrupole moment (field-independent basis, Debye-Ang):
   XX=            -14.7101   YY=             -7.8103   ZZ=              9.3766
   XY=              0.0000   XZ=              0.0000   YZ=             -0.0000

 \MP4DQ=-152.6415012\MP4SDQ=-152.6445654\CCSD=-152.6439755\CCSD(T)=-152
 Normal termination of Gaussian 16 at Sat Aug 27 01:14:08 2022.
