 Gaussian 16, Revision A.03,
 Gaussian 16:  ES64L-G16RevA.03 25-Dec-2016

 ------------------
 #p CCSD(T)/cc-pVTZ
 ------------------

 -----------
 H2O_H2O_772
 -----------
 Symbolic Z-matrix:
 Charge =  0 Multiplicity = 1

                         Standard orientation:
 ---------------------------------------------------------------------
 Center     Atomic      Atomic             Coordinates (Angstroms)
 Number     Number       Type             X           Y           Z
 ---------------------------------------------------------------------
      1          8           0        0.056826   -1.148784    0.000000
      2          1           0       -0.745062   -1.716658    0.000000
      3          1           0        0.854067   -1.723164    0.000000
      4          8           0        0.056826    1.247639    0.000000
      5          1           0       -0.401523    2.116790    0.000000
      6          1           0       -0.616701    0.532190    0.000000
 ---------------------------------------------------------------------

 SCF Done:  E(RHF) =  -152.096243856     A.U. after   11 cycles
 E2 =    -0.5311098986D+00 EUMP2 =    -0.15262735375474D+03
 CCSD(T)
 CCSD(T)= -0.15265421130D+03

 The electronic state is 1-A'.
 Alpha  occ. eigenvalues --  -20.56569 -20.51609  -1.34633  -1.29115  -0.71973
 Alpha  occ. eigenvalues --   -0.68576  -0.55684  -0.52728  -0.51572  -0.46155
 Alpha virt. eigenvalues --    0.13065   0.18344   0.19379   0.26304   0.50632
 Alpha virt. eigenvalues --    0.55989   0.60687   0.62122   0.71577   0.73653
 Alpha virt. eigenvalues --    0.76447   0.82601   0.83250   0.83666   0.86919

 Mulliken charges:
               1
     1  O   -0.450770
     2  H    0.229219
     3  H    0.250037
     4  O   -0.507008
     5  H    0.214729
     6  H    0.263792
 Sum of Mulliken charges =  -0.00000

 Dipole moment (field-independent basis, Debye):
    X=             -1.7580    Y=             -2.1279    Z=              0.0000  Tot=              2.7602
 Quadrupole moment (field-independent basis, Debye-Ang):
   XX=             -9.8314   YY=             -5.3306   ZZ=            -14.7100
   XY=             -2.4257   XZ=              0.0000   YZ=              0.0000

 2428\MP4DQ=-152.6352932\MP4SDQ=-152.6385529\CCSD=-152.6378801\CCSD(T)=
 Normal termination of Gaussian 16 at Fri Aug 26 19:50:45 2022.
