 Gaussian 16, Revision A.03,
 Gaussian 16:  ES64L-G16RevA.03 25-Dec-2016

 ------------------
 #p CCSD(T)/cc-pVTZ
 ------------------

 ------------
 H2O_H2O_3451
 ------------
 Symbolic Z-matrix:
 Charge =  0 Multiplicity = 1

                         Standard orientation:
 ---------------------------------------------------------------------
 Center     Atomic      Atomic             Coordinates (Angstroms)
 Number     Number       Type             X           Y           Z
 ---------------------------------------------------------------------
      1          8           0        0.003735   -2.638302    0.000000
      2          1           0       -0.795905   -3.209337    0.000000
      3          1           0        0.803237   -3.209532    0.000000
      4          8           0        0.003735    2.638546    0.000000
      5          1           0        0.764317    3.260656    0.000000
      6          1           0       -0.831415    3.156263    0.000000
 ---------------------------------------------------------------------

 SCF Done:  E(RHF) =  -152.106346545     A.U. after   10 cycles
 E2 =    -0.5259933028D+00 EUMP2 =    -0.15263233984789D+03
 CCSD(T)
 CCSD(T)= -0.15265958129D+03

 The electronic state is 1-A'.
 Alpha  occ. eigenvalues --  -20.54993 -20.54991  -1.32287  -1.32285  -0.69696
 Alpha  occ. eigenvalues --   -0.69694  -0.55689  -0.55677  -0.49391  -0.49389
 Alpha virt. eigenvalues --    0.14474   0.14717   0.20575   0.20657   0.54827
 Alpha virt. eigenvalues --    0.54928   0.57685   0.57724   0.68004   0.69178
 Alpha virt. eigenvalues --    0.79479   0.79494   0.80911   0.80968   0.82781

 Mulliken charges:
               1
     1  O   -0.502618
     2  H    0.251169
     3  H    0.251449
     4  O   -0.502615
     5  H    0.251122
     6  H    0.251492
 Sum of Mulliken charges =  -0.00000

 Dipole moment (field-independent basis, Debye):
    X=             -0.1278    Y=             -0.0043    Z=              0.0000  Tot=              0.1279
 Quadrupole moment (field-independent basis, Debye-Ang):
   XX=             -7.8199   YY=              9.0405   ZZ=            -14.7100
   XY=             -0.2226   XZ=              0.0000   YZ=              0.0000

 Normal termination of Gaussian 16 at Fri Aug 26 22:27:00 2022.
