 Gaussian 16, Revision A.03,
 Gaussian 16:  ES64L-G16RevA.03 25-Dec-2016

 ------------------
 #p CCSD(T)/cc-pVTZ
 ------------------

 ------------
 H2O_H2O_1804
 ------------
 Symbolic Z-matrix:
 Charge =  0 Multiplicity = 1

                         Standard orientation:
 ---------------------------------------------------------------------
 Center     Atomic      Atomic             Coordinates (Angstroms)
 Number     Number       Type             X           Y           Z
 ---------------------------------------------------------------------
      1          8           0        0.014783   -1.758802    0.000000
      2          1           0       -0.785200   -2.329356    0.000000
      3          1           0        0.813941   -2.330512    0.000000
      4          8           0        0.014783    1.762673    0.000000
      5          1           0        0.639838    2.520836    0.000000
      6          1           0       -0.905114    2.108065    0.000000
 ---------------------------------------------------------------------

 SCF Done:  E(RHF) =  -152.104188474     A.U. after   10 cycles
 E2 =    -0.5266433934D+00 EUMP2 =    -0.15263083186764D+03
 CCSD(T)
 CCSD(T)= -0.15265808484D+03

 The electronic state is 1-A'.
 Alpha  occ. eigenvalues --  -20.54357 -20.54282  -1.31644  -1.31549  -0.69067
 Alpha  occ. eigenvalues --   -0.68973  -0.55340  -0.54366  -0.48774  -0.48606
 Alpha virt. eigenvalues --    0.14196   0.16100   0.20580   0.21449   0.53289
 Alpha virt. eigenvalues --    0.57194   0.58027   0.58408   0.61571   0.75998
 Alpha virt. eigenvalues --    0.79003   0.79399   0.80395   0.81198   0.83792

 Mulliken charges:
               1
     1  O   -0.485859
     2  H    0.241394
     3  H    0.244607
     4  O   -0.485836
     5  H    0.241013
     6  H    0.244682
 Sum of Mulliken charges =  -0.00000

 Dipole moment (field-independent basis, Debye):
    X=             -0.4940    Y=             -0.0718    Z=              0.0000  Tot=              0.4992
 Quadrupole moment (field-independent basis, Debye-Ang):
   XX=             -7.9914   YY=              1.7506   ZZ=            -14.7091
   XY=             -0.4636   XZ=              0.0000   YZ=              0.0000

 Normal termination of Gaussian 16 at Sat Aug 27 06:52:53 2022.
