 Gaussian 16, Revision A.03,
 Gaussian 16:  ES64L-G16RevA.03 25-Dec-2016

 ------------------
 #p CCSD(T)/cc-pVTZ
 ------------------

 ------------
 H2O_H2O_1147
 ------------
 Symbolic Z-matrix:
 Charge =  0 Multiplicity = 1

                         Standard orientation:
 ---------------------------------------------------------------------
 Center     Atomic      Atomic             Coordinates (Angstroms)
 Number     Number       Type             X           Y           Z
 ---------------------------------------------------------------------
      1          8           0        0.056797   -1.348188    0.000000
      2          1           0       -0.744761   -1.916528    0.000000
      3          1           0        0.854372   -1.922105    0.000000
      4          8           0        0.056797    1.447109    0.000000
      5          1           0       -0.402056    2.315994    0.000000
      6          1           0       -0.616314    0.731269    0.000000
 ---------------------------------------------------------------------

 SCF Done:  E(RHF) =  -152.107238647     A.U. after   10 cycles
 E2 =    -0.5282538579D+00 EUMP2 =    -0.15263549250525D+03
 CCSD(T)
 CCSD(T)= -0.15266254228D+03

 The electronic state is 1-A'.
 Alpha  occ. eigenvalues --  -20.56479 -20.52811  -1.33910  -1.30162  -0.71294
 Alpha  occ. eigenvalues --   -0.68000  -0.56927  -0.53677  -0.51004  -0.47273
 Alpha virt. eigenvalues --    0.13084   0.17617   0.19567   0.25576   0.51774
 Alpha virt. eigenvalues --    0.56413   0.57541   0.59560   0.70176   0.74448
 Alpha virt. eigenvalues --    0.74703   0.79376   0.82401   0.83612   0.84038

 Mulliken charges:
               1
     1  O   -0.483530
     2  H    0.241495
     3  H    0.258043
     4  O   -0.511130
     5  H    0.230436
     6  H    0.264686
 Sum of Mulliken charges =  -0.00000

 Dipole moment (field-independent basis, Debye):
    X=             -1.8285    Y=             -1.9996    Z=              0.0000  Tot=              2.7096
 Quadrupole moment (field-independent basis, Debye-Ang):
   XX=             -9.8319   YY=             -4.0842   ZZ=            -14.7265
   XY=             -2.7982   XZ=              0.0000   YZ=              0.0000

 Normal termination of Gaussian 16 at Sat Aug 27 02:29:51 2022.
