 Gaussian 16, Revision A.03,
 Gaussian 16:  ES64L-G16RevA.03 25-Dec-2016

 ------------------
 #p CCSD(T)/cc-pVTZ
 ------------------

 -----------
 H2O_H2O_582
 -----------
 Symbolic Z-matrix:
 Charge =  0 Multiplicity = 1

                         Standard orientation:
 ---------------------------------------------------------------------
 Center     Atomic      Atomic             Coordinates (Angstroms)
 Number     Number       Type             X           Y           Z
 ---------------------------------------------------------------------
      1          8           0        0.025272   -1.103060    0.000000
      2          1           0       -0.775417   -1.672623    0.000000
      3          1           0        0.823722   -1.675759    0.000000
      4          8           0        0.025272    1.114741    0.000000
      5          1           0        0.491477    1.979702    0.000000
      6          1           0       -0.944134    1.275233    0.000000
 ---------------------------------------------------------------------

 SCF Done:  E(RHF) =  -152.078661705     A.U. after   11 cycles
 E2 =    -0.5316309720D+00 EUMP2 =    -0.15261029267659D+03
 CCSD(T)
 CCSD(T)= -0.15263742693D+03

 The electronic state is 1-A'.
 Alpha  occ. eigenvalues --  -20.52820 -20.52447  -1.31483  -1.29422  -0.68579
 Alpha  occ. eigenvalues --   -0.67269  -0.58462  -0.48773  -0.47663  -0.46053
 Alpha virt. eigenvalues --    0.14478   0.17833   0.20457   0.22868   0.51584
 Alpha virt. eigenvalues --    0.58668   0.58726   0.63922   0.70618   0.76762
 Alpha virt. eigenvalues --    0.77700   0.81485   0.84032   0.86395   0.87315

 Mulliken charges:
               1
     1  O   -0.453926
     2  H    0.219105
     3  H    0.232788
     4  O   -0.435362
     5  H    0.202861
     6  H    0.234535
 Sum of Mulliken charges =  -0.00000

 Dipole moment (field-independent basis, Debye):
    X=             -0.7619    Y=             -0.2335    Z=              0.0000  Tot=              0.7969
 Quadrupole moment (field-independent basis, Debye-Ang):
   XX=             -8.4292   YY=             -4.4135   ZZ=            -14.7359
   XY=             -0.3458   XZ=              0.0000   YZ=              0.0000

 Normal termination of Gaussian 16 at Fri Aug 26 17:51:06 2022.
