 Gaussian 16, Revision A.03,
 Gaussian 16:  ES64L-G16RevA.03 25-Dec-2016

 ------------------
 #p CCSD(T)/cc-pVTZ
 ------------------

 ------------
 H2O_H2O_3579
 ------------
 Symbolic Z-matrix:
 Charge =  0 Multiplicity = 1

                         Standard orientation:
 ---------------------------------------------------------------------
 Center     Atomic      Atomic             Coordinates (Angstroms)
 Number     Number       Type             X           Y           Z
 ---------------------------------------------------------------------
      1          8           0        0.014783   -2.702808    0.000000
      2          1           0       -0.785057   -3.273563    0.000000
      3          1           0        0.814085   -3.274316    0.000000
      4          8           0        0.014783    2.706686    0.000000
      5          1           0        0.639647    3.465007    0.000000
      6          1           0       -0.905202    3.051846    0.000000
 ---------------------------------------------------------------------

 SCF Done:  E(RHF) =  -152.106469612     A.U. after   10 cycles
 E2 =    -0.5259784709D+00 EUMP2 =    -0.15263244808258D+03
 CCSD(T)
 CCSD(T)= -0.15265968717D+03

 The electronic state is 1-A'.
 Alpha  occ. eigenvalues --  -20.55051 -20.55020  -1.32345  -1.32314  -0.69754
 Alpha  occ. eigenvalues --   -0.69722  -0.55748  -0.55717  -0.49450  -0.49419
 Alpha virt. eigenvalues --    0.14459   0.14666   0.20549   0.20633   0.54792
 Alpha virt. eigenvalues --    0.54878   0.57647   0.57695   0.68117   0.68949
 Alpha virt. eigenvalues --    0.79427   0.79459   0.80868   0.80923   0.82777

 Mulliken charges:
               1
     1  O   -0.503345
     2  H    0.251153
     3  H    0.252192
     4  O   -0.503295
     5  H    0.250947
     6  H    0.252348
 Sum of Mulliken charges =  -0.00000

 Dipole moment (field-independent basis, Debye):
    X=             -0.5063    Y=             -0.0681    Z=              0.0000  Tot=              0.5108
 Quadrupole moment (field-independent basis, Debye-Ang):
   XX=             -7.9466   YY=              9.3551   ZZ=            -14.7102
   XY=             -0.9310   XZ=              0.0000   YZ=              0.0000

 Normal termination of Gaussian 16 at Sat Aug 27 01:39:03 2022.
