 Gaussian 16, Revision A.03,
 Gaussian 16:  ES64L-G16RevA.03 25-Dec-2016

 ------------------
 #p CCSD(T)/cc-pVTZ
 ------------------

 -----------
 H2O_H2O_358
 -----------
 Symbolic Z-matrix:
 Charge =  0 Multiplicity = 1

                         Standard orientation:
 ---------------------------------------------------------------------
 Center     Atomic      Atomic             Coordinates (Angstroms)
 Number     Number       Type             X           Y           Z
 ---------------------------------------------------------------------
      1          8           0        0.028575   -0.981505    0.000000
      2          1           0       -0.772413   -1.550648    0.000000
      3          1           0        0.826724   -1.554623    0.000000
      4          8           0        0.028575    0.996667    0.000000
      5          1           0        0.437681    1.890053    0.000000
      6          1           0       -0.949201    1.093926    0.000000
 ---------------------------------------------------------------------

 SCF Done:  E(RHF) =  -152.049401511     A.U. after   11 cycles
 E2 =    -0.5357356054D+00 EUMP2 =    -0.15258513711599D+03
 CCSD(T)
 CCSD(T)= -0.15261188106D+03

 The electronic state is 1-A'.
 Alpha  occ. eigenvalues --  -20.52306 -20.51822  -1.32483  -1.28483  -0.69223
 Alpha  occ. eigenvalues --   -0.67025  -0.60257  -0.49602  -0.44989  -0.44087
 Alpha virt. eigenvalues --    0.14481   0.18263   0.20298   0.23197   0.52254
 Alpha virt. eigenvalues --    0.58018   0.58721   0.64808   0.70316   0.77523
 Alpha virt. eigenvalues --    0.78815   0.82503   0.83871   0.86163   0.87963

 Mulliken charges:
               1
     1  O   -0.435547
     2  H    0.207927
     3  H    0.225172
     4  O   -0.407099
     5  H    0.177993
     6  H    0.231554
 Sum of Mulliken charges =  -0.00000

 Dipole moment (field-independent basis, Debye):
    X=             -0.8269    Y=             -0.3189    Z=              0.0000  Tot=              0.8863
 Quadrupole moment (field-independent basis, Debye-Ang):
   XX=             -8.6070   YY=             -5.9005   ZZ=            -14.7371
   XY=             -0.3491   XZ=              0.0000   YZ=              0.0000

 Normal termination of Gaussian 16 at Fri Aug 26 15:37:43 2022.
