 Gaussian 16, Revision A.03,
 Gaussian 16:  ES64L-G16RevA.03 25-Dec-2016

 ------------------
 #p CCSD(T)/cc-pVTZ
 ------------------

 ------------
 H2O_H2O_3788
 ------------
 Symbolic Z-matrix:
 Charge =  0 Multiplicity = 1

                         Standard orientation:
 ---------------------------------------------------------------------
 Center     Atomic      Atomic             Coordinates (Angstroms)
 Number     Number       Type             X           Y           Z
 ---------------------------------------------------------------------
      1          8           0        0.042966   -2.790210    0.000000
      2          1           0       -0.757356   -3.360289    0.000000
      3          1           0        0.841784   -3.362393    0.000000
      4          8           0        0.042966    2.829008    0.000000
      5          1           0        0.142046    3.806602    0.000000
      6          1           0       -0.913923    2.605690    0.000000
 ---------------------------------------------------------------------

 SCF Done:  E(RHF) =  -152.106965666     A.U. after   10 cycles
 E2 =    -0.5259322283D+00 EUMP2 =    -0.15263289789417D+03
 CCSD(T)
 CCSD(T)= -0.15266012652D+03

 The electronic state is 1-A'.
 Alpha  occ. eigenvalues --  -20.55331 -20.55045  -1.32628  -1.32339  -0.70035
 Alpha  occ. eigenvalues --   -0.69740  -0.56054  -0.55766  -0.49736  -0.49449
 Alpha virt. eigenvalues --    0.14249   0.14646   0.20346   0.20680   0.54522
 Alpha virt. eigenvalues --    0.54844   0.57409   0.57699   0.67986   0.68656
 Alpha virt. eigenvalues --    0.79143   0.79425   0.80580   0.80884   0.82541

 Mulliken charges:
               1
     1  O   -0.506292
     2  H    0.251790
     3  H    0.254506
     4  O   -0.506012
     5  H    0.250867
     6  H    0.255141
 Sum of Mulliken charges =  -0.00000

 Dipole moment (field-independent basis, Debye):
    X=             -1.4733    Y=             -0.6807    Z=              0.0000  Tot=              1.6230
 Quadrupole moment (field-independent basis, Debye-Ang):
   XX=             -8.9658   YY=              7.7297   ZZ=            -14.7112
   XY=             -3.3314   XZ=              0.0000   YZ=              0.0000

 Normal termination of Gaussian 16 at Sat Aug 27 03:18:50 2022.
