 Gaussian 16, Revision A.03,
 Gaussian 16:  ES64L-G16RevA.03 25-Dec-2016

 ------------------
 #p CCSD(T)/cc-pVTZ
 ------------------

 ------------
 H2O_H2O_3511
 ------------
 Symbolic Z-matrix:
 Charge =  0 Multiplicity = 1

                         Standard orientation:
 ---------------------------------------------------------------------
 Center     Atomic      Atomic             Coordinates (Angstroms)
 Number     Number       Type             X           Y           Z
 ---------------------------------------------------------------------
      1          8           0        0.037675   -2.649681    0.000000
      2          1           0       -0.762591   -3.219840    0.000000
      3          1           0        0.836550   -3.221786    0.000000
      4          8           0        0.037675    2.677936    0.000000
      5          1           0        0.263414    3.634255    0.000000
      6          1           0       -0.940168    2.581331    0.000000
 ---------------------------------------------------------------------

 SCF Done:  E(RHF) =  -152.106739591     A.U. after   10 cycles
 E2 =    -0.5259606865D+00 EUMP2 =    -0.15263270027718D+03
 CCSD(T)
 CCSD(T)= -0.15265993318D+03

 The electronic state is 1-A'.
 Alpha  occ. eigenvalues --  -20.55218 -20.54986  -1.32513  -1.32279  -0.69921
 Alpha  occ. eigenvalues --   -0.69681  -0.55929  -0.55695  -0.49620  -0.49387
 Alpha virt. eigenvalues --    0.14291   0.14735   0.20415   0.20719   0.54622
 Alpha virt. eigenvalues --    0.54912   0.57504   0.57742   0.67876   0.69018
 Alpha virt. eigenvalues --    0.79259   0.79487   0.80693   0.80955   0.82675

 Mulliken charges:
               1
     1  O   -0.504960
     2  H    0.251096
     3  H    0.253870
     4  O   -0.504671
     5  H    0.250271
     6  H    0.254393
 Sum of Mulliken charges =  -0.00000

 Dipole moment (field-independent basis, Debye):
    X=             -1.2901    Y=             -0.4969    Z=              0.0000  Tot=              1.3825
 Quadrupole moment (field-independent basis, Debye-Ang):
   XX=             -8.6992   YY=              7.4830   ZZ=            -14.7108
   XY=             -2.6097   XZ=              0.0000   YZ=              0.0000

 Normal termination of Gaussian 16 at Fri Aug 26 22:55:57 2022.
