 Gaussian 16, Revision A.03,
 Gaussian 16:  ES64L-G16RevA.03 25-Dec-2016

 ------------------
 #p CCSD(T)/cc-pVTZ
 ------------------

 ------------
 H2O_H2O_4393
 ------------
 Symbolic Z-matrix:
 Charge =  0 Multiplicity = 1

                         Standard orientation:
 ---------------------------------------------------------------------
 Center     Atomic      Atomic             Coordinates (Angstroms)
 Number     Number       Type             X           Y           Z
 ---------------------------------------------------------------------
      1          8           0        0.052817   -3.092171    0.000000
      2          1           0       -0.747583   -3.662141    0.000000
      3          1           0        0.851557   -3.664464    0.000000
      4          8           0        0.052817    3.162532    0.000000
      5          1           0       -0.167466    4.120123    0.000000
      6          1           0       -0.781578    2.643598    0.000000
 ---------------------------------------------------------------------

 SCF Done:  E(RHF) =  -152.107366625     A.U. after   10 cycles
 E2 =    -0.5258848355D+00 EUMP2 =    -0.15263325145997D+03
 CCSD(T)
 CCSD(T)= -0.15266047231D+03

 The electronic state is 1-A'.
 Alpha  occ. eigenvalues --  -20.55562 -20.55145  -1.32861  -1.32443  -0.70267
 Alpha  occ. eigenvalues --   -0.69842  -0.56306  -0.55886  -0.49972  -0.49555
 Alpha virt. eigenvalues --    0.14098   0.14536   0.20181   0.20629   0.54294
 Alpha virt. eigenvalues --    0.54733   0.57210   0.57627   0.67862   0.68337
 Alpha virt. eigenvalues --    0.78908   0.79318   0.80339   0.80780   0.82274

 Mulliken charges:
               1
     1  O   -0.508651
     2  H    0.253127
     3  H    0.255524
     4  O   -0.508385
     5  H    0.252001
     6  H    0.256383
 Sum of Mulliken charges =   0.00000

 Dipole moment (field-independent basis, Debye):
    X=             -1.8151    Y=             -1.2298    Z=              0.0000  Tot=              2.1925
 Quadrupole moment (field-independent basis, Debye-Ang):
   XX=             -9.5594   YY=              6.9390   ZZ=            -14.7120
   XY=             -5.1923   XZ=              0.0000   YZ=              0.0000

 Normal termination of Gaussian 16 at Sat Aug 27 07:04:35 2022.
