 Gaussian 16, Revision A.03,
 Gaussian 16:  ES64L-G16RevA.03 25-Dec-2016

 ------------------
 #p CCSD(T)/cc-pVTZ
 ------------------

 -----------
 H2O_H2O_822
 -----------
 Symbolic Z-matrix:
 Charge =  0 Multiplicity = 1

                         Standard orientation:
 ---------------------------------------------------------------------
 Center     Atomic      Atomic             Coordinates (Angstroms)
 Number     Number       Type             X           Y           Z
 ---------------------------------------------------------------------
      1          8           0        0.056822   -1.175370    0.000000
      2          1           0       -0.745016   -1.743315    0.000000
      3          1           0        0.854113   -1.749680    0.000000
      4          8           0        0.056822    1.274235    0.000000
      5          1           0       -0.401604    2.143346    0.000000
      6          1           0       -0.616642    0.558727    0.000000
 ---------------------------------------------------------------------

 SCF Done:  E(RHF) =  -152.098903205     A.U. after   11 cycles
 E2 =    -0.5305713461D+00 EUMP2 =    -0.15262947455077D+03
 CCSD(T)
 CCSD(T)= -0.15265637456D+03

 The electronic state is 1-A'.
 Alpha  occ. eigenvalues --  -20.56568 -20.51811  -1.34489  -1.29286  -0.71833
 Alpha  occ. eigenvalues --   -0.68409  -0.55987  -0.52879  -0.51467  -0.46339
 Alpha virt. eigenvalues --    0.13072   0.18240   0.19410   0.26217   0.50780
 Alpha virt. eigenvalues --    0.56083   0.60383   0.61587   0.71476   0.73640
 Alpha virt. eigenvalues --    0.76143   0.82686   0.82750   0.83699   0.86874

 Mulliken charges:
               1
     1  O   -0.457186
     2  H    0.231775
     3  H    0.251367
     4  O   -0.507935
     5  H    0.217590
     6  H    0.264389
 Sum of Mulliken charges =  -0.00000

 Dipole moment (field-independent basis, Debye):
    X=             -1.7697    Y=             -2.1067    Z=              0.0000  Tot=              2.7514
 Quadrupole moment (field-independent basis, Debye-Ang):
   XX=             -9.8318   YY=             -5.1482   ZZ=            -14.7143
   XY=             -2.4764   XZ=              0.0000   YZ=              0.0000

 Normal termination of Gaussian 16 at Fri Aug 26 20:19:27 2022.
