 Gaussian 16, Revision A.03,
 Gaussian 16:  ES64L-G16RevA.03 25-Dec-2016

 ------------------
 #p CCSD(T)/cc-pVTZ
 ------------------

 ------------
 H2O_H2O_2732
 ------------
 Symbolic Z-matrix:
 Charge =  0 Multiplicity = 1

                         Standard orientation:
 ---------------------------------------------------------------------
 Center     Atomic      Atomic             Coordinates (Angstroms)
 Number     Number       Type             X           Y           Z
 ---------------------------------------------------------------------
      1          8           0        0.025266   -2.246481    0.000000
      2          1           0       -0.774856   -2.816841    0.000000
      3          1           0        0.824285   -2.818385    0.000000
      4          8           0        0.025266    2.258213    0.000000
      5          1           0        0.490610    3.123638    0.000000
      6          1           0       -0.944299    2.417740    0.000000
 ---------------------------------------------------------------------

 SCF Done:  E(RHF) =  -152.105962012     A.U. after   10 cycles
 E2 =    -0.5260921460D+00 EUMP2 =    -0.15263205415814D+03
 CCSD(T)
 CCSD(T)= -0.15265929805D+03

 The electronic state is 1-A'.
 Alpha  occ. eigenvalues --  -20.54890 -20.54754  -1.32180  -1.32043  -0.69592
 Alpha  occ. eigenvalues --   -0.69449  -0.55570  -0.55401  -0.49282  -0.49145
 Alpha virt. eigenvalues --    0.14230   0.15203   0.20544   0.20936   0.54634
 Alpha virt. eigenvalues --    0.55342   0.57744   0.57938   0.65734   0.71898
 Alpha virt. eigenvalues --    0.79542   0.79776   0.80988   0.81217   0.82400

 Mulliken charges:
               1
     1  O   -0.500204
     2  H    0.248649
     3  H    0.251592
     4  O   -0.499909
     5  H    0.248027
     6  H    0.251844
 Sum of Mulliken charges =   0.00000

 Dipole moment (field-independent basis, Debye):
    X=             -0.8598    Y=             -0.2089    Z=              0.0000  Tot=              0.8848
 Quadrupole moment (field-independent basis, Debye-Ang):
   XX=             -8.2197   YY=              5.3886   ZZ=            -14.7100
   XY=             -1.2683   XZ=              0.0000   YZ=              0.0000

 Normal termination of Gaussian 16 at Fri Aug 26 15:34:15 2022.
