 Gaussian 16, Revision A.03,
 Gaussian 16:  ES64L-G16RevA.03 25-Dec-2016

 ------------------
 #p CCSD(T)/cc-pVTZ
 ------------------

 ------------
 H2O_H2O_3392
 ------------
 Symbolic Z-matrix:
 Charge =  0 Multiplicity = 1

                         Standard orientation:
 ---------------------------------------------------------------------
 Center     Atomic      Atomic             Coordinates (Angstroms)
 Number     Number       Type             X           Y           Z
 ---------------------------------------------------------------------
      1          8           0        0.051277   -2.564043    0.000000
      2          1           0       -0.749263   -3.133816    0.000000
      3          1           0        0.849877   -3.136532    0.000000
      4          8           0        0.051277    2.627574    0.000000
      5          1           0       -0.105666    3.597561    0.000000
      6          1           0       -0.815385    2.164537    0.000000
 ---------------------------------------------------------------------

 SCF Done:  E(RHF) =  -152.107208304     A.U. after   10 cycles
 E2 =    -0.5259338850D+00 EUMP2 =    -0.15263314218950D+03
 CCSD(T)
 CCSD(T)= -0.15266036348D+03

 The electronic state is 1-A'.
 Alpha  occ. eigenvalues --  -20.55481 -20.54920  -1.32778  -1.32215  -0.70185
 Alpha  occ. eigenvalues --   -0.69609  -0.56215  -0.55650  -0.49888  -0.49328
 Alpha virt. eigenvalues --    0.13956   0.14901   0.20203   0.20910   0.54332
 Alpha virt. eigenvalues --    0.54940   0.57279   0.57807   0.67408   0.69294
 Alpha virt. eigenvalues --    0.78994   0.79541   0.80373   0.80852   0.82682

 Mulliken charges:
               1
     1  O   -0.507644
     2  H    0.251842
     3  H    0.255865
     4  O   -0.507194
     5  H    0.250095
     6  H    0.257036
 Sum of Mulliken charges =  -0.00000

 Dipole moment (field-independent basis, Debye):
    X=             -1.7552    Y=             -1.1212    Z=              0.0000  Tot=              2.0828
 Quadrupole moment (field-independent basis, Debye-Ang):
   XX=             -9.4577   YY=              4.5159   ZZ=            -14.7120
   XY=             -4.0031   XZ=              0.0000   YZ=              0.0000

 Normal termination of Gaussian 16 at Fri Aug 26 21:56:44 2022.
