 Gaussian 16, Revision A.03,
 Gaussian 16:  ES64L-G16RevA.03 25-Dec-2016

 ------------------
 #p CCSD(T)/cc-pVTZ
 ------------------

 -----------
 H2O_H2O_475
 -----------
 Symbolic Z-matrix:
 Charge =  0 Multiplicity = 1

                         Standard orientation:
 ---------------------------------------------------------------------
 Center     Atomic      Atomic             Coordinates (Angstroms)
 Number     Number       Type             X           Y           Z
 ---------------------------------------------------------------------
      1          8           0        0.000000   -0.000000    1.056221
      2          1           0        0.000000    0.799571    1.627353
      3          1           0       -0.000000   -0.799571    1.627353
      4          8           0        0.000000   -0.000000   -1.056221
      5          1           0       -0.000000   -0.799571   -1.627353
      6          1           0        0.000000    0.799571   -1.627353
 ---------------------------------------------------------------------

 SCF Done:  E(RHF) =  -152.065363603     A.U. after   11 cycles
 E2 =    -0.5332064223D+00 EUMP2 =    -0.15259857002516D+03
 CCSD(T)
 CCSD(T)= -0.15262559377D+03

 The electronic state is 1-AG.
 Alpha  occ. eigenvalues --  -20.52084 -20.52083  -1.31465  -1.28923  -0.68295
 Alpha  occ. eigenvalues --   -0.66726  -0.59876  -0.48753  -0.45425  -0.45387
 Alpha virt. eigenvalues --    0.14638   0.18242   0.20534   0.22697   0.50133
 Alpha virt. eigenvalues --    0.59116   0.59224   0.65723   0.70872   0.77528
 Alpha virt. eigenvalues --    0.78758   0.82145   0.84461   0.86698   0.87074

 Mulliken charges:
               1
     1  O   -0.438955
     2  H    0.219478
     3  H    0.219478
     4  O   -0.438955
     5  H    0.219478
     6  H    0.219478
 Sum of Mulliken charges =  -0.00000

 Dipole moment (field-independent basis, Debye):
    X=             -0.0000    Y=              0.0000    Z=             -0.0000  Tot=              0.0000
 Quadrupole moment (field-independent basis, Debye-Ang):
   XX=            -14.7477   YY=             -8.1055   ZZ=             -5.0349
   XY=              0.0000   XZ=             -0.0000   YZ=             -0.0000

 4DQ=-152.6062635\MP4SDQ=-152.6097061\CCSD=-152.6089713\CCSD(T)=-152.62
 Normal termination of Gaussian 16 at Fri Aug 26 16:48:37 2022.
