 Gaussian 16, Revision A.03,
 Gaussian 16:  ES64L-G16RevA.03 25-Dec-2016

 ------------------
 #p CCSD(T)/cc-pVTZ
 ------------------

 ------------
 H2O_H2O_3109
 ------------
 Symbolic Z-matrix:
 Charge =  0 Multiplicity = 1

                         Standard orientation:
 ---------------------------------------------------------------------
 Center     Atomic      Atomic             Coordinates (Angstroms)
 Number     Number       Type             X           Y           Z
 ---------------------------------------------------------------------
      1          8           0        0.031741   -2.441875    0.000000
      2          1           0       -0.768466   -3.012115    0.000000
      3          1           0        0.830675   -3.013897    0.000000
      4          8           0        0.031741    2.461054    0.000000
      5          1           0        0.380280    3.379764    0.000000
      6          1           0       -0.950347    2.492810    0.000000
 ---------------------------------------------------------------------

 SCF Done:  E(RHF) =  -152.106392189     A.U. after   10 cycles
 E2 =    -0.5260125837D+00 EUMP2 =    -0.15263240477230D+03
 CCSD(T)
 CCSD(T)= -0.15265964348D+03

 The electronic state is 1-A'.
 Alpha  occ. eigenvalues --  -20.55064 -20.54878  -1.32358  -1.32170  -0.69768
 Alpha  occ. eigenvalues --   -0.69573  -0.55757  -0.55568  -0.49462  -0.49275
 Alpha virt. eigenvalues --    0.14279   0.14939   0.20484   0.20816   0.54693
 Alpha virt. eigenvalues --    0.55067   0.57623   0.57827   0.67225   0.70079
 Alpha virt. eigenvalues --    0.79411   0.79602   0.80822   0.81121   0.82708

 Mulliken charges:
               1
     1  O   -0.502896
     2  H    0.249985
     3  H    0.252928
     4  O   -0.502582
     5  H    0.249237
     6  H    0.253326
 Sum of Mulliken charges =  -0.00000

 Dipole moment (field-independent basis, Debye):
    X=             -1.0840    Y=             -0.3390    Z=              0.0000  Tot=              1.1358
 Quadrupole moment (field-independent basis, Debye-Ang):
   XX=             -8.4446   YY=              6.5084   ZZ=            -14.7104
   XY=             -1.8802   XZ=              0.0000   YZ=              0.0000

 Normal termination of Gaussian 16 at Fri Aug 26 19:30:30 2022.
