 Gaussian 16, Revision A.03,
 Gaussian 16:  ES64L-G16RevA.03 25-Dec-2016

 ------------------
 #p CCSD(T)/cc-pVTZ
 ------------------

 ------------
 H2O_H2O_1505
 ------------
 Symbolic Z-matrix:
 Charge =  0 Multiplicity = 1

                         Standard orientation:
 ---------------------------------------------------------------------
 Center     Atomic      Atomic             Coordinates (Angstroms)
 Number     Number       Type             X           Y           Z
 ---------------------------------------------------------------------
      1          8           0        0.018361   -1.598080    0.000000
      2          1           0       -0.781773   -2.168423    0.000000
      3          1           0        0.817368   -2.170001    0.000000
      4          8           0        0.018361    1.604106    0.000000
      5          1           0        0.592703    2.401376    0.000000
      6          1           0       -0.922080    1.888843    0.000000
 ---------------------------------------------------------------------

 SCF Done:  E(RHF) =  -152.102990088     A.U. after   10 cycles
 E2 =    -0.5270347861D+00 EUMP2 =    -0.15263002487396D+03
 CCSD(T)
 CCSD(T)= -0.15265729499D+03

 The electronic state is 1-A'.
 Alpha  occ. eigenvalues --  -20.54156 -20.54021  -1.31472  -1.31276  -0.68894
 Alpha  occ. eigenvalues --   -0.68710  -0.55469  -0.53684  -0.48631  -0.48291
 Alpha virt. eigenvalues --    0.14257   0.16467   0.20539   0.21744   0.52468
 Alpha virt. eigenvalues --    0.58179   0.58223   0.58704   0.63780   0.76567
 Alpha virt. eigenvalues --    0.78269   0.78442   0.79542   0.82082   0.85807

 Mulliken charges:
               1
     1  O   -0.478708
     2  H    0.236881
     3  H    0.242071
     4  O   -0.477908
     5  H    0.236174
     6  H    0.241490
 Sum of Mulliken charges =  -0.00000

 Dipole moment (field-independent basis, Debye):
    X=             -0.6064    Y=             -0.1131    Z=              0.0000  Tot=              0.6169
 Quadrupole moment (field-independent basis, Debye-Ang):
   XX=             -8.0858   YY=              0.3432   ZZ=            -14.7096
   XY=             -0.4921   XZ=              0.0000   YZ=              0.0000

 Normal termination of Gaussian 16 at Sat Aug 27 05:09:50 2022.
