 Gaussian 16, Revision A.03,
 Gaussian 16:  ES64L-G16RevA.03 25-Dec-2016

 ------------------
 #p CCSD(T)/cc-pVTZ
 ------------------

 ------------
 H2O_H2O_3367
 ------------
 Symbolic Z-matrix:
 Charge =  0 Multiplicity = 1

                         Standard orientation:
 ---------------------------------------------------------------------
 Center     Atomic      Atomic             Coordinates (Angstroms)
 Number     Number       Type             X           Y           Z
 ---------------------------------------------------------------------
      1          8           0        0.051278   -2.550748    0.000000
      2          1           0       -0.749267   -3.120514    0.000000
      3          1           0        0.849872   -3.123244    0.000000
      4          8           0        0.051278    2.614278    0.000000
      5          1           0       -0.105657    3.584266    0.000000
      6          1           0       -0.815388    2.151248    0.000000
 ---------------------------------------------------------------------

 SCF Done:  E(RHF) =  -152.107205430     A.U. after   10 cycles
 E2 =    -0.5259359796D+00 EUMP2 =    -0.15263314140965D+03
 CCSD(T)
 CCSD(T)= -0.15266036258D+03

 The electronic state is 1-A'.
 Alpha  occ. eigenvalues --  -20.55480 -20.54913  -1.32777  -1.32207  -0.70184
 Alpha  occ. eigenvalues --   -0.69601  -0.56214  -0.55643  -0.49887  -0.49320
 Alpha virt. eigenvalues --    0.13946   0.14916   0.20202   0.20921   0.54329
 Alpha virt. eigenvalues --    0.54944   0.57280   0.57812   0.67378   0.69352
 Alpha virt. eigenvalues --    0.78995   0.79548   0.80368   0.80855   0.82696

 Mulliken charges:
               1
     1  O   -0.507614
     2  H    0.251800
     3  H    0.255882
     4  O   -0.507164
     5  H    0.250030
     6  H    0.257066
 Sum of Mulliken charges =  -0.00000

 Dipole moment (field-independent basis, Debye):
    X=             -1.7550    Y=             -1.1217    Z=              0.0000  Tot=              2.0828
 Quadrupole moment (field-independent basis, Debye-Ang):
   XX=             -9.4577   YY=              4.4387   ZZ=            -14.7120
   XY=             -3.9800   XZ=              0.0000   YZ=              0.0000

 Normal termination of Gaussian 16 at Fri Aug 26 21:44:53 2022.
