 Gaussian 16, Revision A.03,
 Gaussian 16:  ES64L-G16RevA.03 25-Dec-2016

 ------------------
 #p CCSD(T)/cc-pVTZ
 ------------------

 ------------
 H2O_H2O_2118
 ------------
 Symbolic Z-matrix:
 Charge =  0 Multiplicity = 1

                         Standard orientation:
 ---------------------------------------------------------------------
 Center     Atomic      Atomic             Coordinates (Angstroms)
 Number     Number       Type             X           Y           Z
 ---------------------------------------------------------------------
      1          8           0        0.052849   -1.882294    0.000000
      2          1           0       -0.748073   -2.451530    0.000000
      3          1           0        0.851065   -2.455319    0.000000
      4          8           0        0.052849    1.952558    0.000000
      5          1           0       -0.166556    2.910350    0.000000
      6          1           0       -0.782021    1.434389    0.000000
 ---------------------------------------------------------------------

 SCF Done:  E(RHF) =  -152.107359474     A.U. after   10 cycles
 E2 =    -0.5262901519D+00 EUMP2 =    -0.15263364962621D+03
 CCSD(T)
 CCSD(T)= -0.15266083389D+03

 The electronic state is 1-A'.
 Alpha  occ. eigenvalues --  -20.55564 -20.54309  -1.32840  -1.31591  -0.70252
 Alpha  occ. eigenvalues --   -0.68964  -0.56258  -0.55012  -0.49952  -0.48711
 Alpha virt. eigenvalues --    0.13338   0.16069   0.20042   0.22336   0.54035
 Alpha virt. eigenvalues --    0.54414   0.57248   0.58506   0.65052   0.75263
 Alpha virt. eigenvalues --    0.78676   0.79060   0.80360   0.80789   0.84546

 Mulliken charges:
               1
     1  O   -0.500795
     2  H    0.247133
     3  H    0.256013
     4  O   -0.505350
     5  H    0.244001
     6  H    0.258998
 Sum of Mulliken charges =  -0.00000

 Dipole moment (field-independent basis, Debye):
    X=             -1.7790    Y=             -1.2928    Z=              0.0000  Tot=              2.1991
 Quadrupole moment (field-independent basis, Debye-Ang):
   XX=             -9.5636   YY=              0.1912   ZZ=            -14.7149
   XY=             -3.0302   XZ=              0.0000   YZ=              0.0000

 Normal termination of Gaussian 16 at Sat Aug 27 08:41:29 2022.
