 Gaussian 16, Revision A.03,
 Gaussian 16:  ES64L-G16RevA.03 25-Dec-2016

 ------------------
 #p CCSD(T)/cc-pVTZ
 ------------------

 ------------
 H2O_H2O_2376
 ------------
 Symbolic Z-matrix:
 Charge =  0 Multiplicity = 1

                         Standard orientation:
 ---------------------------------------------------------------------
 Center     Atomic      Atomic             Coordinates (Angstroms)
 Number     Number       Type             X           Y           Z
 ---------------------------------------------------------------------
      1          8           0        0.003735   -2.066578    0.000000
      2          1           0       -0.795924   -2.637586    0.000000
      3          1           0        0.803218   -2.637835    0.000000
      4          8           0        0.003735    2.066822    0.000000
      5          1           0        0.764338    2.688906    0.000000
      6          1           0       -0.831397    2.584566    0.000000
 ---------------------------------------------------------------------

 SCF Done:  E(RHF) =  -152.105290601     A.U. after   10 cycles
 E2 =    -0.5262297131D+00 EUMP2 =    -0.15263152031414D+03
 CCSD(T)
 CCSD(T)= -0.15265877052D+03

 The electronic state is 1-A'.
 Alpha  occ. eigenvalues --  -20.54623 -20.54620  -1.31912  -1.31902  -0.69329
 Alpha  occ. eigenvalues --   -0.69317  -0.55376  -0.55100  -0.49022  -0.48987
 Alpha virt. eigenvalues --    0.14251   0.15484   0.20639   0.21039   0.54546
 Alpha virt. eigenvalues --    0.55957   0.57876   0.58095   0.63180   0.74016
 Alpha virt. eigenvalues --    0.79590   0.80132   0.81032   0.81495   0.81691

 Mulliken charges:
               1
     1  O   -0.495629
     2  H    0.247544
     3  H    0.248087
     4  O   -0.495620
     5  H    0.247483
     6  H    0.248135
 Sum of Mulliken charges =   0.00000

 Dipole moment (field-independent basis, Debye):
    X=             -0.1265    Y=             -0.0044    Z=              0.0000  Tot=              0.1266
 Quadrupole moment (field-independent basis, Debye-Ang):
   XX=             -7.8407   YY=              4.3956   ZZ=            -14.7094
   XY=             -0.1509   XZ=              0.0000   YZ=              0.0000

 Normal termination of Gaussian 16 at Sat Aug 27 10:13:02 2022.
