 Gaussian 16, Revision A.03,
 Gaussian 16:  ES64L-G16RevA.03 25-Dec-2016

 ------------------
 #p CCSD(T)/cc-pVTZ
 ------------------

 ------------
 H2O_H2O_3500
 ------------
 Symbolic Z-matrix:
 Charge =  0 Multiplicity = 1

                         Standard orientation:
 ---------------------------------------------------------------------
 Center     Atomic      Atomic             Coordinates (Angstroms)
 Number     Number       Type             X           Y           Z
 ---------------------------------------------------------------------
      1          8           0        0.000000   -0.000000    2.665027
      2          1           0        0.000000    0.799571    3.236159
      3          1           0       -0.000000   -0.799571    3.236159
      4          8           0        0.000000   -0.000000   -2.665027
      5          1           0       -0.000000   -0.799571   -3.236159
      6          1           0        0.000000    0.799571   -3.236159
 ---------------------------------------------------------------------

 SCF Done:  E(RHF) =  -152.106376112     A.U. after   10 cycles
 E2 =    -0.5259887868D+00 EUMP2 =    -0.15263236489925D+03
 CCSD(T)
 CCSD(T)= -0.15265960584D+03

 The electronic state is 1-AG.
 Alpha  occ. eigenvalues --  -20.55004 -20.55004  -1.32298  -1.32298  -0.69707
 Alpha  occ. eigenvalues --   -0.69707  -0.55701  -0.55691  -0.49402  -0.49402
 Alpha virt. eigenvalues --    0.14477   0.14696   0.20572   0.20646   0.54822
 Alpha virt. eigenvalues --    0.54910   0.57678   0.57713   0.68065   0.69086
 Alpha virt. eigenvalues --    0.79469   0.79481   0.80902   0.80952   0.82785

 Mulliken charges:
               1
     1  O   -0.502790
     2  H    0.251395
     3  H    0.251395
     4  O   -0.502790
     5  H    0.251395
     6  H    0.251395
 Sum of Mulliken charges =   0.00000

 Dipole moment (field-independent basis, Debye):
    X=             -0.0000    Y=              0.0000    Z=             -0.0000  Tot=              0.0000
 Quadrupole moment (field-independent basis, Debye-Ang):
   XX=            -14.7101   YY=             -7.8106   ZZ=              9.2693
   XY=              0.0000   XZ=              0.0000   YZ=             -0.0000

 MP4DQ=-152.6414874\MP4SDQ=-152.6445518\CCSD=-152.6439619\CCSD(T)=-152.
 Normal termination of Gaussian 16 at Fri Aug 26 22:51:06 2022.
