 Gaussian 16, Revision A.03,
 Gaussian 16:  ES64L-G16RevA.03 25-Dec-2016

 ------------------
 #p CCSD(T)/cc-pVTZ
 ------------------

 ------------
 H2O_H2O_1079
 ------------
 Symbolic Z-matrix:
 Charge =  0 Multiplicity = 1

                         Standard orientation:
 ---------------------------------------------------------------------
 Center     Atomic      Atomic             Coordinates (Angstroms)
 Number     Number       Type             X           Y           Z
 ---------------------------------------------------------------------
      1          8           0        0.014784   -1.373224    0.000000
      2          1           0       -0.785315   -1.943616    0.000000
      3          1           0        0.813826   -1.945095    0.000000
      4          8           0        0.014784    1.377089    0.000000
      5          1           0        0.639993    2.135125    0.000000
      6          1           0       -0.905044    1.722667    0.000000
 ---------------------------------------------------------------------

 SCF Done:  E(RHF) =  -152.098504097     A.U. after   11 cycles
 E2 =    -0.5280735059D+00 EUMP2 =    -0.15262657760332D+03
 CCSD(T)
 CCSD(T)= -0.15265388813D+03

 The electronic state is 1-A'.
 Alpha  occ. eigenvalues --  -20.53591 -20.53488  -1.31141  -1.30669  -0.68516
 Alpha  occ. eigenvalues --   -0.68168  -0.56110  -0.51843  -0.48386  -0.47546
 Alpha virt. eigenvalues --    0.14410   0.17075   0.20546   0.22145   0.51190
 Alpha virt. eigenvalues --    0.58542   0.58773   0.61253   0.70478   0.76472
 Alpha virt. eigenvalues --    0.77019   0.78503   0.79849   0.83418   0.86253

 Mulliken charges:
               1
     1  O   -0.467575
     2  H    0.230645
     3  H    0.236687
     4  O   -0.464391
     5  H    0.229397
     6  H    0.235237
 Sum of Mulliken charges =  -0.00000

 Dipole moment (field-independent basis, Debye):
    X=             -0.4749    Y=             -0.0736    Z=              0.0000  Tot=              0.4806
 Quadrupole moment (field-independent basis, Debye-Ang):
   XX=             -8.0659   YY=             -1.6492   ZZ=            -14.7154
   XY=             -0.2806   XZ=              0.0000   YZ=              0.0000

 Normal termination of Gaussian 16 at Sat Aug 27 01:54:35 2022.
