 Gaussian 16, Revision A.03,
 Gaussian 16:  ES64L-G16RevA.03 25-Dec-2016

 ------------------
 #p CCSD(T)/cc-pVTZ
 ------------------

 ------------
 H2O_H2O_3021
 ------------
 Symbolic Z-matrix:
 Charge =  0 Multiplicity = 1

                         Standard orientation:
 ---------------------------------------------------------------------
 Center     Atomic      Atomic             Coordinates (Angstroms)
 Number     Number       Type             X           Y           Z
 ---------------------------------------------------------------------
      1          8           0        0.056108   -2.349297    0.000000
      2          1           0       -0.744611   -2.918818    0.000000
      3          1           0        0.854528   -2.922038    0.000000
      4          8           0        0.056108    2.441013    0.000000
      5          1           0       -0.346257    3.337455    0.000000
      6          1           0       -0.661392    1.769672    0.000000
 ---------------------------------------------------------------------

 SCF Done:  E(RHF) =  -152.107756708     A.U. after   10 cycles
 E2 =    -0.5259480831D+00 EUMP2 =    -0.15263370479126D+03
 CCSD(T)
 CCSD(T)= -0.15266090685D+03

 The electronic state is 1-A'.
 Alpha  occ. eigenvalues --  -20.55742 -20.54753  -1.33035  -1.32050  -0.70441
 Alpha  occ. eigenvalues --   -0.69436  -0.56492  -0.55501  -0.50149  -0.49168
 Alpha virt. eigenvalues --    0.13452   0.15273   0.20008   0.21345   0.54038
 Alpha virt. eigenvalues --    0.54878   0.57082   0.57932   0.66727   0.70406
 Alpha virt. eigenvalues --    0.78740   0.79691   0.79817   0.80561   0.82790

 Mulliken charges:
               1
     1  O   -0.509588
     2  H    0.252399
     3  H    0.257695
     4  O   -0.509753
     5  H    0.249478
     6  H    0.259770
 Sum of Mulliken charges =  -0.00000

 Dipole moment (field-independent basis, Debye):
    X=             -1.9157    Y=             -1.6348    Z=              0.0000  Tot=              2.5184
 Quadrupole moment (field-independent basis, Debye-Ang):
   XX=             -9.7824   YY=              1.2844   ZZ=            -14.7137
   XY=             -4.4956   XZ=              0.0000   YZ=              0.0000

 Normal termination of Gaussian 16 at Fri Aug 26 18:35:48 2022.
