 Gaussian 16, Revision A.03,
 Gaussian 16:  ES64L-G16RevA.03 25-Dec-2016

 ------------------
 #p CCSD(T)/cc-pVTZ
 ------------------

 ------------
 H2O_H2O_4646
 ------------
 Symbolic Z-matrix:
 Charge =  0 Multiplicity = 1

                         Standard orientation:
 ---------------------------------------------------------------------
 Center     Atomic      Atomic             Coordinates (Angstroms)
 Number     Number       Type             X           Y           Z
 ---------------------------------------------------------------------
      1          8           0        0.056084   -3.213500    0.000000
      2          1           0       -0.744331   -3.783449    0.000000
      3          1           0        0.854809   -3.785814    0.000000
      4          8           0        0.056084    3.305276    0.000000
      5          1           0       -0.346760    4.201504    0.000000
      6          1           0       -0.661058    2.633551    0.000000
 ---------------------------------------------------------------------

 SCF Done:  E(RHF) =  -152.107533082     A.U. after   10 cycles
 E2 =    -0.5258663460D+00 EUMP2 =    -0.15263339942790D+03
 CCSD(T)
 CCSD(T)= -0.15266061699D+03

 The electronic state is 1-A'.
 Alpha  occ. eigenvalues --  -20.55672 -20.55177  -1.32972  -1.32475  -0.70378
 Alpha  occ. eigenvalues --   -0.69875  -0.56425  -0.55925  -0.50085  -0.49589
 Alpha virt. eigenvalues --    0.14008   0.14514   0.20094   0.20623   0.54182
 Alpha virt. eigenvalues --    0.54697   0.57112   0.57608   0.67743   0.68276
 Alpha virt. eigenvalues --    0.78795   0.79283   0.80224   0.80746   0.82154

 Mulliken charges:
               1
     1  O   -0.509630
     2  H    0.253723
     3  H    0.255907
     4  O   -0.509346
     5  H    0.252469
     6  H    0.256876
 Sum of Mulliken charges =  -0.00000

 Dipole moment (field-independent basis, Debye):
    X=             -1.9286    Y=             -1.6021    Z=              0.0000  Tot=              2.5072
 Quadrupole moment (field-independent basis, Debye-Ang):
   XX=             -9.7845   YY=              5.4174   ZZ=            -14.7123
   XY=             -6.1449   XZ=              0.0000   YZ=              0.0000

 Normal termination of Gaussian 16 at Sat Aug 27 08:31:27 2022.
