 Gaussian 16, Revision A.03,
 Gaussian 16:  ES64L-G16RevA.03 25-Dec-2016

 ------------------
 #p CCSD(T)/cc-pVTZ
 ------------------

 ----------
 H2O_H2O_53
 ----------
 Symbolic Z-matrix:
 Charge =  0 Multiplicity = 1

                         Standard orientation:
 ---------------------------------------------------------------------
 Center     Atomic      Atomic             Coordinates (Angstroms)
 Number     Number       Type             X           Y           Z
 ---------------------------------------------------------------------
      1          8           0        0.011144   -0.829012    0.000000
      2          1           0       -0.789087   -1.399220    0.000000
      3          1           0        0.810054   -1.401067    0.000000
      4          8           0        0.011144    0.831181    0.000000
      5          1           0        0.684755    1.546550    0.000000
      6          1           0       -0.884019    1.236385    0.000000
 ---------------------------------------------------------------------

 SCF Done:  E(RHF) =  -151.937257299     A.U. after   11 cycles
 E2 =    -0.5496433967D+00 EUMP2 =    -0.15248690069611D+03
 CCSD(T)
 CCSD(T)= -0.15251157215D+03

 The electronic state is 1-A'.
 Alpha  occ. eigenvalues --  -20.51371 -20.51309  -1.36176  -1.26999  -0.70819
 Alpha  occ. eigenvalues --   -0.68067  -0.64986  -0.52442  -0.43232  -0.33745
 Alpha virt. eigenvalues --    0.14449   0.19616   0.19872   0.23091   0.50826
 Alpha virt. eigenvalues --    0.58470   0.59164   0.66388   0.68419   0.79195
 Alpha virt. eigenvalues --    0.80673   0.83951   0.83959   0.85860   0.88040

 Mulliken charges:
               1
     1  O   -0.352198
     2  H    0.169931
     3  H    0.182599
     4  O   -0.345353
     5  H    0.147153
     6  H    0.197869
 Sum of Mulliken charges =  -0.00000

 Dipole moment (field-independent basis, Debye):
    X=             -0.3200    Y=             -0.0609    Z=              0.0000  Tot=              0.3258
 Quadrupole moment (field-independent basis, Debye-Ang):
   XX=             -8.5583   YY=             -8.8250   ZZ=            -14.7690
   XY=             -0.1642   XZ=              0.0000   YZ=              0.0000

 Normal termination of Gaussian 16 at Fri Aug 26 12:18:09 2022.
