 Gaussian 16, Revision A.03,
 Gaussian 16:  ES64L-G16RevA.03 25-Dec-2016

 ------------------
 #p CCSD(T)/cc-pVTZ
 ------------------

 ------------
 H2O_H2O_4317
 ------------
 Symbolic Z-matrix:
 Charge =  0 Multiplicity = 1

                         Standard orientation:
 ---------------------------------------------------------------------
 Center     Atomic      Atomic             Coordinates (Angstroms)
 Number     Number       Type             X           Y           Z
 ---------------------------------------------------------------------
      1          8           0        0.051269   -3.055977    0.000000
      2          1           0       -0.749117   -3.625967    0.000000
      3          1           0        0.850023   -3.628250    0.000000
      4          8           0        0.051269    3.119536    0.000000
      5          1           0       -0.105937    4.089481    0.000000
      6          1           0       -0.815268    2.656264    0.000000
 ---------------------------------------------------------------------

 SCF Done:  E(RHF) =  -152.107303954     A.U. after   10 cycles
 E2 =    -0.5258915181D+00 EUMP2 =    -0.15263319547160D+03
 CCSD(T)
 CCSD(T)= -0.15266041758D+03

 The electronic state is 1-A'.
 Alpha  occ. eigenvalues --  -20.55523 -20.55136  -1.32821  -1.32433  -0.70227
 Alpha  occ. eigenvalues --   -0.69833  -0.56264  -0.55874  -0.49932  -0.49545
 Alpha virt. eigenvalues --    0.14130   0.14543   0.20212   0.20628   0.54334
 Alpha virt. eigenvalues --    0.54744   0.57244   0.57632   0.67904   0.68360
 Alpha virt. eigenvalues --    0.78948   0.79329   0.80380   0.80791   0.82317

 Mulliken charges:
               1
     1  O   -0.508281
     2  H    0.252925
     3  H    0.255357
     4  O   -0.508022
     5  H    0.251854
     6  H    0.256167
 Sum of Mulliken charges =  -0.00000

 Dipole moment (field-independent basis, Debye):
    X=             -1.7615    Y=             -1.1113    Z=              0.0000  Tot=              2.0827
 Quadrupole moment (field-independent basis, Debye-Ang):
   XX=             -9.4577   YY=              7.3634   ZZ=            -14.7118
   XY=             -4.8609   XZ=              0.0000   YZ=              0.0000

 Normal termination of Gaussian 16 at Sat Aug 27 06:38:11 2022.
