 Gaussian 16, Revision A.03,
 Gaussian 16:  ES64L-G16RevA.03 25-Dec-2016

 ------------------
 #p CCSD(T)/cc-pVTZ
 ------------------

 ------------
 H2O_H2O_2480
 ------------
 Symbolic Z-matrix:
 Charge =  0 Multiplicity = 1

                         Standard orientation:
 ---------------------------------------------------------------------
 Center     Atomic      Atomic             Coordinates (Angstroms)
 Number     Number       Type             X           Y           Z
 ---------------------------------------------------------------------
      1          8           0        0.018361   -2.116616    0.000000
      2          1           0       -0.781636   -2.687152    0.000000
      3          1           0        0.817506   -2.688344    0.000000
      4          8           0        0.018361    2.122651    0.000000
      5          1           0        0.592509    2.920059    0.000000
      6          1           0       -0.922149    2.407161    0.000000
 ---------------------------------------------------------------------

 SCF Done:  E(RHF) =  -152.105570723     A.U. after   10 cycles
 E2 =    -0.5261790184D+00 EUMP2 =    -0.15263174974092D+03
 CCSD(T)
 CCSD(T)= -0.15265899652D+03

 The electronic state is 1-A'.
 Alpha  occ. eigenvalues --  -20.54737 -20.54658  -1.32024  -1.31943  -0.69439
 Alpha  occ. eigenvalues --   -0.69354  -0.55443  -0.55223  -0.49125  -0.49042
 Alpha virt. eigenvalues --    0.14209   0.15407   0.20591   0.21023   0.54515
 Alpha virt. eigenvalues --    0.55675   0.57830   0.58040   0.64110   0.73407
 Alpha virt. eigenvalues --    0.79577   0.79994   0.81040   0.81224   0.82081

 Mulliken charges:
               1
     1  O   -0.497505
     2  H    0.247520
     3  H    0.250028
     4  O   -0.497314
     5  H    0.247085
     6  H    0.250187
 Sum of Mulliken charges =   0.00000

 Dipole moment (field-independent basis, Debye):
    X=             -0.6228    Y=             -0.1083    Z=              0.0000  Tot=              0.6321
 Quadrupole moment (field-independent basis, Debye-Ang):
   XX=             -8.0380   YY=              4.5983   ZZ=            -14.7097
   XY=             -0.8072   XZ=              0.0000   YZ=              0.0000

 Normal termination of Gaussian 16 at Sat Aug 27 10:47:28 2022.
