 Gaussian 16, Revision A.03,
 Gaussian 16:  ES64L-G16RevA.03 25-Dec-2016

 ------------------
 #p CCSD(T)/cc-pVTZ
 ------------------

 ------------
 H2O_H2O_1734
 ------------
 Symbolic Z-matrix:
 Charge =  0 Multiplicity = 1

                         Standard orientation:
 ---------------------------------------------------------------------
 Center     Atomic      Atomic             Coordinates (Angstroms)
 Number     Number       Type             X           Y           Z
 ---------------------------------------------------------------------
      1          8           0        0.031746   -1.710615    0.000000
      2          1           0       -0.768731   -2.280477    0.000000
      3          1           0        0.830409   -2.283016    0.000000
      4          8           0        0.031746    1.729765    0.000000
      5          1           0        0.380720    2.648309    0.000000
      6          1           0       -0.950327    1.761986    0.000000
 ---------------------------------------------------------------------

 SCF Done:  E(RHF) =  -152.104640156     A.U. after   10 cycles
 E2 =    -0.5267072115D+00 EUMP2 =    -0.15263134736784D+03
 CCSD(T)
 CCSD(T)= -0.15265858375D+03

 The electronic state is 1-A'.
 Alpha  occ. eigenvalues --  -20.54585 -20.54192  -1.31866  -1.31458  -0.69290
 Alpha  occ. eigenvalues --   -0.68865  -0.55477  -0.54408  -0.48979  -0.48542
 Alpha virt. eigenvalues --    0.14012   0.16238   0.20440   0.21724   0.53036
 Alpha virt. eigenvalues --    0.56343   0.57971   0.58520   0.63143   0.76778
 Alpha virt. eigenvalues --    0.78704   0.78865   0.80112   0.81322   0.84502

 Mulliken charges:
               1
     1  O   -0.486730
     2  H    0.240102
     3  H    0.247433
     4  O   -0.486864
     5  H    0.238426
     6  H    0.247634
 Sum of Mulliken charges =  -0.00000

 Dipole moment (field-independent basis, Debye):
    X=             -1.0572    Y=             -0.3565    Z=              0.0000  Tot=              1.1157
 Quadrupole moment (field-independent basis, Debye-Ang):
   XX=             -8.4800   YY=              0.9853   ZZ=            -14.7105
   XY=             -1.1033   XZ=              0.0000   YZ=              0.0000

 Normal termination of Gaussian 16 at Sat Aug 27 06:29:02 2022.
