 Gaussian 16, Revision A.03,
 Gaussian 16:  ES64L-G16RevA.03 25-Dec-2016

 ------------------
 #p CCSD(T)/cc-pVTZ
 ------------------

 ------------
 H2O_H2O_4055
 ------------
 Symbolic Z-matrix:
 Charge =  0 Multiplicity = 1

                         Standard orientation:
 ---------------------------------------------------------------------
 Center     Atomic      Atomic             Coordinates (Angstroms)
 Number     Number       Type             X           Y           Z
 ---------------------------------------------------------------------
      1          8           0        0.018360   -2.954255    0.000000
      2          1           0       -0.781516   -3.524959    0.000000
      3          1           0        0.817626   -3.525814    0.000000
      4          8           0        0.018360    2.960297    0.000000
      5          1           0        0.592340    3.757826    0.000000
      6          1           0       -0.922210    3.244608    0.000000
 ---------------------------------------------------------------------

 SCF Done:  E(RHF) =  -152.106724342     A.U. after   10 cycles
 E2 =    -0.5259444432D+00 EUMP2 =    -0.15263266878497D+03
 CCSD(T)
 CCSD(T)= -0.15265990314D+03

 The electronic state is 1-A'.
 Alpha  occ. eigenvalues --  -20.55160 -20.55120  -1.32455  -1.32415  -0.69863
 Alpha  occ. eigenvalues --   -0.69822  -0.55870  -0.55831  -0.49561  -0.49522
 Alpha virt. eigenvalues --    0.14438   0.14523   0.20494   0.20548   0.54704
 Alpha virt. eigenvalues --    0.54754   0.57564   0.57607   0.68290   0.68496
 Alpha virt. eigenvalues --    0.79317   0.79356   0.80762   0.80807   0.82694

 Mulliken charges:
               1
     1  O   -0.504838
     2  H    0.251917
     3  H    0.252921
     4  O   -0.504789
     5  H    0.251692
     6  H    0.253096
 Sum of Mulliken charges =  -0.00000

 Dipole moment (field-independent basis, Debye):
    X=             -0.6301    Y=             -0.1057    Z=              0.0000  Tot=              0.6389
 Quadrupole moment (field-independent basis, Debye-Ang):
   XX=             -8.0172   YY=             11.1996   ZZ=            -14.7106
   XY=             -1.3262   XZ=              0.0000   YZ=              0.0000

 Normal termination of Gaussian 16 at Sat Aug 27 05:08:04 2022.
