 Gaussian 16, Revision A.03,
 Gaussian 16:  ES64L-G16RevA.03 25-Dec-2016

 ------------------
 #p CCSD(T)/cc-pVTZ
 ------------------

 ------------
 H2O_H2O_3093
 ------------
 Symbolic Z-matrix:
 Charge =  0 Multiplicity = 1

                         Standard orientation:
 ---------------------------------------------------------------------
 Center     Atomic      Atomic             Coordinates (Angstroms)
 Number     Number       Type             X           Y           Z
 ---------------------------------------------------------------------
      1          8           0        0.052831   -2.400806    0.000000
      2          1           0       -0.747803   -2.970446    0.000000
      3          1           0        0.851336   -2.973428    0.000000
      4          8           0        0.052831    2.471123    0.000000
      5          1           0       -0.167057    3.428806    0.000000
      6          1           0       -0.781777    1.952535    0.000000
 ---------------------------------------------------------------------

 SCF Done:  E(RHF) =  -152.107306915     A.U. after   10 cycles
 E2 =    -0.5259582938D+00 EUMP2 =    -0.15263326520871D+03
 CCSD(T)
 CCSD(T)= -0.15266048076D+03

 The electronic state is 1-A'.
 Alpha  occ. eigenvalues --  -20.55533 -20.54813  -1.32827  -1.32107  -0.70235
 Alpha  occ. eigenvalues --   -0.69497  -0.56267  -0.55545  -0.49938  -0.49222
 Alpha virt. eigenvalues --    0.13734   0.15132   0.20143   0.21120   0.54220
 Alpha virt. eigenvalues --    0.54948   0.57246   0.57874   0.66931   0.70202
 Alpha virt. eigenvalues --    0.78946   0.79644   0.80177   0.80867   0.82795

 Mulliken charges:
               1
     1  O   -0.507799
     2  H    0.251550
     3  H    0.256470
     4  O   -0.507504
     5  H    0.249323
     6  H    0.257960
 Sum of Mulliken charges =  -0.00000

 Dipole moment (field-independent basis, Debye):
    X=             -1.8047    Y=             -1.2486    Z=              0.0000  Tot=              2.1945
 Quadrupole moment (field-independent basis, Debye-Ang):
   XX=             -9.5590   YY=              3.1021   ZZ=            -14.7125
   XY=             -3.9512   XZ=              0.0000   YZ=              0.0000

 Normal termination of Gaussian 16 at Fri Aug 26 19:21:53 2022.
