 Gaussian 16, Revision A.03,
 Gaussian 16:  ES64L-G16RevA.03 25-Dec-2016

 ------------------
 #p CCSD(T)/cc-pVTZ
 ------------------

 -----------
 H2O_H2O_531
 -----------
 Symbolic Z-matrix:
 Charge =  0 Multiplicity = 1

                         Standard orientation:
 ---------------------------------------------------------------------
 Center     Atomic      Atomic             Coordinates (Angstroms)
 Number     Number       Type             X           Y           Z
 ---------------------------------------------------------------------
      1          8           0        0.021864   -1.078131    0.000000
      2          1           0       -0.778699   -1.647872    0.000000
      3          1           0        0.820441   -1.650652    0.000000
      4          8           0        0.021864    1.086750    0.000000
      5          1           0        0.543457    1.919484    0.000000
      6          1           0       -0.935019    1.310088    0.000000
 ---------------------------------------------------------------------

 SCF Done:  E(RHF) =  -152.073280947     A.U. after   11 cycles
 E2 =    -0.5323366840D+00 EUMP2 =    -0.15260561763097D+03
 CCSD(T)
 CCSD(T)= -0.15263270091D+03

 The electronic state is 1-A'.
 Alpha  occ. eigenvalues --  -20.52568 -20.52295  -1.31525  -1.29211  -0.68530
 Alpha  occ. eigenvalues --   -0.67092  -0.58991  -0.48811  -0.46761  -0.45793
 Alpha virt. eigenvalues --    0.14531   0.17965   0.20473   0.22851   0.51257
 Alpha virt. eigenvalues --    0.58788   0.58850   0.64528   0.70520   0.77027
 Alpha virt. eigenvalues --    0.77932   0.81866   0.84133   0.86496   0.87312

 Mulliken charges:
               1
     1  O   -0.449199
     2  H    0.217516
     3  H    0.229807
     4  O   -0.432886
     5  H    0.202050
     6  H    0.232711
 Sum of Mulliken charges =  -0.00000

 Dipole moment (field-independent basis, Debye):
    X=             -0.6542    Y=             -0.1742    Z=              0.0000  Tot=              0.6770
 Quadrupole moment (field-independent basis, Debye-Ang):
   XX=             -8.3542   YY=             -4.7124   ZZ=            -14.7394
   XY=             -0.2682   XZ=              0.0000   YZ=              0.0000

 Normal termination of Gaussian 16 at Fri Aug 26 17:23:27 2022.
