 Gaussian 16, Revision A.03,
 Gaussian 16:  ES64L-G16RevA.03 25-Dec-2016

 ------------------
 #p CCSD(T)/cc-pVTZ
 ------------------

 -----------
 H2O_H2O_954
 -----------
 Symbolic Z-matrix:
 Charge =  0 Multiplicity = 1

                         Standard orientation:
 ---------------------------------------------------------------------
 Center     Atomic      Atomic             Coordinates (Angstroms)
 Number     Number       Type             X           Y           Z
 ---------------------------------------------------------------------
      1          8           0        0.014784   -1.306745    0.000000
      2          1           0       -0.785342   -1.877099    0.000000
      3          1           0        0.813799   -1.878654    0.000000
      4          8           0        0.014784    1.310608    0.000000
      5          1           0        0.640028    2.068616    0.000000
      6          1           0       -0.905027    1.656230    0.000000
 ---------------------------------------------------------------------

 SCF Done:  E(RHF) =  -152.095906165     A.U. after   11 cycles
 E2 =    -0.5285973324D+00 EUMP2 =    -0.15262450349772D+03
 CCSD(T)
 CCSD(T)= -0.15265181221D+03

 The electronic state is 1-A'.
 Alpha  occ. eigenvalues --  -20.53383 -20.53275  -1.31086  -1.30419  -0.68424
 Alpha  occ. eigenvalues --   -0.67954  -0.56505  -0.51032  -0.48359  -0.47240
 Alpha virt. eigenvalues --    0.14441   0.17277   0.20550   0.22277   0.50939
 Alpha virt. eigenvalues --    0.58664   0.58833   0.62102   0.72051   0.76634
 Alpha virt. eigenvalues --    0.76754   0.78894   0.81757   0.83725   0.86353

 Mulliken charges:
               1
     1  O   -0.464446
     2  H    0.228731
     3  H    0.235237
     4  O   -0.460279
     5  H    0.226740
     6  H    0.234017
 Sum of Mulliken charges =  -0.00000

 Dipole moment (field-independent basis, Debye):
    X=             -0.4692    Y=             -0.0741    Z=              0.0000  Tot=              0.4750
 Quadrupole moment (field-independent basis, Debye-Ang):
   XX=             -8.0888   YY=             -2.2869   ZZ=            -14.7197
   XY=             -0.2508   XZ=              0.0000   YZ=              0.0000

 Normal termination of Gaussian 16 at Fri Aug 26 21:29:08 2022.
