 Gaussian 16, Revision A.03,
 Gaussian 16:  ES64L-G16RevA.03 25-Dec-2016

 ------------------
 #p CCSD(T)/cc-pVTZ
 ------------------

 -----------
 H2O_H2O_405
 -----------
 Symbolic Z-matrix:
 Charge =  0 Multiplicity = 1

                         Standard orientation:
 ---------------------------------------------------------------------
 Center     Atomic      Atomic             Coordinates (Angstroms)
 Number     Number       Type             X           Y           Z
 ---------------------------------------------------------------------
      1          8           0        0.018363   -1.013071    0.000000
      2          1           0       -0.782095   -1.582959    0.000000
      3          1           0        0.817045   -1.585446    0.000000
      4          8           0        0.018363    1.019076    0.000000
      5          1           0        0.593157    1.816019    0.000000
      6          1           0       -0.921916    1.304347    0.000000
 ---------------------------------------------------------------------

 SCF Done:  E(RHF) =  -152.055991367     A.U. after   11 cycles
 E2 =    -0.5346335389D+00 EUMP2 =    -0.15259062490586D+03
 CCSD(T)
 CCSD(T)= -0.15261749525D+03

 The electronic state is 1-A'.
 Alpha  occ. eigenvalues --  -20.52090 -20.51903  -1.31927  -1.28659  -0.68653
 Alpha  occ. eigenvalues --   -0.66718  -0.60411  -0.49149  -0.45136  -0.44413
 Alpha virt. eigenvalues --    0.14596   0.18275   0.20435   0.22926   0.51031
 Alpha virt. eigenvalues --    0.58864   0.58985   0.65539   0.69917   0.77683
 Alpha virt. eigenvalues --    0.78645   0.82672   0.84231   0.86560   0.87475

 Mulliken charges:
               1
     1  O   -0.436608
     2  H    0.211897
     3  H    0.223224
     4  O   -0.421916
     5  H    0.194791
     6  H    0.228613
 Sum of Mulliken charges =  -0.00000

 Dipole moment (field-independent basis, Debye):
    X=             -0.5383    Y=             -0.1261    Z=              0.0000  Tot=              0.5529
 Quadrupole moment (field-independent basis, Debye-Ang):
   XX=             -8.3266   YY=             -5.5437   ZZ=            -14.7458
   XY=             -0.1927   XZ=              0.0000   YZ=              0.0000

 Normal termination of Gaussian 16 at Fri Aug 26 16:09:27 2022.
