 Gaussian 16, Revision A.03,
 Gaussian 16:  ES64L-G16RevA.03 25-Dec-2016

 ------------------
 #p CCSD(T)/cc-pVTZ
 ------------------

 ------------
 H2O_H2O_3442
 ------------
 Symbolic Z-matrix:
 Charge =  0 Multiplicity = 1

                         Standard orientation:
 ---------------------------------------------------------------------
 Center     Atomic      Atomic             Coordinates (Angstroms)
 Number     Number       Type             X           Y           Z
 ---------------------------------------------------------------------
      1          8           0        0.051277   -2.590634    0.000000
      2          1           0       -0.749253   -3.160420    0.000000
      3          1           0        0.849886   -3.163109    0.000000
      4          8           0        0.051277    2.654167    0.000000
      5          1           0       -0.105683    3.624151    0.000000
      6          1           0       -0.815377    2.191115    0.000000
 ---------------------------------------------------------------------

 SCF Done:  E(RHF) =  -152.107213975     A.U. after   10 cycles
 E2 =    -0.5259299592D+00 EUMP2 =    -0.15263314393453D+03
 CCSD(T)
 CCSD(T)= -0.15266036544D+03

 The electronic state is 1-A'.
 Alpha  occ. eigenvalues --  -20.55484 -20.54935  -1.32781  -1.32230  -0.70188
 Alpha  occ. eigenvalues --   -0.69625  -0.56218  -0.55666  -0.49890  -0.49342
 Alpha virt. eigenvalues --    0.13976   0.14871   0.20206   0.20887   0.54336
 Alpha virt. eigenvalues --    0.54931   0.57277   0.57798   0.67466   0.69186
 Alpha virt. eigenvalues --    0.78991   0.79527   0.80382   0.80849   0.82653

 Mulliken charges:
               1
     1  O   -0.507701
     2  H    0.251922
     3  H    0.255830
     4  O   -0.507253
     5  H    0.250222
     6  H    0.256979
 Sum of Mulliken charges =  -0.00000

 Dipole moment (field-independent basis, Debye):
    X=             -1.7557    Y=             -1.1204    Z=              0.0000  Tot=              2.0828
 Quadrupole moment (field-independent basis, Debye-Ang):
   XX=             -9.4576   YY=              4.6703   ZZ=            -14.7120
   XY=             -4.0493   XZ=              0.0000   YZ=              0.0000

 Normal termination of Gaussian 16 at Fri Aug 26 22:22:15 2022.
