 Gaussian 16, Revision A.03,
 Gaussian 16:  ES64L-G16RevA.03 25-Dec-2016

 ------------------
 #p CCSD(T)/cc-pVTZ
 ------------------

 -----------
 H2O_H2O_903
 -----------
 Symbolic Z-matrix:
 Charge =  0 Multiplicity = 1

                         Standard orientation:
 ---------------------------------------------------------------------
 Center     Atomic      Atomic             Coordinates (Angstroms)
 Number     Number       Type             X           Y           Z
 ---------------------------------------------------------------------
      1          8           0        0.011143   -1.281068    0.000000
      2          1           0       -0.788855   -1.851602    0.000000
      3          1           0        0.810287   -1.852798    0.000000
      4          8           0        0.011143    1.283246    0.000000
      5          1           0        0.684464    1.998890    0.000000
      6          1           0       -0.884184    1.688086    0.000000
 ---------------------------------------------------------------------

 SCF Done:  E(RHF) =  -152.094339179     A.U. after   11 cycles
 E2 =    -0.5288525647D+00 EUMP2 =    -0.15262319174368D+03
 CCSD(T)
 CCSD(T)= -0.15265049997D+03

 The electronic state is 1-A'.
 Alpha  occ. eigenvalues --  -20.53239 -20.53177  -1.31045  -1.30290  -0.68360
 Alpha  occ. eigenvalues --   -0.67843  -0.56710  -0.50591  -0.48329  -0.47082
 Alpha virt. eigenvalues --    0.14473   0.17378   0.20563   0.22298   0.50676
 Alpha virt. eigenvalues --    0.58735   0.58862   0.62591   0.72701   0.76712
 Alpha virt. eigenvalues --    0.76751   0.79120   0.82667   0.83851   0.86429

 Mulliken charges:
               1
     1  O   -0.462164
     2  H    0.228364
     3  H    0.233445
     4  O   -0.459457
     5  H    0.226961
     6  H    0.232852
 Sum of Mulliken charges =  -0.00000

 Dipole moment (field-independent basis, Debye):
    X=             -0.3518    Y=             -0.0419    Z=              0.0000  Tot=              0.3543
 Quadrupole moment (field-independent basis, Debye-Ang):
   XX=             -8.0428   YY=             -2.5352   ZZ=            -14.7218
   XY=             -0.1748   XZ=              0.0000   YZ=              0.0000

 Normal termination of Gaussian 16 at Fri Aug 26 21:04:00 2022.
