 Gaussian 16, Revision A.03,
 Gaussian 16:  ES64L-G16RevA.03 25-Dec-2016

 ------------------
 #p CCSD(T)/cc-pVTZ
 ------------------

 -----------
 H2O_H2O_786
 -----------
 Symbolic Z-matrix:
 Charge =  0 Multiplicity = 1

                         Standard orientation:
 ---------------------------------------------------------------------
 Center     Atomic      Atomic             Coordinates (Angstroms)
 Number     Number       Type             X           Y           Z
 ---------------------------------------------------------------------
      1          8           0        0.037695   -1.200484    0.000000
      2          1           0       -0.763397   -1.769480    0.000000
      3          1           0        0.835739   -1.773748    0.000000
      4          8           0        0.037695    1.228629    0.000000
      5          1           0        0.264823    2.184620    0.000000
      6          1           0       -0.940286    1.133445    0.000000
 ---------------------------------------------------------------------

 SCF Done:  E(RHF) =  -152.093136963     A.U. after   11 cycles
 E2 =    -0.5296694811D+00 EUMP2 =    -0.15262280644391D+03
 CCSD(T)
 CCSD(T)= -0.15265002525D+03

 The electronic state is 1-A'.
 Alpha  occ. eigenvalues --  -20.53834 -20.52914  -1.31684  -1.30080  -0.69009
 Alpha  occ. eigenvalues --   -0.67794  -0.56927  -0.50662  -0.48922  -0.46916
 Alpha virt. eigenvalues --    0.14193   0.17459   0.20314   0.23044   0.52887
 Alpha virt. eigenvalues --    0.58151   0.58255   0.61441   0.70595   0.76014
 Alpha virt. eigenvalues --    0.77413   0.79719   0.83572   0.85864   0.87095

 Mulliken charges:
               1
     1  O   -0.466776
     2  H    0.225106
     3  H    0.241881
     4  O   -0.450312
     5  H    0.209460
     6  H    0.240641
 Sum of Mulliken charges =  -0.00000

 Dipole moment (field-independent basis, Debye):
    X=             -1.1684    Y=             -0.5509    Z=              0.0000  Tot=              1.2918
 Quadrupole moment (field-independent basis, Debye-Ang):
   XX=             -8.8342   YY=             -3.4540   ZZ=            -14.7258
   XY=             -0.8051   XZ=              0.0000   YZ=              0.0000

 Normal termination of Gaussian 16 at Fri Aug 26 19:58:45 2022.
