 Gaussian 16, Revision A.03,
 Gaussian 16:  ES64L-G16RevA.03 25-Dec-2016

 ------------------
 #p CCSD(T)/cc-pVTZ
 ------------------

 ------------
 H2O_H2O_1128
 ------------
 Symbolic Z-matrix:
 Charge =  0 Multiplicity = 1

                         Standard orientation:
 ---------------------------------------------------------------------
 Center     Atomic      Atomic             Coordinates (Angstroms)
 Number     Number       Type             X           Y           Z
 ---------------------------------------------------------------------
      1          8           0        0.011143   -1.400731    0.000000
      2          1           0       -0.788819   -1.971316    0.000000
      3          1           0        0.810323   -1.972410    0.000000
      4          8           0        0.011143    1.402911    0.000000
      5          1           0        0.684418    2.118596    0.000000
      6          1           0       -0.884210    1.807692    0.000000
 ---------------------------------------------------------------------

 SCF Done:  E(RHF) =  -152.099146451     A.U. after   11 cycles
 E2 =    -0.5279008749D+00 EUMP2 =    -0.15262704732618D+03
 CCSD(T)
 CCSD(T)= -0.15265435976D+03

 The electronic state is 1-A'.
 Alpha  occ. eigenvalues --  -20.53621 -20.53564  -1.31144  -1.30745  -0.68527
 Alpha  occ. eigenvalues --   -0.68236  -0.55983  -0.52074  -0.48380  -0.47637
 Alpha virt. eigenvalues --    0.14420   0.17005   0.20555   0.22065   0.51165
 Alpha virt. eigenvalues --    0.58501   0.58753   0.61063   0.69739   0.76400
 Alpha virt. eigenvalues --    0.77175   0.78334   0.79314   0.83290   0.86247

 Mulliken charges:
               1
     1  O   -0.468005
     2  H    0.231728
     3  H    0.236174
     4  O   -0.466346
     5  H    0.231255
     6  H    0.235194
 Sum of Mulliken charges =  -0.00000

 Dipole moment (field-independent basis, Debye):
    X=             -0.3596    Y=             -0.0414    Z=              0.0000  Tot=              0.3620
 Quadrupole moment (field-independent basis, Debye-Ang):
   XX=             -8.0008   YY=             -1.3782   ZZ=            -14.7139
   XY=             -0.2151   XZ=              0.0000   YZ=              0.0000

 Normal termination of Gaussian 16 at Sat Aug 27 02:20:53 2022.
