 Gaussian 16, Revision A.03,
 Gaussian 16:  ES64L-G16RevA.03 25-Dec-2016

 ------------------
 #p CCSD(T)/cc-pVTZ
 ------------------

 ------------
 H2O_H2O_2504
 ------------
 Symbolic Z-matrix:
 Charge =  0 Multiplicity = 1

                         Standard orientation:
 ---------------------------------------------------------------------
 Center     Atomic      Atomic             Coordinates (Angstroms)
 Number     Number       Type             X           Y           Z
 ---------------------------------------------------------------------
      1          8           0        0.014783   -2.131086    0.000000
      2          1           0       -0.785128   -2.701740    0.000000
      3          1           0        0.814013   -2.702694    0.000000
      4          8           0        0.014783    2.134960    0.000000
      5          1           0        0.639743    2.893203    0.000000
      6          1           0       -0.905158    2.480235    0.000000
 ---------------------------------------------------------------------

 SCF Done:  E(RHF) =  -152.105547620     A.U. after   10 cycles
 E2 =    -0.5261726099D+00 EUMP2 =    -0.15263172023035D+03
 CCSD(T)
 CCSD(T)= -0.15265896839D+03

 The electronic state is 1-A'.
 Alpha  occ. eigenvalues --  -20.54721 -20.54671  -1.32009  -1.31958  -0.69423
 Alpha  occ. eigenvalues --   -0.69370  -0.55433  -0.55230  -0.49110  -0.49055
 Alpha virt. eigenvalues --    0.14242   0.15377   0.20609   0.20997   0.54585
 Alpha virt. eigenvalues --    0.55676   0.57837   0.58031   0.64201   0.73273
 Alpha virt. eigenvalues --    0.79595   0.79979   0.81093   0.81263   0.82012

 Mulliken charges:
               1
     1  O   -0.497451
     2  H    0.247745
     3  H    0.249730
     4  O   -0.497320
     5  H    0.247431
     6  H    0.249865
 Sum of Mulliken charges =  -0.00000

 Dipole moment (field-independent basis, Debye):
    X=             -0.5016    Y=             -0.0694    Z=              0.0000  Tot=              0.5064
 Quadrupole moment (field-independent basis, Debye-Ang):
   XX=             -7.9639   YY=              4.7934   ZZ=            -14.7096
   XY=             -0.6465   XZ=              0.0000   YZ=              0.0000

 Normal termination of Gaussian 16 at Fri Aug 26 13:04:02 2022.
