 Gaussian 16, Revision A.03,
 Gaussian 16:  ES64L-G16RevA.03 25-Dec-2016

 ------------------
 #p CCSD(T)/cc-pVTZ
 ------------------

 ------------
 H2O_H2O_3973
 ------------
 Symbolic Z-matrix:
 Charge =  0 Multiplicity = 1

                         Standard orientation:
 ---------------------------------------------------------------------
 Center     Atomic      Atomic             Coordinates (Angstroms)
 Number     Number       Type             X           Y           Z
 ---------------------------------------------------------------------
      1          8           0        0.057081   -2.846480    0.000000
      2          1           0       -0.743455   -3.416259    0.000000
      3          1           0        0.855685   -3.418964    0.000000
      4          8           0        0.057081    2.953043    0.000000
      5          1           0       -0.459120    3.789131    0.000000
      6          1           0       -0.566409    2.193591    0.000000
 ---------------------------------------------------------------------

 SCF Done:  E(RHF) =  -152.107726711     A.U. after   10 cycles
 E2 =    -0.5258644128D+00 EUMP2 =    -0.15263359112427D+03
 CCSD(T)
 CCSD(T)= -0.15266080336D+03

 The electronic state is 1-A'.
 Alpha  occ. eigenvalues --  -20.55774 -20.55035  -1.33074  -1.32335  -0.70480
 Alpha  occ. eigenvalues --   -0.69731  -0.56536  -0.55789  -0.50188  -0.49451
 Alpha virt. eigenvalues --    0.13835   0.14724   0.20012   0.20835   0.54072
 Alpha virt. eigenvalues --    0.54827   0.57024   0.57744   0.67443   0.68582
 Alpha virt. eigenvalues --    0.78694   0.79416   0.80112   0.80703   0.82348

 Mulliken charges:
               1
     1  O   -0.510771
     2  H    0.253878
     3  H    0.256918
     4  O   -0.510245
     5  H    0.251819
     6  H    0.258401
 Sum of Mulliken charges =  -0.00000

 Dipole moment (field-independent basis, Debye):
    X=             -1.9595    Y=             -1.8700    Z=              0.0000  Tot=              2.7086
 Quadrupole moment (field-independent basis, Debye-Ang):
   XX=             -9.8544   YY=              2.2451   ZZ=            -14.7129
   XY=             -5.8179   XZ=              0.0000   YZ=              0.0000

 Normal termination of Gaussian 16 at Sat Aug 27 04:40:02 2022.
