 Gaussian 16, Revision A.03,
 Gaussian 16:  ES64L-G16RevA.03 25-Dec-2016

 ------------------
 #p CCSD(T)/cc-pVTZ
 ------------------

 ------------
 H2O_H2O_3769
 ------------
 Symbolic Z-matrix:
 Charge =  0 Multiplicity = 1

                         Standard orientation:
 ---------------------------------------------------------------------
 Center     Atomic      Atomic             Coordinates (Angstroms)
 Number     Number       Type             X           Y           Z
 ---------------------------------------------------------------------
      1          8           0        0.054147   -2.755988    0.000000
      2          1           0       -0.746375   -3.325788    0.000000
      3          1           0        0.852765   -3.328451    0.000000
      4          8           0        0.054147    2.833317    0.000000
      5          1           0       -0.228095    3.774512    0.000000
      6          1           0       -0.744644    2.261093    0.000000
 ---------------------------------------------------------------------

 SCF Done:  E(RHF) =  -152.107416436     A.U. after   10 cycles
 E2 =    -0.5258974768D+00 EUMP2 =    -0.15263331391316D+03
 CCSD(T)
 CCSD(T)= -0.15266053235D+03

 The electronic state is 1-A'.
 Alpha  occ. eigenvalues --  -20.55593 -20.55010  -1.32891  -1.32307  -0.70298
 Alpha  occ. eigenvalues --   -0.69702  -0.56339  -0.55751  -0.50003  -0.49421
 Alpha virt. eigenvalues --    0.13973   0.14743   0.20143   0.20813   0.54250
 Alpha virt. eigenvalues --    0.54864   0.57181   0.57751   0.67603   0.68720
 Alpha virt. eigenvalues --    0.78878   0.79449   0.80298   0.80795   0.82460

 Mulliken charges:
               1
     1  O   -0.508945
     2  H    0.252790
     3  H    0.256179
     4  O   -0.508508
     5  H    0.251086
     6  H    0.257399
 Sum of Mulliken charges =  -0.00000

 Dipole moment (field-independent basis, Debye):
    X=             -1.8571    Y=             -1.3589    Z=              0.0000  Tot=              2.3012
 Quadrupole moment (field-independent basis, Debye-Ang):
   XX=             -9.6481   YY=              4.4923   ZZ=            -14.7123
   XY=             -4.8276   XZ=              0.0000   YZ=              0.0000

 Normal termination of Gaussian 16 at Sat Aug 27 03:10:04 2022.
