 Gaussian 16, Revision A.03,
 Gaussian 16:  ES64L-G16RevA.03 25-Dec-2016

 ------------------
 #p CCSD(T)/cc-pVTZ
 ------------------

 ------------
 H2O_H2O_4401
 ------------
 Symbolic Z-matrix:
 Charge =  0 Multiplicity = 1

                         Standard orientation:
 ---------------------------------------------------------------------
 Center     Atomic      Atomic             Coordinates (Angstroms)
 Number     Number       Type             X           Y           Z
 ---------------------------------------------------------------------
      1          8           0        0.003735   -3.143547    0.000000
      2          1           0       -0.795894   -3.714597    0.000000
      3          1           0        0.803248   -3.714760    0.000000
      4          8           0        0.003735    3.143790    0.000000
      5          1           0        0.764305    3.765917    0.000000
      6          1           0       -0.831425    3.661491    0.000000
 ---------------------------------------------------------------------

 SCF Done:  E(RHF) =  -152.106805516     A.U. after   10 cycles
 E2 =    -0.5259316974D+00 EUMP2 =    -0.15263273721296D+03
 CCSD(T)
 CCSD(T)= -0.15265997017D+03

 The electronic state is 1-A'.
 Alpha  occ. eigenvalues --  -20.55184 -20.55183  -1.32480  -1.32478  -0.69887
 Alpha  occ. eigenvalues --   -0.69885  -0.55899  -0.55898  -0.49587  -0.49585
 Alpha virt. eigenvalues --    0.14431   0.14457   0.20482   0.20494   0.54680
 Alpha virt. eigenvalues --    0.54687   0.57545   0.57551   0.68308   0.68368
 Alpha virt. eigenvalues --    0.79292   0.79293   0.80736   0.80738   0.82664

 Mulliken charges:
               1
     1  O   -0.505310
     2  H    0.252569
     3  H    0.252741
     4  O   -0.505309
     5  H    0.252535
     6  H    0.252774
 Sum of Mulliken charges =  -0.00000

 Dipole moment (field-independent basis, Debye):
    X=             -0.1283    Y=             -0.0043    Z=              0.0000  Tot=              0.1284
 Quadrupole moment (field-independent basis, Debye-Ang):
   XX=             -7.8119   YY=             13.0965   ZZ=            -14.7106
   XY=             -0.2867   XZ=              0.0000   YZ=              0.0000

 Normal termination of Gaussian 16 at Sat Aug 27 07:07:10 2022.
