 Gaussian 16, Revision A.03,
 Gaussian 16:  ES64L-G16RevA.03 25-Dec-2016

 ------------------
 #p CCSD(T)/cc-pVTZ
 ------------------

 ------------
 H2O_H2O_4735
 ------------
 Symbolic Z-matrix:
 Charge =  0 Multiplicity = 1

                         Standard orientation:
 ---------------------------------------------------------------------
 Center     Atomic      Atomic             Coordinates (Angstroms)
 Number     Number       Type             X           Y           Z
 ---------------------------------------------------------------------
      1          8           0        0.034779   -3.303740    0.000000
      2          1           0       -0.765307   -3.874150    0.000000
      3          1           0        0.833834   -3.875594    0.000000
      4          8           0        0.034779    3.327282    0.000000
      5          1           0        0.322287    4.266880    0.000000
      6          1           0       -0.947277    3.294530    0.000000
 ---------------------------------------------------------------------

 SCF Done:  E(RHF) =  -152.107062213     A.U. after   10 cycles
 E2 =    -0.5259062957D+00 EUMP2 =    -0.15263296850853D+03
 CCSD(T)
 CCSD(T)= -0.15266019619D+03

 The electronic state is 1-A'.
 Alpha  occ. eigenvalues --  -20.55345 -20.55222  -1.32642  -1.32518  -0.70049
 Alpha  occ. eigenvalues --   -0.69923  -0.56073  -0.55950  -0.49751  -0.49628
 Alpha virt. eigenvalues --    0.14303   0.14427   0.20360   0.20489   0.54518
 Alpha virt. eigenvalues --    0.54650   0.57405   0.57529   0.68142   0.68269
 Alpha virt. eigenvalues --    0.79128   0.79250   0.80567   0.80701   0.82492

 Mulliken charges:
               1
     1  O   -0.506831
     2  H    0.252730
     3  H    0.254101
     4  O   -0.506737
     5  H    0.252316
     6  H    0.254420
 Sum of Mulliken charges =  -0.00000

 Dipole moment (field-independent basis, Debye):
    X=             -1.1959    Y=             -0.4104    Z=              0.0000  Tot=              1.2643
 Quadrupole moment (field-independent basis, Debye-Ang):
   XX=             -8.5634   YY=             12.4859   ZZ=            -14.7112
   XY=             -3.1288   XZ=              0.0000   YZ=              0.0000

 Normal termination of Gaussian 16 at Sat Aug 27 09:03:04 2022.
