 Gaussian 16, Revision A.03,
 Gaussian 16:  ES64L-G16RevA.03 25-Dec-2016

 ------------------
 #p CCSD(T)/cc-pVTZ
 ------------------

 -----------
 H2O_H2O_696
 -----------
 Symbolic Z-matrix:
 Charge =  0 Multiplicity = 1

                         Standard orientation:
 ---------------------------------------------------------------------
 Center     Atomic      Atomic             Coordinates (Angstroms)
 Number     Number       Type             X           Y           Z
 ---------------------------------------------------------------------
      1          8           0        0.056207   -1.112904    0.000000
      2          1           0       -0.745734   -1.680703    0.000000
      3          1           0        0.853394   -1.687358    0.000000
      4          8           0        0.056207    1.204378    0.000000
      5          1           0       -0.344231    2.101683    0.000000
      6          1           0       -0.662734    0.534580    0.000000
 ---------------------------------------------------------------------

 SCF Done:  E(RHF) =  -152.091207438     A.U. after   11 cycles
 E2 =    -0.5317914044D+00 EUMP2 =    -0.15262299884215D+03
 CCSD(T)
 CCSD(T)= -0.15264985281D+03

 The electronic state is 1-A'.
 Alpha  occ. eigenvalues --  -20.56182 -20.51569  -1.34456  -1.29032  -0.71820
 Alpha  occ. eigenvalues --   -0.68668  -0.55179  -0.52505  -0.51363  -0.46045
 Alpha virt. eigenvalues --    0.13198   0.18367   0.19463   0.25860   0.50853
 Alpha virt. eigenvalues --    0.56133   0.60834   0.62404   0.71733   0.73911
 Alpha virt. eigenvalues --    0.77340   0.82566   0.83787   0.84135   0.87167

 Mulliken charges:
               1
     1  O   -0.443572
     2  H    0.224054
     3  H    0.246332
     4  O   -0.494795
     5  H    0.208373
     6  H    0.259608
 Sum of Mulliken charges =  -0.00000

 Dipole moment (field-independent basis, Debye):
    X=             -1.7191    Y=             -1.9631    Z=              0.0000  Tot=              2.6094
 Quadrupole moment (field-independent basis, Debye-Ang):
   XX=             -9.8017   YY=             -5.3634   ZZ=            -14.7070
   XY=             -2.1950   XZ=              0.0000   YZ=              0.0000

 Normal termination of Gaussian 16 at Fri Aug 26 19:10:42 2022.
