 Gaussian 16, Revision A.03,
 Gaussian 16:  ES64L-G16RevA.03 25-Dec-2016

 ------------------
 #p CCSD(T)/cc-pVTZ
 ------------------

 ------------
 H2O_H2O_1578
 ------------
 Symbolic Z-matrix:
 Charge =  0 Multiplicity = 1

                         Standard orientation:
 ---------------------------------------------------------------------
 Center     Atomic      Atomic             Coordinates (Angstroms)
 Number     Number       Type             X           Y           Z
 ---------------------------------------------------------------------
      1          8           0        0.011143   -1.640056    0.000000
      2          1           0       -0.788762   -2.210721    0.000000
      3          1           0        0.810380   -2.211655    0.000000
      4          8           0        0.011143    1.642238    0.000000
      5          1           0        0.684346    2.357991    0.000000
      6          1           0       -0.884251    2.046931    0.000000
 ---------------------------------------------------------------------

 SCF Done:  E(RHF) =  -152.103182524     A.U. after   10 cycles
 E2 =    -0.5269232160D+00 EUMP2 =    -0.15263010573965D+03
 CCSD(T)
 CCSD(T)= -0.15265737561D+03

 The electronic state is 1-A'.
 Alpha  occ. eigenvalues --  -20.54146 -20.54099  -1.31465  -1.31347  -0.68886
 Alpha  occ. eigenvalues --   -0.68784  -0.55400  -0.53828  -0.48625  -0.48362
 Alpha virt. eigenvalues --    0.14286   0.16365   0.20575   0.21624   0.52633
 Alpha virt. eigenvalues --    0.58133   0.58302   0.58597   0.62643   0.76196
 Alpha virt. eigenvalues --    0.78515   0.78622   0.79787   0.81865   0.85289

 Mulliken charges:
               1
     1  O   -0.479766
     2  H    0.238458
     3  H    0.241398
     4  O   -0.479576
     5  H    0.238261
     6  H    0.241224
 Sum of Mulliken charges =  -0.00000

 Dipole moment (field-independent basis, Debye):
    X=             -0.3694    Y=             -0.0408    Z=              0.0000  Tot=              0.3716
 Quadrupole moment (field-independent basis, Debye-Ang):
   XX=             -7.9492   YY=              0.7726   ZZ=            -14.7090
   XY=             -0.3000   XZ=              0.0000   YZ=              0.0000

 Normal termination of Gaussian 16 at Sat Aug 27 05:34:39 2022.
