 Gaussian 16, Revision A.03,
 Gaussian 16:  ES64L-G16RevA.03 25-Dec-2016

 ------------------
 #p CCSD(T)/cc-pVTZ
 ------------------

 ------------
 H2O_H2O_4137
 ------------
 Symbolic Z-matrix:
 Charge =  0 Multiplicity = 1

                         Standard orientation:
 ---------------------------------------------------------------------
 Center     Atomic      Atomic             Coordinates (Angstroms)
 Number     Number       Type             X           Y           Z
 ---------------------------------------------------------------------
      1          8           0        0.040405   -2.979305    0.000000
      2          1           0       -0.759829   -3.549509    0.000000
      3          1           0        0.839312   -3.551364    0.000000
      4          8           0        0.040405    3.012667    0.000000
      5          1           0        0.203060    3.981713    0.000000
      6          1           0       -0.929016    2.852261    0.000000
 ---------------------------------------------------------------------

 SCF Done:  E(RHF) =  -152.107003432     A.U. after   10 cycles
 E2 =    -0.5259201390D+00 EUMP2 =    -0.15263292357057D+03
 CCSD(T)
 CCSD(T)= -0.15266015197D+03

 The electronic state is 1-A'.
 Alpha  occ. eigenvalues --  -20.55336 -20.55120  -1.32632  -1.32416  -0.70039
 Alpha  occ. eigenvalues --   -0.69818  -0.56061  -0.55844  -0.49741  -0.49525
 Alpha virt. eigenvalues --    0.14291   0.14538   0.20357   0.20592   0.54525
 Alpha virt. eigenvalues --    0.54761   0.57409   0.57627   0.68114   0.68426
 Alpha virt. eigenvalues --    0.79138   0.79351   0.80577   0.80811   0.82509

 Mulliken charges:
               1
     1  O   -0.506500
     2  H    0.252187
     3  H    0.254314
     4  O   -0.506310
     5  H    0.251496
     6  H    0.254813
 Sum of Mulliken charges =  -0.00000

 Dipole moment (field-independent basis, Debye):
    X=             -1.3872    Y=             -0.5836    Z=              0.0000  Tot=              1.5050
 Quadrupole moment (field-independent basis, Debye-Ang):
   XX=             -8.8309   YY=              9.4152   ZZ=            -14.7112
   XY=             -3.3198   XZ=              0.0000   YZ=              0.0000

 Normal termination of Gaussian 16 at Sat Aug 27 05:35:19 2022.
