 Gaussian 16, Revision A.03,
 Gaussian 16:  ES64L-G16RevA.03 25-Dec-2016

 ------------------
 #p CCSD(T)/cc-pVTZ
 ------------------

 -----------
 H2O_H2O_938
 -----------
 Symbolic Z-matrix:
 Charge =  0 Multiplicity = 1

                         Standard orientation:
 ---------------------------------------------------------------------
 Center     Atomic      Atomic             Coordinates (Angstroms)
 Number     Number       Type             X           Y           Z
 ---------------------------------------------------------------------
      1          8           0        0.042995   -1.274545    0.000000
      2          1           0       -0.758204   -1.843390    0.000000
      3          1           0        0.840931   -1.847959    0.000000
      4          8           0        0.042995    1.313211    0.000000
      5          1           0        0.143582    2.290650    0.000000
      6          1           0       -0.914236    1.091369    0.000000
 ---------------------------------------------------------------------

 SCF Done:  E(RHF) =  -152.098892731     A.U. after   11 cycles
 E2 =    -0.5287612720D+00 EUMP2 =    -0.15262765400324D+03
 CCSD(T)
 CCSD(T)= -0.15265487462D+03

 The electronic state is 1-A'.
 Alpha  occ. eigenvalues --  -20.54400 -20.53152  -1.31964  -1.30374  -0.69357
 Alpha  occ. eigenvalues --   -0.67979  -0.56357  -0.52127  -0.49145  -0.47332
 Alpha virt. eigenvalues --    0.14002   0.17291   0.20208   0.23145   0.53335
 Alpha virt. eigenvalues --    0.57900   0.58184   0.59929   0.70304   0.75910
 Alpha virt. eigenvalues --    0.77197   0.77993   0.83253   0.83763   0.85547

 Mulliken charges:
               1
     1  O   -0.472210
     2  H    0.229137
     3  H    0.245900
     4  O   -0.463578
     5  H    0.216488
     6  H    0.244263
 Sum of Mulliken charges =  -0.00000

 Dipole moment (field-independent basis, Debye):
    X=             -1.3560    Y=             -0.7538    Z=              0.0000  Tot=              1.5514
 Quadrupole moment (field-independent basis, Debye-Ang):
   XX=             -9.0610   YY=             -2.9158   ZZ=            -14.7224
   XY=             -1.1619   XZ=              0.0000   YZ=              0.0000

 Normal termination of Gaussian 16 at Fri Aug 26 21:21:00 2022.
