 Gaussian 16, Revision A.03,
 Gaussian 16:  ES64L-G16RevA.03 25-Dec-2016

 ------------------
 #p CCSD(T)/cc-pVTZ
 ------------------

 ------------
 H2O_H2O_3394
 ------------
 Symbolic Z-matrix:
 Charge =  0 Multiplicity = 1

                         Standard orientation:
 ---------------------------------------------------------------------
 Center     Atomic      Atomic             Coordinates (Angstroms)
 Number     Number       Type             X           Y           Z
 ---------------------------------------------------------------------
      1          8           0        0.054152   -2.556557    0.000000
      2          1           0       -0.746443   -3.126254    0.000000
      3          1           0        0.852697   -3.129122    0.000000
      4          8           0        0.054152    2.633872    0.000000
      5          1           0       -0.227969    3.575102    0.000000
      6          1           0       -0.744712    2.061751    0.000000
 ---------------------------------------------------------------------

 SCF Done:  E(RHF) =  -152.107423084     A.U. after   10 cycles
 E2 =    -0.5259195658D+00 EUMP2 =    -0.15263334264999D+03
 CCSD(T)
 CCSD(T)= -0.15266055865D+03

 The electronic state is 1-A'.
 Alpha  occ. eigenvalues --  -20.55593 -20.54906  -1.32890  -1.32202  -0.70297
 Alpha  occ. eigenvalues --   -0.69594  -0.56337  -0.55645  -0.50001  -0.49316
 Alpha virt. eigenvalues --    0.13828   0.14944   0.20124   0.20976   0.54220
 Alpha virt. eigenvalues --    0.54927   0.57186   0.57817   0.67266   0.69315
 Alpha virt. eigenvalues --    0.78882   0.79550   0.80234   0.80712   0.82711

 Mulliken charges:
               1
     1  O   -0.508821
     2  H    0.252362
     3  H    0.256559
     4  O   -0.508358
     5  H    0.250268
     6  H    0.257989
 Sum of Mulliken charges =  -0.00000

 Dipole moment (field-independent basis, Debye):
    X=             -1.8538    Y=             -1.3657    Z=              0.0000  Tot=              2.3025
 Quadrupole moment (field-independent basis, Debye-Ang):
   XX=             -9.6478   YY=              3.4344   ZZ=            -14.7125
   XY=             -4.4610   XZ=              0.0000   YZ=              0.0000

 Normal termination of Gaussian 16 at Fri Aug 26 21:57:37 2022.
