 Gaussian 16, Revision A.03,
 Gaussian 16:  ES64L-G16RevA.03 25-Dec-2016

 ------------------
 #p CCSD(T)/cc-pVTZ
 ------------------

 ------------
 H2O_H2O_3844
 ------------
 Symbolic Z-matrix:
 Charge =  0 Multiplicity = 1

                         Standard orientation:
 ---------------------------------------------------------------------
 Center     Atomic      Atomic             Coordinates (Angstroms)
 Number     Number       Type             X           Y           Z
 ---------------------------------------------------------------------
      1          8           0        0.054146   -2.795875    0.000000
      2          1           0       -0.746362   -3.365693    0.000000
      3          1           0        0.852778   -3.368319    0.000000
      4          8           0        0.054146    2.873207    0.000000
      5          1           0       -0.228118    3.814394    0.000000
      6          1           0       -0.744631    2.300964    0.000000
 ---------------------------------------------------------------------

 SCF Done:  E(RHF) =  -152.107416754     A.U. after   10 cycles
 E2 =    -0.5258944257D+00 EUMP2 =    -0.15263331117999D+03
 CCSD(T)
 CCSD(T)= -0.15266052988D+03

 The electronic state is 1-A'.
 Alpha  occ. eigenvalues --  -20.55593 -20.55028  -1.32892  -1.32325  -0.70298
 Alpha  occ. eigenvalues --   -0.69721  -0.56340  -0.55769  -0.50003  -0.49439
 Alpha virt. eigenvalues --    0.13993   0.14711   0.20145   0.20788   0.54252
 Alpha virt. eigenvalues --    0.54849   0.57181   0.57737   0.67650   0.68645
 Alpha virt. eigenvalues --    0.78878   0.79431   0.80301   0.80807   0.82410

 Mulliken charges:
               1
     1  O   -0.508954
     2  H    0.252859
     3  H    0.256111
     4  O   -0.508535
     5  H    0.251225
     6  H    0.257293
 Sum of Mulliken charges =   0.00000

 Dipole moment (field-independent basis, Debye):
    X=             -1.8576    Y=             -1.3579    Z=              0.0000  Tot=              2.3010
 Quadrupole moment (field-independent basis, Debye-Ang):
   XX=             -9.6481   YY=              4.7036   ZZ=            -14.7122
   XY=             -4.9011   XZ=              0.0000   YZ=              0.0000

 Normal termination of Gaussian 16 at Sat Aug 27 03:44:18 2022.
