 Gaussian 16, Revision A.03,
 Gaussian 16:  ES64L-G16RevA.03 25-Dec-2016

 ------------------
 #p CCSD(T)/cc-pVTZ
 ------------------

 ------------
 H2O_H2O_2524
 ------------
 Symbolic Z-matrix:
 Charge =  0 Multiplicity = 1

                         Standard orientation:
 ---------------------------------------------------------------------
 Center     Atomic      Atomic             Coordinates (Angstroms)
 Number     Number       Type             X           Y           Z
 ---------------------------------------------------------------------
      1          8           0        0.057245   -2.071298    0.000000
      2          1           0       -0.743643   -2.640581    0.000000
      3          1           0        0.855494   -2.644276    0.000000
      4          8           0        0.057245    2.185260    0.000000
      5          1           0       -0.512038    2.986149    0.000000
      6          1           0       -0.515733    1.387010    0.000000
 ---------------------------------------------------------------------

 SCF Done:  E(RHF) =  -152.108713968     A.U. after   10 cycles
 E2 =    -0.5260536255D+00 EUMP2 =    -0.15263476759383D+03
 CCSD(T)
 CCSD(T)= -0.15266193134D+03

 The electronic state is 1-A'.
 Alpha  occ. eigenvalues --  -20.56105 -20.54447  -1.33383  -1.31751  -0.70788
 Alpha  occ. eigenvalues --   -0.69125  -0.56870  -0.55221  -0.50505  -0.48877
 Alpha virt. eigenvalues --    0.12943   0.15840   0.19800   0.22476   0.53836
 Alpha virt. eigenvalues --    0.54957   0.56818   0.58470   0.66718   0.71943
 Alpha virt. eigenvalues --    0.78366   0.79347   0.79983   0.80595   0.82487

 Mulliken charges:
               1
     1  O   -0.508753
     2  H    0.252292
     3  H    0.259035
     4  O   -0.513730
     5  H    0.248227
     6  H    0.262929
 Sum of Mulliken charges =  -0.00000

 Dipole moment (field-independent basis, Debye):
    X=             -1.9438    Y=             -2.0722    Z=              0.0000  Tot=              2.8412
 Quadrupole moment (field-independent basis, Debye-Ang):
   XX=             -9.8612   YY=             -1.5905   ZZ=            -14.7170
   XY=             -4.4697   XZ=              0.0000   YZ=              0.0000

 Normal termination of Gaussian 16 at Fri Aug 26 13:20:35 2022.
