 Gaussian 16, Revision A.03,
 Gaussian 16:  ES64L-G16RevA.03 25-Dec-2016

 ------------------
 #p CCSD(T)/cc-pVTZ
 ------------------

 ------------
 H2O_H2O_4699
 ------------
 Symbolic Z-matrix:
 Charge =  0 Multiplicity = 1

                         Standard orientation:
 ---------------------------------------------------------------------
 Center     Atomic      Atomic             Coordinates (Angstroms)
 Number     Number       Type             X           Y           Z
 ---------------------------------------------------------------------
      1          8           0        0.057199   -3.227994    0.000000
      2          1           0       -0.743226   -3.797928    0.000000
      3          1           0        0.855914   -3.800322    0.000000
      4          8           0        0.057199    3.342049    0.000000
      5          1           0       -0.512736    4.142474    0.000000
      6          1           0       -0.515129    2.543334    0.000000
 ---------------------------------------------------------------------

 SCF Done:  E(RHF) =  -152.107682645     A.U. after   10 cycles
 E2 =    -0.5258517555D+00 EUMP2 =    -0.15263353440090D+03
 CCSD(T)
 CCSD(T)= -0.15266074891D+03

 The electronic state is 1-A'.
 Alpha  occ. eigenvalues --  -20.55774 -20.55174  -1.33074  -1.32474  -0.70480
 Alpha  occ. eigenvalues --   -0.69874  -0.56534  -0.55928  -0.50188  -0.49589
 Alpha virt. eigenvalues --    0.13917   0.14529   0.20013   0.20652   0.54078
 Alpha virt. eigenvalues --    0.54695   0.57021   0.57620   0.67620   0.68268
 Alpha virt. eigenvalues --    0.78692   0.79282   0.80118   0.80743   0.82053

 Mulliken charges:
               1
     1  O   -0.510513
     2  H    0.254223
     3  H    0.256292
     4  O   -0.510169
     5  H    0.252749
     6  H    0.257419
 Sum of Mulliken charges =  -0.00000

 Dipole moment (field-independent basis, Debye):
    X=             -1.9671    Y=             -1.9907    Z=              0.0000  Tot=              2.7986
 Quadrupole moment (field-independent basis, Debye-Ang):
   XX=             -9.8647   YY=              3.0222   ZZ=            -14.7127
   XY=             -6.7183   XZ=              0.0000   YZ=              0.0000

 Normal termination of Gaussian 16 at Sat Aug 27 08:49:21 2022.
