 Gaussian 16, Revision A.03,
 Gaussian 16:  ES64L-G16RevA.03 25-Dec-2016

 ------------------
 #p CCSD(T)/cc-pVTZ
 ------------------

 ------------
 H2O_H2O_1398
 ------------
 Symbolic Z-matrix:
 Charge =  0 Multiplicity = 1

                         Standard orientation:
 ---------------------------------------------------------------------
 Center     Atomic      Atomic             Coordinates (Angstroms)
 Number     Number       Type             X           Y           Z
 ---------------------------------------------------------------------
      1          8           0        0.057162   -1.477092    0.000000
      2          1           0       -0.744236   -2.045658    0.000000
      3          1           0        0.854898   -2.050784    0.000000
      4          8           0        0.057162    1.583482    0.000000
      5          1           0       -0.457773    2.420350    0.000000
      6          1           0       -0.567477    0.824974    0.000000
 ---------------------------------------------------------------------

 SCF Done:  E(RHF) =  -152.109385960     A.U. after   10 cycles
 E2 =    -0.5273607779D+00 EUMP2 =    -0.15263674673830D+03
 CCSD(T)
 CCSD(T)= -0.15266382273D+03

 The electronic state is 1-A'.
 Alpha  occ. eigenvalues --  -20.56571 -20.53234  -1.33887  -1.30566  -0.71279
 Alpha  occ. eigenvalues --   -0.68109  -0.57249  -0.54069  -0.51002  -0.47698
 Alpha virt. eigenvalues --    0.12971   0.17276   0.19566   0.25557   0.52102
 Alpha virt. eigenvalues --    0.55796   0.56705   0.58712   0.68715   0.74791
 Alpha virt. eigenvalues --    0.75408   0.77443   0.81835   0.81869   0.84045

 Mulliken charges:
               1
     1  O   -0.492510
     2  H    0.245556
     3  H    0.260357
     4  O   -0.516061
     5  H    0.237123
     6  H    0.265535
 Sum of Mulliken charges =  -0.00000

 Dipole moment (field-independent basis, Debye):
    X=             -1.8737    Y=             -2.0986    Z=              0.0000  Tot=              2.8134
 Quadrupole moment (field-independent basis, Debye-Ang):
   XX=             -9.8531   YY=             -3.7324   ZZ=            -14.7267
   XY=             -3.1954   XZ=              0.0000   YZ=              0.0000

 Normal termination of Gaussian 16 at Sat Aug 27 04:30:31 2022.
