 Gaussian 16, Revision A.03,
 Gaussian 16:  ES64L-G16RevA.03 25-Dec-2016

 ------------------
 #p CCSD(T)/cc-pVTZ
 ------------------

 -----------
 H2O_H2O_481
 -----------
 Symbolic Z-matrix:
 Charge =  0 Multiplicity = 1

                         Standard orientation:
 ---------------------------------------------------------------------
 Center     Atomic      Atomic             Coordinates (Angstroms)
 Number     Number       Type             X           Y           Z
 ---------------------------------------------------------------------
      1          8           0        0.021864   -1.051540    0.000000
      2          1           0       -0.778724   -1.621246    0.000000
      3          1           0        0.820416   -1.624096    0.000000
      4          8           0        0.021864    1.060157    0.000000
      5          1           0        0.543494    1.892869    0.000000
      6          1           0       -0.935009    1.283537    0.000000
 ---------------------------------------------------------------------

 SCF Done:  E(RHF) =  -152.067528960     A.U. after   11 cycles
 E2 =    -0.5331441591D+00 EUMP2 =    -0.15260067311938D+03
 CCSD(T)
 CCSD(T)= -0.15262768538D+03

 The electronic state is 1-A'.
 Alpha  occ. eigenvalues --  -20.52423 -20.52150  -1.31680  -1.29009  -0.68601
 Alpha  occ. eigenvalues --   -0.66976  -0.59457  -0.48945  -0.45963  -0.45555
 Alpha virt. eigenvalues --    0.14547   0.18065   0.20452   0.22907   0.51297
 Alpha virt. eigenvalues --    0.58756   0.58865   0.64825   0.70288   0.77226
 Alpha virt. eigenvalues --    0.78178   0.82172   0.84138   0.86497   0.87421

 Mulliken charges:
               1
     1  O   -0.445431
     2  H    0.215396
     3  H    0.228126
     4  O   -0.427830
     5  H    0.197847
     6  H    0.231893
 Sum of Mulliken charges =  -0.00000

 Dipole moment (field-independent basis, Debye):
    X=             -0.6487    Y=             -0.1762    Z=              0.0000  Tot=              0.6722
 Quadrupole moment (field-independent basis, Debye-Ang):
   XX=             -8.3725   YY=             -5.0335   ZZ=            -14.7413
   XY=             -0.2566   XZ=              0.0000   YZ=              0.0000

 Normal termination of Gaussian 16 at Fri Aug 26 16:51:46 2022.
