 Gaussian 16, Revision A.03,
 Gaussian 16:  ES64L-G16RevA.03 25-Dec-2016

 ------------------
 #p CCSD(T)/cc-pVTZ
 ------------------

 ------------
 H2O_H2O_1230
 ------------
 Symbolic Z-matrix:
 Charge =  0 Multiplicity = 1

                         Standard orientation:
 ---------------------------------------------------------------------
 Center     Atomic      Atomic             Coordinates (Angstroms)
 Number     Number       Type             X           Y           Z
 ---------------------------------------------------------------------
      1          8           0        0.018362   -1.451827    0.000000
      2          1           0       -0.781829   -2.022090    0.000000
      3          1           0        0.817312   -2.023828    0.000000
      4          8           0        0.018362    1.457849    0.000000
      5          1           0        0.592782    2.255062    0.000000
      6          1           0       -0.922051    1.742680    0.000000
 ---------------------------------------------------------------------

 SCF Done:  E(RHF) =  -152.100773359     A.U. after   11 cycles
 E2 =    -0.5276082900D+00 EUMP2 =    -0.15262838164893D+03
 CCSD(T)
 CCSD(T)= -0.15265567757D+03

 The electronic state is 1-A'.
 Alpha  occ. eigenvalues --  -20.53856 -20.53705  -1.31272  -1.30930  -0.68676
 Alpha  occ. eigenvalues --   -0.68395  -0.55788  -0.52676  -0.48481  -0.47870
 Alpha virt. eigenvalues --    0.14342   0.16840   0.20530   0.22024   0.51730
 Alpha virt. eigenvalues --    0.58393   0.58680   0.60094   0.67729   0.76497
 Alpha virt. eigenvalues --    0.77422   0.78496   0.79110   0.82968   0.86097

 Mulliken charges:
               1
     1  O   -0.472016
     2  H    0.232684
     3  H    0.239323
     4  O   -0.469024
     5  H    0.231330
     6  H    0.237703
 Sum of Mulliken charges =  -0.00000

 Dipole moment (field-independent basis, Debye):
    X=             -0.5968    Y=             -0.1141    Z=              0.0000  Tot=              0.6076
 Quadrupole moment (field-independent basis, Debye-Ang):
   XX=             -8.1155   YY=             -0.9442   ZZ=            -14.7123
   XY=             -0.4062   XZ=              0.0000   YZ=              0.0000

 Normal termination of Gaussian 16 at Sat Aug 27 03:11:51 2022.
