 Gaussian 16, Revision A.03,
 Gaussian 16:  ES64L-G16RevA.03 25-Dec-2016

 ------------------
 #p CCSD(T)/cc-pVTZ
 ------------------

 ------------
 H2O_H2O_3345
 ------------
 Symbolic Z-matrix:
 Charge =  0 Multiplicity = 1

                         Standard orientation:
 ---------------------------------------------------------------------
 Center     Atomic      Atomic             Coordinates (Angstroms)
 Number     Number       Type             X           Y           Z
 ---------------------------------------------------------------------
      1          8           0        0.055245   -2.526086    0.000000
      2          1           0       -0.745380   -3.095739    0.000000
      3          1           0        0.853759   -3.098696    0.000000
      4          8           0        0.055245    2.610545    0.000000
      5          1           0       -0.287780    3.531326    0.000000
      6          1           0       -0.704523    1.987441    0.000000
 ---------------------------------------------------------------------

 SCF Done:  E(RHF) =  -152.107542493     A.U. after   10 cycles
 E2 =    -0.5259164114D+00 EUMP2 =    -0.15263345890435D+03
 CCSD(T)
 CCSD(T)= -0.15266067142D+03

 The electronic state is 1-A'.
 Alpha  occ. eigenvalues --  -20.55652 -20.54882  -1.32949  -1.32179  -0.70356
 Alpha  occ. eigenvalues --   -0.69570  -0.56401  -0.55625  -0.50062  -0.49294
 Alpha virt. eigenvalues --    0.13733   0.15000   0.20081   0.21042   0.54156
 Alpha virt. eigenvalues --    0.54922   0.57138   0.57831   0.67137   0.69437
 Alpha virt. eigenvalues --    0.78823   0.79570   0.80136   0.80618   0.82743

 Mulliken charges:
               1
     1  O   -0.509398
     2  H    0.252590
     3  H    0.256957
     4  O   -0.508955
     5  H    0.250253
     6  H    0.258553
 Sum of Mulliken charges =  -0.00000

 Dipole moment (field-independent basis, Debye):
    X=             -1.8908    Y=             -1.4938    Z=              0.0000  Tot=              2.4096
 Quadrupole moment (field-independent basis, Debye-Ang):
   XX=             -9.7228   YY=              2.7160   ZZ=            -14.7128
   XY=             -4.6246   XZ=              0.0000   YZ=              0.0000

 Normal termination of Gaussian 16 at Fri Aug 26 21:33:21 2022.
