 Gaussian 16, Revision A.03,
 Gaussian 16:  ES64L-G16RevA.03 25-Dec-2016

 ------------------
 #p CCSD(T)/cc-pVTZ
 ------------------

 ------------
 H2O_H2O_2709
 ------------
 Symbolic Z-matrix:
 Charge =  0 Multiplicity = 1

                         Standard orientation:
 ---------------------------------------------------------------------
 Center     Atomic      Atomic             Coordinates (Angstroms)
 Number     Number       Type             X           Y           Z
 ---------------------------------------------------------------------
      1          8           0        0.031742   -2.229144    0.000000
      2          1           0       -0.768525   -2.799300    0.000000
      3          1           0        0.830616   -2.801251    0.000000
      4          8           0        0.031742    2.248317    0.000000
      5          1           0        0.380378    3.166989    0.000000
      6          1           0       -0.950343    2.280176    0.000000
 ---------------------------------------------------------------------

 SCF Done:  E(RHF) =  -152.106100031     A.U. after   10 cycles
 E2 =    -0.5260884998D+00 EUMP2 =    -0.15263218853042D+03
 CCSD(T)
 CCSD(T)= -0.15265942854D+03

 The electronic state is 1-A'.
 Alpha  occ. eigenvalues --  -20.54962 -20.54736  -1.32253  -1.32024  -0.69665
 Alpha  occ. eigenvalues --   -0.69427  -0.55642  -0.55395  -0.49355  -0.49128
 Alpha virt. eigenvalues --    0.14136   0.15249   0.20484   0.20994   0.54518
 Alpha virt. eigenvalues --    0.55299   0.57695   0.57948   0.65720   0.72040
 Alpha virt. eigenvalues --    0.79479   0.79783   0.80866   0.81277   0.82498

 Mulliken charges:
               1
     1  O   -0.500932
     2  H    0.248622
     3  H    0.252386
     4  O   -0.500536
     5  H    0.247706
     6  H    0.252753
 Sum of Mulliken charges =   0.00000

 Dipole moment (field-independent basis, Debye):
    X=             -1.0799    Y=             -0.3418    Z=              0.0000  Tot=              1.1327
 Quadrupole moment (field-independent basis, Debye-Ang):
   XX=             -8.4496   YY=              4.9258   ZZ=            -14.7103
   XY=             -1.6529   XZ=              0.0000   YZ=              0.0000

 865\MP4DQ=-152.6412944\MP4SDQ=-152.6443641\CCSD=-152.6437714\CCSD(T)=-
 Normal termination of Gaussian 16 at Fri Aug 26 15:19:25 2022.
