 Gaussian 16, Revision A.03,
 Gaussian 16:  ES64L-G16RevA.03 25-Dec-2016

 ------------------
 #p CCSD(T)/cc-pVTZ
 ------------------

 -----------
 H2O_H2O_835
 -----------
 Symbolic Z-matrix:
 Charge =  0 Multiplicity = 1

                         Standard orientation:
 ---------------------------------------------------------------------
 Center     Atomic      Atomic             Coordinates (Angstroms)
 Number     Number       Type             X           Y           Z
 ---------------------------------------------------------------------
      1          8           0        0.034797   -1.229633    0.000000
      2          1           0       -0.766149   -1.798836    0.000000
      3          1           0        0.832988   -1.802691    0.000000
      4          8           0        0.034797    1.253070    0.000000
      5          1           0        0.323722    2.192233    0.000000
      6          1           0       -0.947308    1.221799    0.000000
 ---------------------------------------------------------------------

 SCF Done:  E(RHF) =  -152.094490531     A.U. after   11 cycles
 E2 =    -0.5293135931D+00 EUMP2 =    -0.15262380412455D+03
 CCSD(T)
 CCSD(T)= -0.15265104662D+03

 The electronic state is 1-A'.
 Alpha  occ. eigenvalues --  -20.53768 -20.53028  -1.31532  -1.30206  -0.68867
 Alpha  occ. eigenvalues --   -0.67838  -0.56814  -0.50859  -0.48779  -0.47047
 Alpha virt. eigenvalues --    0.14241   0.17381   0.20369   0.22866   0.52602
 Alpha virt. eigenvalues --    0.58301   0.58399   0.61445   0.70503   0.76189
 Alpha virt. eigenvalues --    0.77101   0.79309   0.83624   0.85912   0.85972

 Mulliken charges:
               1
     1  O   -0.467575
     2  H    0.225957
     3  H    0.241255
     4  O   -0.452275
     5  H    0.213188
     6  H    0.239449
 Sum of Mulliken charges =  -0.00000

 Dipole moment (field-independent basis, Debye):
    X=             -1.0859    Y=             -0.4566    Z=              0.0000  Tot=              1.1779
 Quadrupole moment (field-independent basis, Debye-Ang):
   XX=             -8.7025   YY=             -3.1418   ZZ=            -14.7244
   XY=             -0.7221   XZ=              0.0000   YZ=              0.0000

 Normal termination of Gaussian 16 at Fri Aug 26 20:26:15 2022.
