 Gaussian 16, Revision A.03,
 Gaussian 16:  ES64L-G16RevA.03 25-Dec-2016

 ------------------
 #p CCSD(T)/cc-pVTZ
 ------------------

 ------------
 H2O_H2O_2532
 ------------
 Symbolic Z-matrix:
 Charge =  0 Multiplicity = 1

                         Standard orientation:
 ---------------------------------------------------------------------
 Center     Atomic      Atomic             Coordinates (Angstroms)
 Number     Number       Type             X           Y           Z
 ---------------------------------------------------------------------
      1          8           0        0.025267   -2.140115    0.000000
      2          1           0       -0.774883   -2.710437    0.000000
      3          1           0        0.824258   -2.712057    0.000000
      4          8           0        0.025267    2.151844    0.000000
      5          1           0        0.490652    3.017247    0.000000
      6          1           0       -0.944291    2.311418    0.000000
 ---------------------------------------------------------------------

 SCF Done:  E(RHF) =  -152.105766667     A.U. after   10 cycles
 E2 =    -0.5261522409D+00 EUMP2 =    -0.15263191890803D+03
 CCSD(T)
 CCSD(T)= -0.15265916246D+03

 The electronic state is 1-A'.
 Alpha  occ. eigenvalues --  -20.54823 -20.54672  -1.32111  -1.31958  -0.69525
 Alpha  occ. eigenvalues --   -0.69366  -0.55509  -0.55281  -0.49213  -0.49059
 Alpha virt. eigenvalues --    0.14157   0.15380   0.20543   0.21036   0.54460
 Alpha virt. eigenvalues --    0.55528   0.57785   0.58014   0.64612   0.73095
 Alpha virt. eigenvalues --    0.79542   0.79927   0.80994   0.81163   0.82278

 Mulliken charges:
               1
     1  O   -0.498721
     2  H    0.247725
     3  H    0.251070
     4  O   -0.498410
     5  H    0.247034
     6  H    0.251301
 Sum of Mulliken charges =  -0.00000

 Dipole moment (field-independent basis, Debye):
    X=             -0.8577    Y=             -0.2101    Z=              0.0000  Tot=              0.8830
 Quadrupole moment (field-independent basis, Debye-Ang):
   XX=             -8.2236   YY=              4.5655   ZZ=            -14.7100
   XY=             -1.1781   XZ=              0.0000   YZ=              0.0000

 Normal termination of Gaussian 16 at Fri Aug 26 13:25:56 2022.
