 Gaussian 16, Revision A.03,
 Gaussian 16:  ES64L-G16RevA.03 25-Dec-2016

 ------------------
 #p CCSD(T)/cc-pVTZ
 ------------------

 ------------
 H2O_H2O_2541
 ------------
 Symbolic Z-matrix:
 Charge =  0 Multiplicity = 1

                         Standard orientation:
 ---------------------------------------------------------------------
 Center     Atomic      Atomic             Coordinates (Angstroms)
 Number     Number       Type             X           Y           Z
 ---------------------------------------------------------------------
      1          8           0        0.049518   -2.115573    0.000000
      2          1           0       -0.751186   -2.685116    0.000000
      3          1           0        0.847953   -2.688292    0.000000
      4          8           0        0.049518    2.172490    0.000000
      5          1           0       -0.043368    3.150691    0.000000
      6          1           0       -0.845688    1.767384    0.000000
 ---------------------------------------------------------------------

 SCF Done:  E(RHF) =  -152.106944389     A.U. after   10 cycles
 E2 =    -0.5260941325D+00 EUMP2 =    -0.15263303852198D+03
 CCSD(T)
 CCSD(T)= -0.15266025134D+03

 The electronic state is 1-A'.
 Alpha  occ. eigenvalues --  -20.55372 -20.54599  -1.32660  -1.31886  -0.70070
 Alpha  occ. eigenvalues --   -0.69272  -0.56074  -0.55302  -0.49768  -0.49000
 Alpha virt. eigenvalues --    0.13589   0.15566   0.20186   0.21482   0.54004
 Alpha virt. eigenvalues --    0.54904   0.57398   0.58097   0.65711   0.73284
 Alpha virt. eigenvalues --    0.79076   0.79901   0.80041   0.81932   0.83117

 Mulliken charges:
               1
     1  O   -0.504069
     2  H    0.249126
     3  H    0.255618
     4  O   -0.504693
     5  H    0.246819
     6  H    0.257200
 Sum of Mulliken charges =  -0.00000

 Dipole moment (field-independent basis, Debye):
    X=             -1.6809    Y=             -1.0252    Z=              0.0000  Tot=              1.9689
 Quadrupole moment (field-independent basis, Debye-Ang):
   XX=             -9.3491   YY=              2.2693   ZZ=            -14.7126
   XY=             -3.0079   XZ=              0.0000   YZ=              0.0000

 Normal termination of Gaussian 16 at Fri Aug 26 13:31:58 2022.
