 Gaussian 16, Revision A.03,
 Gaussian 16:  ES64L-G16RevA.03 25-Dec-2016

 ------------------
 #p CCSD(T)/cc-pVTZ
 ------------------

 ---------
 H2O_H2O_6
 ---------
 Symbolic Z-matrix:
 Charge =  0 Multiplicity = 1

                         Standard orientation:
 ---------------------------------------------------------------------
 Center     Atomic      Atomic             Coordinates (Angstroms)
 Number     Number       Type             X           Y           Z
 ---------------------------------------------------------------------
      1          8           0        0.021866   -0.798930    0.000000
      2          1           0       -0.779040   -1.368188    0.000000
      3          1           0        0.820097   -1.371934    0.000000
      4          8           0        0.021866    0.807523    0.000000
      5          1           0        0.543963    1.639942    0.000000
      6          1           0       -0.934882    1.031440    0.000000
 ---------------------------------------------------------------------

 SCF Done:  E(RHF) =  -151.909994856     A.U. after   12 cycles
 E2 =    -0.5531058614D+00 EUMP2 =    -0.15246310071785D+03
 CCSD(T)
 CCSD(T)= -0.15248711661D+03

 The electronic state is 1-A'.
 Alpha  occ. eigenvalues --  -20.51889 -20.51635  -1.37856  -1.26811  -0.72408
 Alpha  occ. eigenvalues --   -0.69576  -0.64040  -0.53660  -0.43144  -0.32330
 Alpha virt. eigenvalues --    0.14202   0.19373   0.20018   0.23260   0.52019
 Alpha virt. eigenvalues --    0.56861   0.58964   0.65688   0.69865   0.78659
 Alpha virt. eigenvalues --    0.80150   0.83332   0.83385   0.85092   0.88551

 Mulliken charges:
               1
     1  O   -0.333104
     2  H    0.156463
     3  H    0.178733
     4  O   -0.318987
     5  H    0.106261
     6  H    0.210635
 Sum of Mulliken charges =  -0.00000

 Dipole moment (field-independent basis, Debye):
    X=             -0.6217    Y=             -0.2461    Z=              0.0000  Tot=              0.6686
 Quadrupole moment (field-independent basis, Debye-Ang):
   XX=             -8.7678   YY=             -9.5150   ZZ=            -14.7528
   XY=             -0.3604   XZ=              0.0000   YZ=              0.0000

 4304\MP4DQ=-152.4652609\MP4SDQ=-152.4697453\CCSD=-152.4682506\CCSD(T)=
 Normal termination of Gaussian 16 at Fri Aug 26 11:49:42 2022.
