 Gaussian 16, Revision A.03,
 Gaussian 16:  ES64L-G16RevA.03 25-Dec-2016

 ------------------
 #p CCSD(T)/cc-pVTZ
 ------------------

 ------------
 H2O_H2O_3028
 ------------
 Symbolic Z-matrix:
 Charge =  0 Multiplicity = 1

                         Standard orientation:
 ---------------------------------------------------------------------
 Center     Atomic      Atomic             Coordinates (Angstroms)
 Number     Number       Type             X           Y           Z
 ---------------------------------------------------------------------
      1          8           0        0.011143   -2.411217    0.000000
      2          1           0       -0.788655   -2.982031    0.000000
      3          1           0        0.810487   -2.982667    0.000000
      4          8           0        0.011143    2.413403    0.000000
      5          1           0        0.684212    3.129282    0.000000
      6          1           0       -0.884327    2.817928    0.000000
 ---------------------------------------------------------------------

 SCF Done:  E(RHF) =  -152.106050814     A.U. after   10 cycles
 E2 =    -0.5260442015D+00 EUMP2 =    -0.15263209501505D+03
 CCSD(T)
 CCSD(T)= -0.15265934090D+03

 The electronic state is 1-A'.
 Alpha  occ. eigenvalues --  -20.54890 -20.54868  -1.32182  -1.32160  -0.69593
 Alpha  occ. eigenvalues --   -0.69570  -0.55577  -0.55526  -0.49284  -0.49262
 Alpha virt. eigenvalues --    0.14408   0.14952   0.20600   0.20779   0.54831
 Alpha virt. eigenvalues --    0.55149   0.57750   0.57837   0.67009   0.70439
 Alpha virt. eigenvalues --    0.79564   0.79638   0.81005   0.81119   0.82602

 Mulliken charges:
               1
     1  O   -0.500872
     2  H    0.249900
     3  H    0.250974
     4  O   -0.500822
     5  H    0.249723
     6  H    0.251097
 Sum of Mulliken charges =  -0.00000

 Dipole moment (field-independent basis, Debye):
    X=             -0.3803    Y=             -0.0386    Z=              0.0000  Tot=              0.3822
 Quadrupole moment (field-independent basis, Debye-Ang):
   XX=             -7.8945   YY=              7.1151   ZZ=            -14.7098
   XY=             -0.5858   XZ=              0.0000   YZ=              0.0000

 Normal termination of Gaussian 16 at Fri Aug 26 18:40:05 2022.
