 Gaussian 16, Revision A.03,
 Gaussian 16:  ES64L-G16RevA.03 25-Dec-2016

 ------------------
 #p CCSD(T)/cc-pVTZ
 ------------------

 -----------
 H2O_H2O_217
 -----------
 Symbolic Z-matrix:
 Charge =  0 Multiplicity = 1

                         Standard orientation:
 ---------------------------------------------------------------------
 Center     Atomic      Atomic             Coordinates (Angstroms)
 Number     Number       Type             X           Y           Z
 ---------------------------------------------------------------------
      1          8           0        0.051377   -0.875631    0.000000
      2          1           0       -0.750960   -1.442870    0.000000
      3          1           0        0.848163   -1.450643    0.000000
      4          8           0        0.051377    0.938838    0.000000
      5          1           0       -0.102498    1.909316    0.000000
      6          1           0       -0.816744    0.478544    0.000000
 ---------------------------------------------------------------------

 SCF Done:  E(RHF) =  -152.007279481     A.U. after   11 cycles
 E2 =    -0.5417094141D+00 EUMP2 =    -0.15254898889546D+03
 CCSD(T)
 CCSD(T)= -0.15257504945D+03

 The electronic state is 1-A'.
 Alpha  occ. eigenvalues --  -20.53963 -20.50810  -1.36251  -1.27377  -0.73593
 Alpha  occ. eigenvalues --   -0.69740  -0.55635  -0.52236  -0.44461  -0.44239
 Alpha virt. eigenvalues --    0.13713   0.18901   0.19624   0.24578   0.51719
 Alpha virt. eigenvalues --    0.56280   0.60147   0.65279   0.72881   0.76499
 Alpha virt. eigenvalues --    0.80826   0.81253   0.84039   0.84048   0.88510

 Mulliken charges:
               1
     1  O   -0.374048
     2  H    0.177955
     3  H    0.215394
     4  O   -0.408519
     5  H    0.145702
     6  H    0.243516
 Sum of Mulliken charges =  -0.00000

 Dipole moment (field-independent basis, Debye):
    X=             -1.4103    Y=             -1.3903    Z=              0.0000  Tot=              1.9804
 Quadrupole moment (field-independent basis, Debye-Ang):
   XX=             -9.5930   YY=             -7.3664   ZZ=            -14.6498
   XY=             -1.1078   XZ=              0.0000   YZ=              0.0000

 Normal termination of Gaussian 16 at Fri Aug 26 14:10:11 2022.
