 Gaussian 16, Revision A.03,
 Gaussian 16:  ES64L-G16RevA.03 25-Dec-2016

 ------------------
 #p CCSD(T)/cc-pVTZ
 ------------------

 -----------
 H2O_H2O_714
 -----------
 Symbolic Z-matrix:
 Charge =  0 Multiplicity = 1

                         Standard orientation:
 ---------------------------------------------------------------------
 Center     Atomic      Atomic             Coordinates (Angstroms)
 Number     Number       Type             X           Y           Z
 ---------------------------------------------------------------------
      1          8           0        0.045385   -1.151773    0.000000
      2          1           0       -0.756079   -1.720245    0.000000
      3          1           0        0.843054   -1.725559    0.000000
      4          8           0        0.045385    1.196162    0.000000
      5          1           0        0.082287    2.178070    0.000000
      6          1           0       -0.895420    0.912626    0.000000
 ---------------------------------------------------------------------

 SCF Done:  E(RHF) =  -152.091240194     A.U. after   11 cycles
 E2 =    -0.5303950764D+00 EUMP2 =    -0.15262163527033D+03
 CCSD(T)
 CCSD(T)= -0.15264878420D+03

 The electronic state is 1-A'.
 Alpha  occ. eigenvalues --  -20.54258 -20.52655  -1.32270  -1.29819  -0.69602
 Alpha  occ. eigenvalues --   -0.67861  -0.56768  -0.50802  -0.49441  -0.46694
 Alpha virt. eigenvalues --    0.13975   0.17662   0.20120   0.23576   0.53132
 Alpha virt. eigenvalues --    0.57708   0.58372   0.61201   0.71057   0.75416
 Alpha virt. eigenvalues --    0.78416   0.80928   0.83298   0.85365   0.87614

 Mulliken charges:
               1
     1  O   -0.463397
     2  H    0.224037
     3  H    0.242904
     4  O   -0.451859
     5  H    0.203543
     6  H    0.244771
 Sum of Mulliken charges =  -0.00000

 Dipole moment (field-independent basis, Debye):
    X=             -1.3912    Y=             -0.8804    Z=              0.0000  Tot=              1.6463
 Quadrupole moment (field-independent basis, Debye-Ang):
   XX=             -9.2128   YY=             -4.0717   ZZ=            -14.7254
   XY=             -1.1357   XZ=              0.0000   YZ=              0.0000

 Normal termination of Gaussian 16 at Fri Aug 26 19:21:22 2022.
