 Gaussian 16, Revision A.03,
 Gaussian 16:  ES64L-G16RevA.03 25-Dec-2016

 ------------------
 #p CCSD(T)/cc-pVTZ
 ------------------

 ------------
 H2O_H2O_1361
 ------------
 Symbolic Z-matrix:
 Charge =  0 Multiplicity = 1

                         Standard orientation:
 ---------------------------------------------------------------------
 Center     Atomic      Atomic             Coordinates (Angstroms)
 Number     Number       Type             X           Y           Z
 ---------------------------------------------------------------------
      1          8           0        0.037688   -1.506269    0.000000
      2          1           0       -0.763099   -2.075694    0.000000
      3          1           0        0.836039   -2.079104    0.000000
      4          8           0        0.037688    1.534454    0.000000
      5          1           0        0.264303    2.490567    0.000000
      6          1           0       -0.940243    1.438744    0.000000
 ---------------------------------------------------------------------

 SCF Done:  E(RHF) =  -152.103482180     A.U. after   10 cycles
 E2 =    -0.5273016137D+00 EUMP2 =    -0.15263078379383D+03
 CCSD(T)
 CCSD(T)= -0.15265802419D+03

 The electronic state is 1-A'.
 Alpha  occ. eigenvalues --  -20.54523 -20.53808  -1.31840  -1.31060  -0.69266
 Alpha  occ. eigenvalues --   -0.68477  -0.55732  -0.53639  -0.48975  -0.48115
 Alpha virt. eigenvalues --    0.14019   0.16703   0.20339   0.22329   0.53195
 Alpha virt. eigenvalues --    0.57473   0.57998   0.58797   0.66067   0.76473
 Alpha virt. eigenvalues --    0.77518   0.77975   0.79776   0.82426   0.85606

 Mulliken charges:
               1
     1  O   -0.480062
     2  H    0.235168
     3  H    0.246452
     4  O   -0.477503
     5  H    0.230436
     6  H    0.245509
 Sum of Mulliken charges =  -0.00000

 Dipole moment (field-independent basis, Debye):
    X=             -1.2317    Y=             -0.5350    Z=              0.0000  Tot=              1.3428
 Quadrupole moment (field-independent basis, Debye-Ang):
   XX=             -8.7587   YY=             -0.8414   ZZ=            -14.7137
   XY=             -1.1691   XZ=              0.0000   YZ=              0.0000

 Normal termination of Gaussian 16 at Sat Aug 27 04:14:18 2022.
