 Gaussian 16, Revision A.03,
 Gaussian 16:  ES64L-G16RevA.03 25-Dec-2016

 ------------------
 #p CCSD(T)/cc-pVTZ
 ------------------

 ------------
 H2O_H2O_1895
 ------------
 Symbolic Z-matrix:
 Charge =  0 Multiplicity = 1

                         Standard orientation:
 ---------------------------------------------------------------------
 Center     Atomic      Atomic             Coordinates (Angstroms)
 Number     Number       Type             X           Y           Z
 ---------------------------------------------------------------------
      1          8           0        0.055279   -1.754969    0.000000
      2          1           0       -0.745799   -2.323986    0.000000
      3          1           0        0.853338   -2.328212    0.000000
      4          8           0        0.055279    1.839340    0.000000
      5          1           0       -0.287016    2.760394    0.000000
      6          1           0       -0.704984    1.216839    0.000000
 ---------------------------------------------------------------------

 SCF Done:  E(RHF) =  -152.108045056     A.U. after   10 cycles
 E2 =    -0.5264628847D+00 EUMP2 =    -0.15263450794038D+03
 CCSD(T)
 CCSD(T)= -0.15266166442D+03

 The electronic state is 1-A'.
 Alpha  occ. eigenvalues --  -20.55845 -20.54065  -1.33115  -1.31351  -0.70527
 Alpha  occ. eigenvalues --   -0.68720  -0.56548  -0.54796  -0.50233  -0.48478
 Alpha virt. eigenvalues --    0.13205   0.16406   0.19889   0.23226   0.53828
 Alpha virt. eigenvalues --    0.54796   0.56987   0.58471   0.65543   0.75350
 Alpha virt. eigenvalues --    0.78067   0.78800   0.78853   0.80753   0.84598

 Mulliken charges:
               1
     1  O   -0.498432
     2  H    0.246329
     3  H    0.256711
     4  O   -0.507991
     5  H    0.242372
     6  H    0.261010
 Sum of Mulliken charges =  -0.00000

 Dipole moment (field-independent basis, Debye):
    X=             -1.8494    Y=             -1.5786    Z=              0.0000  Tot=              2.4315
 Quadrupole moment (field-independent basis, Debye-Ang):
   XX=             -9.7264   YY=             -1.2246   ZZ=            -14.7176
   XY=             -3.1932   XZ=              0.0000   YZ=              0.0000

 Normal termination of Gaussian 16 at Sat Aug 27 07:24:48 2022.
