 Gaussian 16, Revision A.03,
 Gaussian 16:  ES64L-G16RevA.03 25-Dec-2016

 ------------------
 #p CCSD(T)/cc-pVTZ
 ------------------

 -----------
 H2O_H2O_201
 -----------
 Symbolic Z-matrix:
 Charge =  0 Multiplicity = 1

                         Standard orientation:
 ---------------------------------------------------------------------
 Center     Atomic      Atomic             Coordinates (Angstroms)
 Number     Number       Type             X           Y           Z
 ---------------------------------------------------------------------
      1          8           0        0.003735   -0.909835    0.000000
      2          1           0       -0.796037   -1.480684    0.000000
      3          1           0        0.803105   -1.481249    0.000000
      4          8           0        0.003735    0.910076    0.000000
      5          1           0        0.764461    1.532012    0.000000
      6          1           0       -0.831295    1.427987    0.000000
 ---------------------------------------------------------------------

 SCF Done:  E(RHF) =  -152.004539470     A.U. after   11 cycles
 E2 =    -0.5410288488D+00 EUMP2 =    -0.15254556831931D+03
 CCSD(T)
 CCSD(T)= -0.15257165333D+03

 The electronic state is 1-A'.
 Alpha  occ. eigenvalues --  -20.51267 -20.51260  -1.33386  -1.27639  -0.69160
 Alpha  occ. eigenvalues --   -0.65851  -0.64114  -0.50308  -0.43922  -0.38954
 Alpha virt. eigenvalues --    0.14661   0.19016   0.20248   0.22963   0.50368
 Alpha virt. eigenvalues --    0.59224   0.59244   0.67275   0.68318   0.79024
 Alpha virt. eigenvalues --    0.80260   0.83805   0.84444   0.86477   0.87608

 Mulliken charges:
               1
     1  O   -0.397277
     2  H    0.197076
     3  H    0.200164
     4  O   -0.396399
     5  H    0.192446
     6  H    0.203990
 Sum of Mulliken charges =  -0.00000

 Dipole moment (field-independent basis, Debye):
    X=             -0.1070    Y=             -0.0058    Z=              0.0000  Tot=              0.1072
 Quadrupole moment (field-independent basis, Debye-Ang):
   XX=             -8.2994   YY=             -7.1710   ZZ=            -14.7600
   XY=             -0.0373   XZ=              0.0000   YZ=              0.0000

 Normal termination of Gaussian 16 at Fri Aug 26 13:56:57 2022.
