 Gaussian 16, Revision A.03,
 Gaussian 16:  ES64L-G16RevA.03 25-Dec-2016

 ------------------
 #p CCSD(T)/cc-pVTZ
 ------------------

 ------------
 H2O_H2O_1830
 ------------
 Symbolic Z-matrix:
 Charge =  0 Multiplicity = 1

                         Standard orientation:
 ---------------------------------------------------------------------
 Center     Atomic      Atomic             Coordinates (Angstroms)
 Number     Number       Type             X           Y           Z
 ---------------------------------------------------------------------
      1          8           0        0.018361   -1.770926    0.000000
      2          1           0       -0.781718   -2.341345    0.000000
      3          1           0        0.817423   -2.342770    0.000000
      4          8           0        0.018361    1.776955    0.000000
      5          1           0        0.592626    2.574280    0.000000
      6          1           0       -0.922108    2.061601    0.000000
 ---------------------------------------------------------------------

 SCF Done:  E(RHF) =  -152.104359163     A.U. after   10 cycles
 E2 =    -0.5266148349D+00 EUMP2 =    -0.15263097399796D+03
 CCSD(T)
 CCSD(T)= -0.15265822333D+03

 The electronic state is 1-A'.
 Alpha  occ. eigenvalues --  -20.54411 -20.54296  -1.31695  -1.31566  -0.69118
 Alpha  occ. eigenvalues --   -0.68986  -0.55353  -0.54440  -0.48817  -0.48633
 Alpha virt. eigenvalues --    0.14160   0.16078   0.20563   0.21452   0.53299
 Alpha virt. eigenvalues --    0.56920   0.58017   0.58392   0.61767   0.76032
 Alpha virt. eigenvalues --    0.79029   0.79419   0.80497   0.81120   0.83648

 Mulliken charges:
               1
     1  O   -0.486815
     2  H    0.241555
     3  H    0.245474
     4  O   -0.486803
     5  H    0.241004
     6  H    0.245585
 Sum of Mulliken charges =  -0.00000

 Dipole moment (field-independent basis, Debye):
    X=             -0.6140    Y=             -0.1117    Z=              0.0000  Tot=              0.6241
 Quadrupole moment (field-independent basis, Debye-Ang):
   XX=             -8.0628   YY=              1.8012   ZZ=            -14.7093
   XY=             -0.5960   XZ=              0.0000   YZ=              0.0000

 Normal termination of Gaussian 16 at Sat Aug 27 07:03:16 2022.
