 Gaussian 16, Revision A.03,
 Gaussian 16:  ES64L-G16RevA.03 25-Dec-2016

 ------------------
 #p CCSD(T)/cc-pVTZ
 ------------------

 ------------
 H2O_H2O_1178
 ------------
 Symbolic Z-matrix:
 Charge =  0 Multiplicity = 1

                         Standard orientation:
 ---------------------------------------------------------------------
 Center     Atomic      Atomic             Coordinates (Angstroms)
 Number     Number       Type             X           Y           Z
 ---------------------------------------------------------------------
      1          8           0        0.011143   -1.427322    0.000000
      2          1           0       -0.788811   -1.997918    0.000000
      3          1           0        0.810330   -1.998991    0.000000
      4          8           0        0.011143    1.429502    0.000000
      5          1           0        0.684409    2.145197    0.000000
      6          1           0       -0.884215    1.834273    0.000000
 ---------------------------------------------------------------------

 SCF Done:  E(RHF) =  -152.099848671     A.U. after   11 cycles
 E2 =    -0.5277469793D+00 EUMP2 =    -0.15262759564980D+03
 CCSD(T)
 CCSD(T)= -0.15265490459D+03

 The electronic state is 1-A'.
 Alpha  occ. eigenvalues --  -20.53693 -20.53638  -1.31176  -1.30829  -0.68568
 Alpha  occ. eigenvalues --   -0.68311  -0.55873  -0.52335  -0.48402  -0.47740
 Alpha virt. eigenvalues --    0.14408   0.16927   0.20555   0.22013   0.51305
 Alpha virt. eigenvalues --    0.58453   0.58727   0.60737   0.68760   0.76372
 Alpha virt. eigenvalues --    0.77319   0.78241   0.79154   0.83144   0.86208

 Mulliken charges:
               1
     1  O   -0.469254
     2  H    0.232458
     3  H    0.236737
     4  O   -0.467820
     5  H    0.232080
     6  H    0.235798
 Sum of Mulliken charges =   0.00000

 Dipole moment (field-independent basis, Debye):
    X=             -0.3610    Y=             -0.0413    Z=              0.0000  Tot=              0.3634
 Quadrupole moment (field-independent basis, Debye-Ang):
   XX=             -7.9932   YY=             -1.1302   ZZ=            -14.7128
   XY=             -0.2243   XZ=              0.0000   YZ=              0.0000

 Normal termination of Gaussian 16 at Sat Aug 27 02:45:56 2022.
