 Gaussian 16, Revision A.03,
 Gaussian 16:  ES64L-G16RevA.03 25-Dec-2016

 ------------------
 #p CCSD(T)/cc-pVTZ
 ------------------

 ------------
 H2O_H2O_3214
 ------------
 Symbolic Z-matrix:
 Charge =  0 Multiplicity = 1

                         Standard orientation:
 ---------------------------------------------------------------------
 Center     Atomic      Atomic             Coordinates (Angstroms)
 Number     Number       Type             X           Y           Z
 ---------------------------------------------------------------------
      1          8           0        0.045346   -2.481280    0.000000
      2          1           0       -0.755114   -3.051166    0.000000
      3          1           0        0.844026   -3.053657    0.000000
      4          8           0        0.045346    2.525829    0.000000
      5          1           0        0.080515    3.507801    0.000000
      6          1           0       -0.894958    2.240634    0.000000
 ---------------------------------------------------------------------

 SCF Done:  E(RHF) =  -152.106864610     A.U. after   10 cycles
 E2 =    -0.5259711401D+00 EUMP2 =    -0.15263283575062D+03
 CCSD(T)
 CCSD(T)= -0.15266006404D+03

 The electronic state is 1-A'.
 Alpha  occ. eigenvalues --  -20.55307 -20.54886  -1.32602  -1.32178  -0.70011
 Alpha  occ. eigenvalues --   -0.69575  -0.56023  -0.55599  -0.49710  -0.49288
 Alpha virt. eigenvalues --    0.14068   0.14950   0.20313   0.20897   0.54475
 Alpha virt. eigenvalues --    0.54994   0.57425   0.57827   0.67319   0.69739
 Alpha virt. eigenvalues --    0.79169   0.79583   0.80545   0.81044   0.82768

 Mulliken charges:
               1
     1  O   -0.505632
     2  H    0.250857
     3  H    0.254828
     4  O   -0.505196
     5  H    0.249456
     6  H    0.255687
 Sum of Mulliken charges =  -0.00000

 Dipole moment (field-independent basis, Debye):
    X=             -1.5502    Y=             -0.7874    Z=              0.0000  Tot=              1.7387
 Quadrupole moment (field-independent basis, Debye-Ang):
   XX=             -9.0991   YY=              5.3031   ZZ=            -14.7113
   XY=             -3.1277   XZ=              0.0000   YZ=              0.0000

 Normal termination of Gaussian 16 at Fri Aug 26 20:25:47 2022.
