 Gaussian 16, Revision A.03,
 Gaussian 16:  ES64L-G16RevA.03 25-Dec-2016

 ------------------
 #p CCSD(T)/cc-pVTZ
 ------------------

 -----------
 H2O_H2O_528
 -----------
 Symbolic Z-matrix:
 Charge =  0 Multiplicity = 1

                         Standard orientation:
 ---------------------------------------------------------------------
 Center     Atomic      Atomic             Coordinates (Angstroms)
 Number     Number       Type             X           Y           Z
 ---------------------------------------------------------------------
      1          8           0        0.011143   -1.081631    0.000000
      2          1           0       -0.788933   -1.652055    0.000000
      3          1           0        0.810208   -1.653471    0.000000
      4          8           0        0.011143    1.083807    0.000000
      5          1           0        0.684562    1.799356    0.000000
      6          1           0       -0.884128    1.488769    0.000000
 ---------------------------------------------------------------------

 SCF Done:  E(RHF) =  -152.071842922     A.U. after   11 cycles
 E2 =    -0.5323703196D+00 EUMP2 =    -0.15260421324159D+03
 CCSD(T)
 CCSD(T)= -0.15263130663D+03

 The electronic state is 1-A'.
 Alpha  occ. eigenvalues --  -20.52323 -20.52255  -1.31369  -1.29149  -0.68321
 Alpha  occ. eigenvalues --   -0.66936  -0.59248  -0.48671  -0.46358  -0.45700
 Alpha virt. eigenvalues --    0.14599   0.18081   0.20534   0.22696   0.50424
 Alpha virt. eigenvalues --    0.59021   0.59114   0.65182   0.71029   0.77235
 Alpha virt. eigenvalues --    0.78235   0.81862   0.84347   0.86666   0.87061

 Mulliken charges:
               1
     1  O   -0.444904
     2  H    0.219061
     3  H    0.225178
     4  O   -0.439982
     5  H    0.212471
     6  H    0.228176
 Sum of Mulliken charges =  -0.00000

 Dipole moment (field-independent basis, Debye):
    X=             -0.3339    Y=             -0.0442    Z=              0.0000  Tot=              0.3369
 Quadrupole moment (field-independent basis, Debye-Ang):
   XX=             -8.1540   YY=             -4.7056   ZZ=            -14.7433
   XY=             -0.1184   XZ=              0.0000   YZ=              0.0000

 Normal termination of Gaussian 16 at Fri Aug 26 17:21:54 2022.
