 Gaussian 16, Revision A.03,
 Gaussian 16:  ES64L-G16RevA.03 25-Dec-2016

 ------------------
 #p CCSD(T)/cc-pVTZ
 ------------------

 ------------
 H2O_H2O_4012
 ------------
 Symbolic Z-matrix:
 Charge =  0 Multiplicity = 1

                         Standard orientation:
 ---------------------------------------------------------------------
 Center     Atomic      Atomic             Coordinates (Angstroms)
 Number     Number       Type             X           Y           Z
 ---------------------------------------------------------------------
      1          8           0        0.040405   -2.912826    0.000000
      2          1           0       -0.759843   -3.483009    0.000000
      3          1           0        0.839298   -3.484907    0.000000
      4          8           0        0.040405    2.946187    0.000000
      5          1           0        0.203086    3.915228    0.000000
      6          1           0       -0.929020    2.785806    0.000000
 ---------------------------------------------------------------------

 SCF Done:  E(RHF) =  -152.106970506     A.U. after   10 cycles
 E2 =    -0.5259255957D+00 EUMP2 =    -0.15263289610196D+03
 CCSD(T)
 CCSD(T)= -0.15266012504D+03

 The electronic state is 1-A'.
 Alpha  occ. eigenvalues --  -20.55321 -20.55096  -1.32618  -1.32391  -0.70025
 Alpha  occ. eigenvalues --   -0.69793  -0.56045  -0.55818  -0.49726  -0.49500
 Alpha virt. eigenvalues --    0.14292   0.14568   0.20364   0.20615   0.54538
 Alpha virt. eigenvalues --    0.54787   0.57420   0.57649   0.68100   0.68489
 Alpha virt. eigenvalues --    0.79153   0.79375   0.80592   0.80836   0.82528

 Mulliken charges:
               1
     1  O   -0.506310
     2  H    0.252021
     3  H    0.254289
     4  O   -0.506099
     5  H    0.251288
     6  H    0.254810
 Sum of Mulliken charges =   0.00000

 Dipole moment (field-independent basis, Debye):
    X=             -1.3866    Y=             -0.5841    Z=              0.0000  Tot=              1.5046
 Quadrupole moment (field-independent basis, Debye-Ang):
   XX=             -8.8312   YY=              8.9600   ZZ=            -14.7111
   XY=             -3.2284   XZ=              0.0000   YZ=              0.0000

 Normal termination of Gaussian 16 at Sat Aug 27 04:52:49 2022.
