 Gaussian 16, Revision A.03,
 Gaussian 16:  ES64L-G16RevA.03 25-Dec-2016

 ------------------
 #p CCSD(T)/cc-pVTZ
 ------------------

 ------------
 H2O_H2O_4083
 ------------
 Symbolic Z-matrix:
 Charge =  0 Multiplicity = 1

                         Standard orientation:
 ---------------------------------------------------------------------
 Center     Atomic      Atomic             Coordinates (Angstroms)
 Number     Number       Type             X           Y           Z
 ---------------------------------------------------------------------
      1          8           0        0.028563   -2.962546    0.000000
      2          1           0       -0.771481   -3.533016    0.000000
      3          1           0        0.827661   -3.534340    0.000000
      4          8           0        0.028563    2.977803    0.000000
      5          1           0        0.436187    3.871866    0.000000
      6          1           0       -0.949373    3.073441    0.000000
 ---------------------------------------------------------------------

 SCF Done:  E(RHF) =  -152.106819658     A.U. after   10 cycles
 E2 =    -0.5259362408D+00 EUMP2 =    -0.15263275589869D+03
 CCSD(T)
 CCSD(T)= -0.15265998822D+03

 The electronic state is 1-A'.
 Alpha  occ. eigenvalues --  -20.55220 -20.55120  -1.32516  -1.32415  -0.69923
 Alpha  occ. eigenvalues --   -0.69820  -0.55936  -0.55836  -0.49623  -0.49523
 Alpha virt. eigenvalues --    0.14390   0.14525   0.20448   0.20561   0.54643
 Alpha virt. eigenvalues --    0.54757   0.57511   0.57614   0.68237   0.68465
 Alpha virt. eigenvalues --    0.79256   0.79355   0.80699   0.80809   0.82630

 Mulliken charges:
               1
     1  O   -0.505406
     2  H    0.251931
     3  H    0.253475
     4  O   -0.505298
     5  H    0.251529
     6  H    0.253768
 Sum of Mulliken charges =  -0.00000

 Dipole moment (field-independent basis, Debye):
    X=             -0.9804    Y=             -0.2668    Z=              0.0000  Tot=              1.0160
 Quadrupole moment (field-independent basis, Debye-Ang):
   XX=             -8.3178   YY=             10.6314   ZZ=            -14.7108
   XY=             -2.1586   XZ=              0.0000   YZ=              0.0000

 Normal termination of Gaussian 16 at Sat Aug 27 05:17:25 2022.
