 Gaussian 16, Revision A.03,
 Gaussian 16:  ES64L-G16RevA.03 25-Dec-2016

 ------------------
 #p CCSD(T)/cc-pVTZ
 ------------------

 ------------
 H2O_H2O_3153
 ------------
 Symbolic Z-matrix:
 Charge =  0 Multiplicity = 1

                         Standard orientation:
 ---------------------------------------------------------------------
 Center     Atomic      Atomic             Coordinates (Angstroms)
 Number     Number       Type             X           Y           Z
 ---------------------------------------------------------------------
      1          8           0        0.011143   -2.477696    0.000000
      2          1           0       -0.788649   -3.048519    0.000000
      3          1           0        0.810493   -3.049137    0.000000
      4          8           0        0.011143    2.479882    0.000000
      5          1           0        0.684205    3.195769    0.000000
      6          1           0       -0.884331    2.884398    0.000000
 ---------------------------------------------------------------------

 SCF Done:  E(RHF) =  -152.106155064     A.U. after   10 cycles
 E2 =    -0.5260256910D+00 EUMP2 =    -0.15263218075501D+03
 CCSD(T)
 CCSD(T)= -0.15265942518D+03

 The electronic state is 1-A'.
 Alpha  occ. eigenvalues --  -20.54928 -20.54907  -1.32220  -1.32200  -0.69630
 Alpha  occ. eigenvalues --   -0.69609  -0.55615  -0.55578  -0.49323  -0.49302
 Alpha virt. eigenvalues --    0.14431   0.14873   0.20592   0.20739   0.54836
 Alpha virt. eigenvalues --    0.55069   0.57728   0.57800   0.67406   0.69963
 Alpha virt. eigenvalues --    0.79538   0.79588   0.80969   0.81073   0.82688

 Mulliken charges:
               1
     1  O   -0.501495
     2  H    0.250250
     3  H    0.251246
     4  O   -0.501451
     5  H    0.250080
     6  H    0.251370
 Sum of Mulliken charges =  -0.00000

 Dipole moment (field-independent basis, Debye):
    X=             -0.3806    Y=             -0.0386    Z=              0.0000  Tot=              0.3826
 Quadrupole moment (field-independent basis, Debye-Ang):
   XX=             -7.8926   YY=              7.6491   ZZ=            -14.7099
   XY=             -0.6108   XZ=              0.0000   YZ=              0.0000

 Normal termination of Gaussian 16 at Fri Aug 26 19:51:54 2022.
