 Gaussian 16, Revision A.03,
 Gaussian 16:  ES64L-G16RevA.03 25-Dec-2016

 ------------------
 #p CCSD(T)/cc-pVTZ
 ------------------

 ------------
 H2O_H2O_2977
 ------------
 Symbolic Z-matrix:
 Charge =  0 Multiplicity = 1

                         Standard orientation:
 ---------------------------------------------------------------------
 Center     Atomic      Atomic             Coordinates (Angstroms)
 Number     Number       Type             X           Y           Z
 ---------------------------------------------------------------------
      1          8           0        0.007455   -2.385283    0.000000
      2          1           0       -0.792270   -2.956200    0.000000
      3          1           0        0.806872   -2.956630    0.000000
      4          8           0        0.007455    2.386257    0.000000
      5          1           0        0.725818    3.056675    0.000000
      6          1           0       -0.859700    2.848371    0.000000
 ---------------------------------------------------------------------

 SCF Done:  E(RHF) =  -152.105985559     A.U. after   10 cycles
 E2 =    -0.5260540801D+00 EUMP2 =    -0.15263203963927D+03
 CCSD(T)
 CCSD(T)= -0.15265928654D+03

 The electronic state is 1-A'.
 Alpha  occ. eigenvalues --  -20.54863 -20.54853  -1.32155  -1.32145  -0.69566
 Alpha  occ. eigenvalues --   -0.69555  -0.55554  -0.55499  -0.49257  -0.49245
 Alpha virt. eigenvalues --    0.14407   0.14984   0.20611   0.20792   0.54836
 Alpha virt. eigenvalues --    0.55190   0.57765   0.57854   0.66817   0.70664
 Alpha virt. eigenvalues --    0.79581   0.79665   0.81033   0.81135   0.82552

 Mulliken charges:
               1
     1  O   -0.500479
     2  H    0.249870
     3  H    0.250610
     4  O   -0.500455
     5  H    0.249759
     6  H    0.250696
 Sum of Mulliken charges =  -0.00000

 Dipole moment (field-independent basis, Debye):
    X=             -0.2543    Y=             -0.0172    Z=              0.0000  Tot=              0.2549
 Quadrupole moment (field-independent basis, Debye-Ang):
   XX=             -7.8526   YY=              6.9611   ZZ=            -14.7097
   XY=             -0.3825   XZ=              0.0000   YZ=              0.0000

 Normal termination of Gaussian 16 at Fri Aug 26 17:59:40 2022.
