 Gaussian 16, Revision A.03,
 Gaussian 16:  ES64L-G16RevA.03 25-Dec-2016

 ------------------
 #p CCSD(T)/cc-pVTZ
 ------------------

 ------------
 H2O_H2O_4466
 ------------
 Symbolic Z-matrix:
 Charge =  0 Multiplicity = 1

                         Standard orientation:
 ---------------------------------------------------------------------
 Center     Atomic      Atomic             Coordinates (Angstroms)
 Number     Number       Type             X           Y           Z
 ---------------------------------------------------------------------
      1          8           0        0.049500   -3.139325    0.000000
      2          1           0       -0.750838   -3.709382    0.000000
      3          1           0        0.848302   -3.711531    0.000000
      4          8           0        0.049500    3.196305    0.000000
      5          1           0       -0.044015    4.174447    0.000000
      6          1           0       -0.845446    2.790625    0.000000
 ---------------------------------------------------------------------

 SCF Done:  E(RHF) =  -152.107263936     A.U. after   10 cycles
 E2 =    -0.5258925087D+00 EUMP2 =    -0.15263315644510D+03
 CCSD(T)
 CCSD(T)= -0.15266037957D+03

 The electronic state is 1-A'.
 Alpha  occ. eigenvalues --  -20.55494 -20.55165  -1.32792  -1.32462  -0.70198
 Alpha  occ. eigenvalues --   -0.69863  -0.56233  -0.55902  -0.49903  -0.49574
 Alpha virt. eigenvalues --    0.14164   0.14504   0.20236   0.20587   0.54364
 Alpha virt. eigenvalues --    0.54713   0.57271   0.57600   0.67955   0.68316
 Alpha virt. eigenvalues --    0.78977   0.79301   0.80411   0.80763   0.82339

 Mulliken charges:
               1
     1  O   -0.508037
     2  H    0.252924
     3  H    0.255114
     4  O   -0.507821
     5  H    0.252015
     6  H    0.255806
 Sum of Mulliken charges =   0.00000

 Dipole moment (field-independent basis, Debye):
    X=             -1.7013    Y=             -0.9952    Z=              0.0000  Tot=              1.9710
 Quadrupole moment (field-independent basis, Debye-Ang):
   XX=             -9.3454   YY=              8.4526   ZZ=            -14.7117
   XY=             -4.7258   XZ=              0.0000   YZ=              0.0000

 Normal termination of Gaussian 16 at Sat Aug 27 07:28:23 2022.
