 Gaussian 16, Revision A.03,
 Gaussian 16:  ES64L-G16RevA.03 25-Dec-2016

 ------------------
 #p CCSD(T)/cc-pVTZ
 ------------------

 ------------
 H2O_H2O_1504
 ------------
 Symbolic Z-matrix:
 Charge =  0 Multiplicity = 1

                         Standard orientation:
 ---------------------------------------------------------------------
 Center     Atomic      Atomic             Coordinates (Angstroms)
 Number     Number       Type             X           Y           Z
 ---------------------------------------------------------------------
      1          8           0        0.014784   -1.599252    0.000000
      2          1           0       -0.785241   -2.169749    0.000000
      3          1           0        0.813900   -2.171019    0.000000
      4          8           0        0.014784    1.603121    0.000000
      5          1           0        0.639893    2.361239    0.000000
      6          1           0       -0.905089    1.948579    0.000000
 ---------------------------------------------------------------------

 SCF Done:  E(RHF) =  -152.102863763     A.U. after   10 cycles
 E2 =    -0.5270366765D+00 EUMP2 =    -0.15262990043898D+03
 CCSD(T)
 CCSD(T)= -0.15265717424D+03

 The electronic state is 1-A'.
 Alpha  occ. eigenvalues --  -20.54111 -20.54024  -1.31435  -1.31274  -0.68856
 Alpha  occ. eigenvalues --   -0.68712  -0.55456  -0.53644  -0.48602  -0.48280
 Alpha virt. eigenvalues --    0.14288   0.16464   0.20556   0.21715   0.52416
 Alpha virt. eigenvalues --    0.58191   0.58394   0.58743   0.63594   0.76402
 Alpha virt. eigenvalues --    0.78292   0.78404   0.79581   0.82094   0.85823

 Mulliken charges:
               1
     1  O   -0.478174
     2  H    0.237070
     3  H    0.241258
     4  O   -0.477625
     5  H    0.236663
     6  H    0.240808
 Sum of Mulliken charges =  -0.00000

 Dipole moment (field-independent basis, Debye):
    X=             -0.4884    Y=             -0.0726    Z=              0.0000  Tot=              0.4937
 Quadrupole moment (field-independent basis, Debye-Ang):
   XX=             -8.0133   YY=              0.3897   ZZ=            -14.7094
   XY=             -0.3865   XZ=              0.0000   YZ=              0.0000

 Normal termination of Gaussian 16 at Sat Aug 27 05:09:30 2022.
