 Gaussian 16, Revision A.03,
 Gaussian 16:  ES64L-G16RevA.03 25-Dec-2016

 ------------------
 #p CCSD(T)/cc-pVTZ
 ------------------

 ------------
 H2O_H2O_4980
 ------------
 Symbolic Z-matrix:
 Charge =  0 Multiplicity = 1

                         Standard orientation:
 ---------------------------------------------------------------------
 Center     Atomic      Atomic             Coordinates (Angstroms)
 Number     Number       Type             X           Y           Z
 ---------------------------------------------------------------------
      1          8           0        0.018360   -3.446202    0.000000
      2          1           0       -0.781473   -4.016967    0.000000
      3          1           0        0.817669   -4.017700    0.000000
      4          8           0        0.018360    3.452247    0.000000
      5          1           0        0.592279    4.249820    0.000000
      6          1           0       -0.922232    3.736486    0.000000
 ---------------------------------------------------------------------

 SCF Done:  E(RHF) =  -152.107005291     A.U. after   10 cycles
 E2 =    -0.5259087218D+00 EUMP2 =    -0.15263291401325D+03
 CCSD(T)
 CCSD(T)= -0.15266014307D+03

 The electronic state is 1-A'.
 Alpha  occ. eigenvalues --  -20.55290 -20.55261  -1.32586  -1.32557  -0.69993
 Alpha  occ. eigenvalues --   -0.69963  -0.56015  -0.55986  -0.49695  -0.49666
 Alpha virt. eigenvalues --    0.14354   0.14384   0.20408   0.20438   0.54574
 Alpha virt. eigenvalues --    0.54606   0.57456   0.57486   0.68205   0.68236
 Alpha virt. eigenvalues --    0.79184   0.79213   0.80625   0.80656   0.82550

 Mulliken charges:
               1
     1  O   -0.506487
     2  H    0.252920
     3  H    0.253568
     4  O   -0.506463
     5  H    0.252760
     6  H    0.253704
 Sum of Mulliken charges =  -0.00000

 Dipole moment (field-independent basis, Debye):
    X=             -0.6316    Y=             -0.1052    Z=              0.0000  Tot=              0.6403
 Quadrupole moment (field-independent basis, Debye-Ang):
   XX=             -8.0128   YY=             15.0306   ZZ=            -14.7110
   XY=             -1.6341   XZ=              0.0000   YZ=              0.0000

 Normal termination of Gaussian 16 at Sat Aug 27 10:27:27 2022.
