 Gaussian 16, Revision A.03,
 Gaussian 16:  ES64L-G16RevA.03 25-Dec-2016

 ------------------
 #p CCSD(T)/cc-pVTZ
 ------------------

 ------------
 H2O_H2O_2821
 ------------
 Symbolic Z-matrix:
 Charge =  0 Multiplicity = 1

                         Standard orientation:
 ---------------------------------------------------------------------
 Center     Atomic      Atomic             Coordinates (Angstroms)
 Number     Number       Type             X           Y           Z
 ---------------------------------------------------------------------
      1          8           0        0.056113   -2.242936    0.000000
      2          1           0       -0.744660   -2.812382    0.000000
      3          1           0        0.854478   -2.815751    0.000000
      4          8           0        0.056113    2.334641    0.000000
      5          1           0       -0.346169    3.231121    0.000000
      6          1           0       -0.661450    1.663366    0.000000
 ---------------------------------------------------------------------

 SCF Done:  E(RHF) =  -152.107837643     A.U. after   10 cycles
 E2 =    -0.5259856740D+00 EUMP2 =    -0.15263382331734D+03
 CCSD(T)
 CCSD(T)= -0.15266101890D+03

 The electronic state is 1-A'.
 Alpha  occ. eigenvalues --  -20.55768 -20.54665  -1.33057  -1.31961  -0.70464
 Alpha  occ. eigenvalues --   -0.69344  -0.56514  -0.55413  -0.50172  -0.49081
 Alpha virt. eigenvalues --    0.13323   0.15449   0.19984   0.21577   0.54013
 Alpha virt. eigenvalues --    0.54813   0.57075   0.58051   0.66531   0.71249
 Alpha virt. eigenvalues --    0.78717   0.79678   0.79778   0.80729   0.82725

 Mulliken charges:
               1
     1  O   -0.508911
     2  H    0.251915
     3  H    0.257863
     4  O   -0.509930
     5  H    0.248797
     6  H    0.260266
 Sum of Mulliken charges =  -0.00000

 Dipole moment (field-independent basis, Debye):
    X=             -1.9120    Y=             -1.6442    Z=              0.0000  Tot=              2.5217
 Quadrupole moment (field-independent basis, Debye-Ang):
   XX=             -9.7823   YY=              0.7746   ZZ=            -14.7143
   XY=             -4.2944   XZ=              0.0000   YZ=              0.0000

 Normal termination of Gaussian 16 at Fri Aug 26 16:29:24 2022.
