 Gaussian 16, Revision A.03,
 Gaussian 16:  ES64L-G16RevA.03 25-Dec-2016

 ------------------
 #p CCSD(T)/cc-pVTZ
 ------------------

 ------------
 H2O_H2O_1642
 ------------
 Symbolic Z-matrix:
 Charge =  0 Multiplicity = 1

                         Standard orientation:
 ---------------------------------------------------------------------
 Center     Atomic      Atomic             Coordinates (Angstroms)
 Number     Number       Type             X           Y           Z
 ---------------------------------------------------------------------
      1          8           0        0.051307   -1.633380    0.000000
      2          1           0       -0.749773   -2.202392    0.000000
      3          1           0        0.849363   -2.206627    0.000000
      4          8           0        0.051307    1.696814    0.000000
      5          1           0       -0.104715    2.666949    0.000000
      6          1           0       -0.815794    1.234599    0.000000
 ---------------------------------------------------------------------

 SCF Done:  E(RHF) =  -152.106728613     A.U. after   10 cycles
 E2 =    -0.5267834713D+00 EUMP2 =    -0.15263351208420D+03
 CCSD(T)
 CCSD(T)= -0.15266068743D+03

 The electronic state is 1-A'.
 Alpha  occ. eigenvalues --  -20.55438 -20.53934  -1.32717  -1.31199  -0.70136
 Alpha  occ. eigenvalues --   -0.68581  -0.56132  -0.54538  -0.49831  -0.48316
 Alpha virt. eigenvalues --    0.13510   0.16572   0.20025   0.22938   0.54357
 Alpha virt. eigenvalues --    0.54599   0.57318   0.58445   0.65260   0.76319
 Alpha virt. eigenvalues --    0.77804   0.77904   0.78632   0.81399   0.84914

 Mulliken charges:
               1
     1  O   -0.490994
     2  H    0.241700
     3  H    0.253601
     4  O   -0.497971
     5  H    0.237452
     6  H    0.256212
 Sum of Mulliken charges =  -0.00000

 Dipole moment (field-independent basis, Debye):
    X=             -1.6993    Y=             -1.1984    Z=              0.0000  Tot=              2.0794
 Quadrupole moment (field-independent basis, Debye-Ang):
   XX=             -9.4753   YY=             -0.9928   ZZ=            -14.7167
   XY=             -2.4011   XZ=              0.0000   YZ=              0.0000

 Normal termination of Gaussian 16 at Sat Aug 27 05:56:54 2022.
