 Gaussian 16, Revision A.03,
 Gaussian 16:  ES64L-G16RevA.03 25-Dec-2016

 ------------------
 #p CCSD(T)/cc-pVTZ
 ------------------

 ------------
 H2O_H2O_1179
 ------------
 Symbolic Z-matrix:
 Charge =  0 Multiplicity = 1

                         Standard orientation:
 ---------------------------------------------------------------------
 Center     Atomic      Atomic             Coordinates (Angstroms)
 Number     Number       Type             X           Y           Z
 ---------------------------------------------------------------------
      1          8           0        0.014784   -1.426407    0.000000
      2          1           0       -0.785296   -1.996826    0.000000
      3          1           0        0.813846   -1.998251    0.000000
      4          8           0        0.014784    1.430272    0.000000
      5          1           0        0.639966    2.188332    0.000000
      6          1           0       -0.905056    1.775819    0.000000
 ---------------------------------------------------------------------

 SCF Done:  E(RHF) =  -152.099994246     A.U. after   11 cycles
 E2 =    -0.5277475049D+00 EUMP2 =    -0.15262774175070D+03
 CCSD(T)
 CCSD(T)= -0.15265504670D+03

 The electronic state is 1-A'.
 Alpha  occ. eigenvalues --  -20.53736 -20.53637  -1.31201  -1.30842  -0.68595
 Alpha  occ. eigenvalues --   -0.68320  -0.55876  -0.52382  -0.48426  -0.47757
 Alpha virt. eigenvalues --    0.14385   0.16920   0.20544   0.22040   0.51439
 Alpha virt. eigenvalues --    0.58449   0.58721   0.60590   0.68690   0.76429
 Alpha virt. eigenvalues --    0.77297   0.78407   0.79181   0.83133   0.86176

 Mulliken charges:
               1
     1  O   -0.469984
     2  H    0.232136
     3  H    0.237761
     4  O   -0.467566
     5  H    0.231254
     6  H    0.236399
 Sum of Mulliken charges =  -0.00000

 Dipole moment (field-independent basis, Debye):
    X=             -0.4789    Y=             -0.0733    Z=              0.0000  Tot=              0.4845
 Quadrupole moment (field-independent basis, Debye-Ang):
   XX=             -8.0504   YY=             -1.1538   ZZ=            -14.7130
   XY=             -0.3051   XZ=              0.0000   YZ=              0.0000

 Normal termination of Gaussian 16 at Sat Aug 27 02:46:21 2022.
