 Gaussian 16, Revision A.03,
 Gaussian 16:  ES64L-G16RevA.03 25-Dec-2016

 ------------------
 #p CCSD(T)/cc-pVTZ
 ------------------

 ------------
 H2O_H2O_3277
 ------------
 Symbolic Z-matrix:
 Charge =  0 Multiplicity = 1

                         Standard orientation:
 ---------------------------------------------------------------------
 Center     Atomic      Atomic             Coordinates (Angstroms)
 Number     Number       Type             X           Y           Z
 ---------------------------------------------------------------------
      1          8           0        0.007455   -2.544834    0.000000
      2          1           0       -0.792260   -3.115765    0.000000
      3          1           0        0.806882   -3.116168    0.000000
      4          8           0        0.007455    2.545808    0.000000
      5          1           0        0.725807    3.216238    0.000000
      6          1           0       -0.859708    3.007907    0.000000
 ---------------------------------------------------------------------

 SCF Done:  E(RHF) =  -152.106233390     A.U. after   10 cycles
 E2 =    -0.5260112611D+00 EUMP2 =    -0.15263224465110D+03
 CCSD(T)
 CCSD(T)= -0.15265948797D+03

 The electronic state is 1-A'.
 Alpha  occ. eigenvalues --  -20.54953 -20.54944  -1.32246  -1.32237  -0.69656
 Alpha  occ. eigenvalues --   -0.69647  -0.55644  -0.55621  -0.49349  -0.49340
 Alpha virt. eigenvalues --    0.14456   0.14802   0.20588   0.20702   0.54840
 Alpha virt. eigenvalues --    0.55004   0.57712   0.57767   0.67711   0.69583
 Alpha virt. eigenvalues --    0.79516   0.79546   0.80946   0.81028   0.82743

 Mulliken charges:
               1
     1  O   -0.501956
     2  H    0.250668
     3  H    0.251288
     4  O   -0.501939
     5  H    0.250566
     6  H    0.251373
 Sum of Mulliken charges =  -0.00000

 Dipole moment (field-independent basis, Debye):
    X=             -0.2549    Y=             -0.0171    Z=              0.0000  Tot=              0.2554
 Quadrupole moment (field-independent basis, Debye-Ang):
   XX=             -7.8481   YY=              8.2490   ZZ=            -14.7099
   XY=             -0.4225   XZ=              0.0000   YZ=              0.0000

 9313\MP4DQ=-152.6413653\MP4SDQ=-152.6444312\CCSD=-152.6438407\CCSD(T)=
 Normal termination of Gaussian 16 at Fri Aug 26 20:57:57 2022.
