 Gaussian 16, Revision A.03,
 Gaussian 16:  ES64L-G16RevA.03 25-Dec-2016

 ------------------
 #p CCSD(T)/cc-pVTZ
 ------------------

 ------------
 H2O_H2O_2697
 ------------
 Symbolic Z-matrix:
 Charge =  0 Multiplicity = 1

                         Standard orientation:
 ---------------------------------------------------------------------
 Center     Atomic      Atomic             Coordinates (Angstroms)
 Number     Number       Type             X           Y           Z
 ---------------------------------------------------------------------
      1          8           0        0.056733   -2.172458    0.000000
      2          1           0       -0.744089   -2.741834    0.000000
      3          1           0        0.855050   -2.745342    0.000000
      4          8           0        0.056733    2.271526    0.000000
      5          1           0       -0.403244    3.139816    0.000000
      6          1           0       -0.615452    1.554816    0.000000
 ---------------------------------------------------------------------

 SCF Done:  E(RHF) =  -152.108102830     A.U. after   10 cycles
 E2 =    -0.5260101191D+00 EUMP2 =    -0.15263411294915D+03
 CCSD(T)
 CCSD(T)= -0.15266129803D+03

 The electronic state is 1-A'.
 Alpha  occ. eigenvalues --  -20.55873 -20.54587  -1.33159  -1.31885  -0.70565
 Alpha  occ. eigenvalues --   -0.69264  -0.56624  -0.55343  -0.50276  -0.49007
 Alpha virt. eigenvalues --    0.13171   0.15597   0.19922   0.21859   0.53979
 Alpha virt. eigenvalues --    0.54772   0.56998   0.58197   0.66481   0.71680
 Alpha virt. eigenvalues --    0.78612   0.79511   0.79852   0.80735   0.82627

 Mulliken charges:
               1
     1  O   -0.508881
     2  H    0.251949
     3  H    0.258302
     4  O   -0.511074
     5  H    0.248506
     6  H    0.261199
 Sum of Mulliken charges =  -0.00000

 Dipole moment (field-independent basis, Debye):
    X=             -1.9305    Y=             -1.7854    Z=              0.0000  Tot=              2.6295
 Quadrupole moment (field-independent basis, Debye-Ang):
   XX=             -9.8257   YY=             -0.0808   ZZ=            -14.7152
   XY=             -4.3450   XZ=              0.0000   YZ=              0.0000

 Normal termination of Gaussian 16 at Fri Aug 26 15:11:39 2022.
