 Gaussian 16, Revision A.03,
 Gaussian 16:  ES64L-G16RevA.03 25-Dec-2016

 ------------------
 #p CCSD(T)/cc-pVTZ
 ------------------

 ------------
 H2O_H2O_3640
 ------------
 Symbolic Z-matrix:
 Charge =  0 Multiplicity = 1

                         Standard orientation:
 ---------------------------------------------------------------------
 Center     Atomic      Atomic             Coordinates (Angstroms)
 Number     Number       Type             X           Y           Z
 ---------------------------------------------------------------------
      1          8           0        0.047526   -2.704012    0.000000
      2          1           0       -0.752900   -3.273946    0.000000
      3          1           0        0.846241   -3.276341    0.000000
      4          8           0        0.047526    2.754636    0.000000
      5          1           0        0.018336    3.736804    0.000000
      6          1           0       -0.872091    2.408497    0.000000
 ---------------------------------------------------------------------

 SCF Done:  E(RHF) =  -152.107070303     A.U. after   10 cycles
 E2 =    -0.5259296526D+00 EUMP2 =    -0.15263299995578D+03
 CCSD(T)
 CCSD(T)= -0.15266022581D+03

 The electronic state is 1-A'.
 Alpha  occ. eigenvalues --  -20.55399 -20.55000  -1.32696  -1.32295  -0.70104
 Alpha  occ. eigenvalues --   -0.69693  -0.56128  -0.55726  -0.49805  -0.49406
 Alpha virt. eigenvalues --    0.14143   0.14732   0.20283   0.20760   0.54443
 Alpha virt. eigenvalues --    0.54888   0.57348   0.57745   0.67786   0.68833
 Alpha virt. eigenvalues --    0.79075   0.79466   0.80502   0.80896   0.82541

 Mulliken charges:
               1
     1  O   -0.506912
     2  H    0.251836
     3  H    0.255089
     4  O   -0.506545
     5  H    0.250589
     6  H    0.255943
 Sum of Mulliken charges =  -0.00000

 Dipole moment (field-independent basis, Debye):
    X=             -1.6288    Y=             -0.8899    Z=              0.0000  Tot=              1.8560
 Quadrupole moment (field-independent basis, Debye-Ang):
   XX=             -9.2250   YY=              6.3082   ZZ=            -14.7115
   XY=             -3.7324   XZ=              0.0000   YZ=              0.0000

 Normal termination of Gaussian 16 at Sat Aug 27 02:08:20 2022.
