 Gaussian 16, Revision A.03,
 Gaussian 16:  ES64L-G16RevA.03 25-Dec-2016

 ------------------
 #p CCSD(T)/cc-pVTZ
 ------------------

 ------------
 H2O_H2O_2384
 ------------
 Symbolic Z-matrix:
 Charge =  0 Multiplicity = 1

                         Standard orientation:
 ---------------------------------------------------------------------
 Center     Atomic      Atomic             Coordinates (Angstroms)
 Number     Number       Type             X           Y           Z
 ---------------------------------------------------------------------
      1          8           0        0.031743   -2.056300    0.000000
      2          1           0       -0.768582   -2.626375    0.000000
      3          1           0        0.830558   -2.628489    0.000000
      4          8           0        0.031743    2.075467    0.000000
      5          1           0        0.380473    2.994104    0.000000
      6          1           0       -0.950339    2.107426    0.000000
 ---------------------------------------------------------------------

 SCF Done:  E(RHF) =  -152.105802580     A.U. after   10 cycles
 E2 =    -0.5262023198D+00 EUMP2 =    -0.15263200490015D+03
 CCSD(T)
 CCSD(T)= -0.15265924209D+03

 The electronic state is 1-A'.
 Alpha  occ. eigenvalues --  -20.54864 -20.54593  -1.32150  -1.31876  -0.69565
 Alpha  occ. eigenvalues --   -0.69279  -0.55548  -0.55194  -0.49252  -0.48978
 Alpha virt. eigenvalues --    0.14014   0.15552   0.20476   0.21186   0.54105
 Alpha virt. eigenvalues --    0.55531   0.57768   0.58080   0.64062   0.74020
 Alpha virt. eigenvalues --    0.79448   0.80057   0.80652   0.81162   0.82525

 Mulliken charges:
               1
     1  O   -0.498264
     2  H    0.246917
     3  H    0.251555
     4  O   -0.497954
     5  H    0.245830
     6  H    0.251916
 Sum of Mulliken charges =  -0.00000

 Dipole moment (field-independent basis, Debye):
    X=             -1.0750    Y=             -0.3456    Z=              0.0000  Tot=              1.1292
 Quadrupole moment (field-independent basis, Debye-Ang):
   XX=             -8.4557   YY=              3.6326   ZZ=            -14.7104
   XY=             -1.4689   XZ=              0.0000   YZ=              0.0000

 Normal termination of Gaussian 16 at Sat Aug 27 10:15:44 2022.
