 Gaussian 16, Revision A.03,
 Gaussian 16:  ES64L-G16RevA.03 25-Dec-2016

 ------------------
 #p CCSD(T)/cc-pVTZ
 ------------------

 ------------
 H2O_H2O_1486
 ------------
 Symbolic Z-matrix:
 Charge =  0 Multiplicity = 1

                         Standard orientation:
 ---------------------------------------------------------------------
 Center     Atomic      Atomic             Coordinates (Angstroms)
 Number     Number       Type             X           Y           Z
 ---------------------------------------------------------------------
      1          8           0        0.037686   -1.572745    0.000000
      2          1           0       -0.763050   -2.142242    0.000000
      3          1           0        0.836089   -2.145509    0.000000
      4          8           0        0.037686    1.600937    0.000000
      5          1           0        0.264216    2.557070    0.000000
      6          1           0       -0.940235    1.505140    0.000000
 ---------------------------------------------------------------------

 SCF Done:  E(RHF) =  -152.104178047     A.U. after   10 cycles
 E2 =    -0.5270566152D+00 EUMP2 =    -0.15263123466178D+03
 CCSD(T)
 CCSD(T)= -0.15265846846D+03

 The electronic state is 1-A'.
 Alpha  occ. eigenvalues --  -20.54612 -20.53942  -1.31909  -1.31198  -0.69335
 Alpha  occ. eigenvalues --   -0.68605  -0.55647  -0.53984  -0.49032  -0.48272
 Alpha virt. eigenvalues --    0.13978   0.16556   0.20345   0.22175   0.53213
 Alpha virt. eigenvalues --    0.56795   0.57948   0.58729   0.64945   0.76784
 Alpha virt. eigenvalues --    0.77927   0.78574   0.79193   0.82035   0.85552

 Mulliken charges:
               1
     1  O   -0.482731
     2  H    0.236967
     3  H    0.247307
     4  O   -0.481873
     5  H    0.233321
     6  H    0.247008
 Sum of Mulliken charges =  -0.00000

 Dipole moment (field-independent basis, Debye):
    X=             -1.2404    Y=             -0.5318    Z=              0.0000  Tot=              1.3496
 Quadrupole moment (field-independent basis, Debye-Ang):
   XX=             -8.7484   YY=             -0.3192   ZZ=            -14.7126
   XY=             -1.2507   XZ=              0.0000   YZ=              0.0000

 Normal termination of Gaussian 16 at Sat Aug 27 05:03:13 2022.
