 Gaussian 16, Revision A.03,
 Gaussian 16:  ES64L-G16RevA.03 25-Dec-2016

 ------------------
 #p CCSD(T)/cc-pVTZ
 ------------------

 ------------
 H2O_H2O_2134
 ------------
 Symbolic Z-matrix:
 Charge =  0 Multiplicity = 1

                         Standard orientation:
 ---------------------------------------------------------------------
 Center     Atomic      Atomic             Coordinates (Angstroms)
 Number     Number       Type             X           Y           Z
 ---------------------------------------------------------------------
      1          8           0        0.031744   -1.923344    0.000000
      2          1           0       -0.768633   -2.493346    0.000000
      3          1           0        0.830507   -2.495605    0.000000
      4          8           0        0.031744    1.942505    0.000000
      5          1           0        0.380557    2.861110    0.000000
      6          1           0       -0.950335    1.974554    0.000000
 ---------------------------------------------------------------------

 SCF Done:  E(RHF) =  -152.105495389     A.U. after   10 cycles
 E2 =    -0.5263434365D+00 EUMP2 =    -0.15263183882597D+03
 CCSD(T)
 CCSD(T)= -0.15265907227D+03

 The electronic state is 1-A'.
 Alpha  occ. eigenvalues --  -20.54776 -20.54462  -1.32057  -1.31738  -0.69475
 Alpha  occ. eigenvalues --   -0.69142  -0.55491  -0.54972  -0.49160  -0.48838
 Alpha virt. eigenvalues --    0.13963   0.15806   0.20464   0.21367   0.53620
 Alpha virt. eigenvalues --    0.55728   0.57836   0.58218   0.63048   0.75316
 Alpha virt. eigenvalues --    0.79303   0.80030   0.80409   0.81060   0.82857

 Mulliken charges:
               1
     1  O   -0.494881
     2  H    0.244899
     3  H    0.250376
     4  O   -0.494864
     5  H    0.243668
     6  H    0.250802
 Sum of Mulliken charges =  -0.00000

 Dipole moment (field-independent basis, Debye):
    X=             -1.0697    Y=             -0.3496    Z=              0.0000  Tot=              1.1253
 Quadrupole moment (field-independent basis, Debye-Ang):
   XX=             -8.4626   YY=              2.6284   ZZ=            -14.7104
   XY=             -1.3277   XZ=              0.0000   YZ=              0.0000

 Normal termination of Gaussian 16 at Sat Aug 27 08:46:44 2022.
