 Gaussian 16, Revision A.03,
 Gaussian 16:  ES64L-G16RevA.03 25-Dec-2016

 ------------------
 #p CCSD(T)/cc-pVTZ
 ------------------

 ------------
 H2O_H2O_2680
 ------------
 Symbolic Z-matrix:
 Charge =  0 Multiplicity = 1

                         Standard orientation:
 ---------------------------------------------------------------------
 Center     Atomic      Atomic             Coordinates (Angstroms)
 Number     Number       Type             X           Y           Z
 ---------------------------------------------------------------------
      1          8           0        0.018361   -2.222983    0.000000
      2          1           0       -0.781616   -2.793547    0.000000
      3          1           0        0.817526   -2.794683    0.000000
      4          8           0        0.018361    2.229019    0.000000
      5          1           0        0.592481    3.026447    0.000000
      6          1           0       -0.922160    2.513495    0.000000
 ---------------------------------------------------------------------

 SCF Done:  E(RHF) =  -152.105792332     A.U. after   10 cycles
 E2 =    -0.5261131159D+00 EUMP2 =    -0.15263190544748D+03
 CCSD(T)
 CCSD(T)= -0.15265915234D+03

 The electronic state is 1-A'.
 Alpha  occ. eigenvalues --  -20.54812 -20.54741  -1.32102  -1.32029  -0.69514
 Alpha  occ. eigenvalues --   -0.69439  -0.55500  -0.55359  -0.49203  -0.49130
 Alpha virt. eigenvalues --    0.14274   0.15228   0.20589   0.20927   0.54681
 Alpha virt. eigenvalues --    0.55437   0.57791   0.57957   0.65366   0.72214
 Alpha virt. eigenvalues --    0.79588   0.79824   0.81106   0.81185   0.82258

 Mulliken charges:
               1
     1  O   -0.499173
     2  H    0.248495
     3  H    0.250699
     4  O   -0.498994
     5  H    0.248102
     6  H    0.250871
 Sum of Mulliken charges =  -0.00000

 Dipole moment (field-independent basis, Debye):
    X=             -0.6244    Y=             -0.1076    Z=              0.0000  Tot=              0.6336
 Quadrupole moment (field-independent basis, Debye-Ang):
   XX=             -8.0334   YY=              5.4443   ZZ=            -14.7097
   XY=             -0.8726   XZ=              0.0000   YZ=              0.0000

 Normal termination of Gaussian 16 at Fri Aug 26 15:00:57 2022.
