 Gaussian 16, Revision A.03,
 Gaussian 16:  ES64L-G16RevA.03 25-Dec-2016

 ------------------
 #p CCSD(T)/cc-pVTZ
 ------------------

 -----------
 H2O_H2O_777
 -----------
 Symbolic Z-matrix:
 Charge =  0 Multiplicity = 1

                         Standard orientation:
 ---------------------------------------------------------------------
 Center     Atomic      Atomic             Coordinates (Angstroms)
 Number     Number       Type             X           Y           Z
 ---------------------------------------------------------------------
      1          8           0        0.007455   -1.215246    0.000000
      2          1           0       -0.792417   -1.785956    0.000000
      3          1           0        0.806725   -1.786799    0.000000
      4          8           0        0.007455    1.216215    0.000000
      5          1           0        0.725992    1.886447    0.000000
      6          1           0       -0.859580    1.678553    0.000000
 ---------------------------------------------------------------------

 SCF Done:  E(RHF) =  -152.089563335     A.U. after   11 cycles
 E2 =    -0.5296568242D+00 EUMP2 =    -0.15261922015881D+03
 CCSD(T)
 CCSD(T)= -0.15264650227D+03

 The electronic state is 1-A'.
 Alpha  occ. eigenvalues --  -20.52938 -20.52909  -1.31030  -1.29959  -0.68269
 Alpha  occ. eigenvalues --   -0.67562  -0.57343  -0.49431  -0.48336  -0.46678
 Alpha virt. eigenvalues --    0.14520   0.17617   0.20574   0.22406   0.50371
 Alpha virt. eigenvalues --    0.58886   0.58932   0.63575   0.72956   0.76689
 Alpha virt. eigenvalues --    0.77203   0.79865   0.84097   0.86547   0.86628

 Mulliken charges:
               1
     1  O   -0.457392
     2  H    0.226772
     3  H    0.230383
     4  O   -0.455866
     5  H    0.225403
     6  H    0.230700
 Sum of Mulliken charges =  -0.00000

 Dipole moment (field-independent basis, Debye):
    X=             -0.2318    Y=             -0.0189    Z=              0.0000  Tot=              0.2326
 Quadrupole moment (field-independent basis, Debye-Ang):
   XX=             -8.0324   YY=             -3.2100   ZZ=            -14.7285
   XY=             -0.1004   XZ=              0.0000   YZ=              0.0000

 Normal termination of Gaussian 16 at Fri Aug 26 19:53:37 2022.
