 Gaussian 16, Revision A.03,
 Gaussian 16:  ES64L-G16RevA.03 25-Dec-2016

 ------------------
 #p CCSD(T)/cc-pVTZ
 ------------------

 -----------
 H2O_H2O_345
 -----------
 Symbolic Z-matrix:
 Charge =  0 Multiplicity = 1

                         Standard orientation:
 ---------------------------------------------------------------------
 Center     Atomic      Atomic             Coordinates (Angstroms)
 Number     Number       Type             X           Y           Z
 ---------------------------------------------------------------------
      1          8           0        0.055373   -0.930752    0.000000
      2          1           0       -0.746976   -1.497974    0.000000
      3          1           0        0.852146   -1.505780    0.000000
      4          8           0        0.055373    1.014874    0.000000
      5          1           0       -0.284858    1.936693    0.000000
      6          1           0       -0.706282    0.394078    0.000000
 ---------------------------------------------------------------------

 SCF Done:  E(RHF) =  -152.038152840     A.U. after   11 cycles
 E2 =    -0.5386566941D+00 EUMP2 =    -0.15257680953398D+03
 CCSD(T)
 CCSD(T)= -0.15260305915D+03

 The electronic state is 1-A'.
 Alpha  occ. eigenvalues --  -20.55388 -20.50227  -1.36203  -1.27619  -0.73828
 Alpha  occ. eigenvalues --   -0.70073  -0.53320  -0.52342  -0.48706  -0.44547
 Alpha virt. eigenvalues --    0.13303   0.18887   0.19460   0.25657   0.50574
 Alpha virt. eigenvalues --    0.55463   0.61608   0.65511   0.72530   0.75496
 Alpha virt. eigenvalues --    0.79639   0.80838   0.83919   0.85056   0.88010

 Mulliken charges:
               1
     1  O   -0.382502
     2  H    0.192673
     3  H    0.228912
     4  O   -0.464957
     5  H    0.171418
     6  H    0.254457
 Sum of Mulliken charges =  -0.00000

 Dipole moment (field-independent basis, Debye):
    X=             -1.5738    Y=             -1.9084    Z=              0.0000  Tot=              2.4736
 Quadrupole moment (field-independent basis, Debye-Ang):
   XX=             -9.7697   YY=             -6.8749   ZZ=            -14.6518
   XY=             -1.6625   XZ=              0.0000   YZ=              0.0000

 Normal termination of Gaussian 16 at Fri Aug 26 15:30:22 2022.
