 Gaussian 16, Revision A.03,
 Gaussian 16:  ES64L-G16RevA.03 25-Dec-2016

 ------------------
 #p CCSD(T)/cc-pVTZ
 ------------------

 -----------
 H2O_H2O_678
 -----------
 Symbolic Z-matrix:
 Charge =  0 Multiplicity = 1

                         Standard orientation:
 ---------------------------------------------------------------------
 Center     Atomic      Atomic             Coordinates (Angstroms)
 Number     Number       Type             X           Y           Z
 ---------------------------------------------------------------------
      1          8           0        0.011143   -1.161406    0.000000
      2          1           0       -0.788899   -1.731878    0.000000
      3          1           0        0.810243   -1.733198    0.000000
      4          8           0        0.011143    1.163583    0.000000
      5          1           0        0.684519    1.879173    0.000000
      6          1           0       -0.884153    1.568490    0.000000
 ---------------------------------------------------------------------

 SCF Done:  E(RHF) =  -152.084381467     A.U. after   11 cycles
 E2 =    -0.5305223064D+00 EUMP2 =    -0.15261490377387D+03
 CCSD(T)
 CCSD(T)= -0.15264213532D+03

 The electronic state is 1-A'.
 Alpha  occ. eigenvalues --  -20.52738 -20.52672  -1.31115  -1.29677  -0.68271
 Alpha  occ. eigenvalues --   -0.67340  -0.57971  -0.48431  -0.48406  -0.46335
 Alpha virt. eigenvalues --    0.14542   0.17784   0.20562   0.22536   0.50442
 Alpha virt. eigenvalues --    0.58943   0.58998   0.64161   0.72173   0.76783
 Alpha virt. eigenvalues --    0.77511   0.80709   0.84213   0.86596   0.86823

 Mulliken charges:
               1
     1  O   -0.453953
     2  H    0.223861
     3  H    0.229497
     4  O   -0.450081
     5  H    0.220033
     6  H    0.230642
 Sum of Mulliken charges =   0.00000

 Dipole moment (field-independent basis, Debye):
    X=             -0.3417    Y=             -0.0430    Z=              0.0000  Tot=              0.3444
 Quadrupole moment (field-independent basis, Debye-Ang):
   XX=             -8.1015   YY=             -3.7875   ZZ=            -14.7342
   XY=             -0.1382   XZ=              0.0000   YZ=              0.0000

 Normal termination of Gaussian 16 at Fri Aug 26 18:57:58 2022.
