 Gaussian 16, Revision A.03,
 Gaussian 16:  ES64L-G16RevA.03 25-Dec-2016

 ------------------
 #p CCSD(T)/cc-pVTZ
 ------------------

 ------------
 H2O_H2O_3908
 ------------
 Symbolic Z-matrix:
 Charge =  0 Multiplicity = 1

                         Standard orientation:
 ---------------------------------------------------------------------
 Center     Atomic      Atomic             Coordinates (Angstroms)
 Number     Number       Type             X           Y           Z
 ---------------------------------------------------------------------
      1          8           0        0.028563   -2.869476    0.000000
      2          1           0       -0.771496   -3.439924    0.000000
      3          1           0        0.827646   -3.441291    0.000000
      4          8           0        0.028563    2.884730    0.000000
      5          1           0        0.436211    3.778783    0.000000
      6          1           0       -0.949371    2.980396    0.000000
 ---------------------------------------------------------------------

 SCF Done:  E(RHF) =  -152.106753950     A.U. after   10 cycles
 E2 =    -0.5259456470D+00 EUMP2 =    -0.15263269959711D+03
 CCSD(T)
 CCSD(T)= -0.15265993310D+03

 The electronic state is 1-A'.
 Alpha  occ. eigenvalues --  -20.55192 -20.55086  -1.32488  -1.32380  -0.69895
 Alpha  occ. eigenvalues --   -0.69785  -0.55905  -0.55798  -0.49594  -0.49488
 Alpha virt. eigenvalues --    0.14397   0.14568   0.20463   0.20591   0.54669
 Alpha virt. eigenvalues --    0.54795   0.57533   0.57644   0.68211   0.68572
 Alpha virt. eigenvalues --    0.79284   0.79389   0.80728   0.80846   0.82663

 Mulliken charges:
               1
     1  O   -0.505023
     2  H    0.251667
     3  H    0.253357
     4  O   -0.504896
     5  H    0.251233
     6  H    0.253663
 Sum of Mulliken charges =  -0.00000

 Dipole moment (field-independent basis, Debye):
    X=             -0.9797    Y=             -0.2672    Z=              0.0000  Tot=              1.0155
 Quadrupole moment (field-independent basis, Debye-Ang):
   XX=             -8.3187   YY=              9.9342   ZZ=            -14.7107
   XY=             -2.0683   XZ=              0.0000   YZ=              0.0000

 Normal termination of Gaussian 16 at Sat Aug 27 04:13:13 2022.
