 Gaussian 16, Revision A.03,
 Gaussian 16:  ES64L-G16RevA.03 25-Dec-2016

 ------------------
 #p CCSD(T)/cc-pVTZ
 ------------------

 ------------
 H2O_H2O_3765
 ------------
 Symbolic Z-matrix:
 Charge =  0 Multiplicity = 1

                         Standard orientation:
 ---------------------------------------------------------------------
 Center     Atomic      Atomic             Coordinates (Angstroms)
 Number     Number       Type             X           Y           Z
 ---------------------------------------------------------------------
      1          8           0        0.047525   -2.770490    0.000000
      2          1           0       -0.752880   -3.340452    0.000000
      3          1           0        0.846260   -3.342790    0.000000
      4          8           0        0.047525    2.821116    0.000000
      5          1           0        0.018300    3.803284    0.000000
      6          1           0       -0.872079    2.474946    0.000000
 ---------------------------------------------------------------------

 SCF Done:  E(RHF) =  -152.107096746     A.U. after   10 cycles
 E2 =    -0.5259226657D+00 EUMP2 =    -0.15263301941215D+03
 CCSD(T)
 CCSD(T)= -0.15266024506D+03

 The electronic state is 1-A'.
 Alpha  occ. eigenvalues --  -20.55410 -20.55031  -1.32707  -1.32326  -0.70114
 Alpha  occ. eigenvalues --   -0.69724  -0.56140  -0.55758  -0.49816  -0.49437
 Alpha virt. eigenvalues --    0.14165   0.14680   0.20283   0.20723   0.54439
 Alpha virt. eigenvalues --    0.54857   0.57340   0.57720   0.67867   0.68686
 Alpha virt. eigenvalues --    0.79064   0.79436   0.80496   0.80879   0.82493

 Mulliken charges:
               1
     1  O   -0.507070
     2  H    0.252021
     3  H    0.255056
     4  O   -0.506735
     5  H    0.250855
     6  H    0.255873
 Sum of Mulliken charges =  -0.00000

 Dipole moment (field-independent basis, Debye):
    X=             -1.6297    Y=             -0.8888    Z=              0.0000  Tot=              1.8563
 Quadrupole moment (field-independent basis, Debye-Ang):
   XX=             -9.2249   YY=              6.7240   ZZ=            -14.7115
   XY=             -3.8397   XZ=              0.0000   YZ=              0.0000

 Normal termination of Gaussian 16 at Sat Aug 27 03:08:02 2022.
