 Gaussian 16, Revision A.03,
 Gaussian 16:  ES64L-G16RevA.03 25-Dec-2016

 ------------------
 #p CCSD(T)/cc-pVTZ
 ------------------

 ----------
 H2O_H2O_94
 ----------
 Symbolic Z-matrix:
 Charge =  0 Multiplicity = 1

                         Standard orientation:
 ---------------------------------------------------------------------
 Center     Atomic      Atomic             Coordinates (Angstroms)
 Number     Number       Type             X           Y           Z
 ---------------------------------------------------------------------
      1          8           0        0.054296   -0.801709    0.000000
      2          1           0       -0.748427   -1.368402    0.000000
      3          1           0        0.850690   -1.377263    0.000000
      4          8           0        0.054296    0.878618    0.000000
      5          1           0       -0.224296    1.820898    0.000000
      6          1           0       -0.746706    0.309494    0.000000
 ---------------------------------------------------------------------

 SCF Done:  E(RHF) =  -151.934342401     A.U. after   12 cycles
 E2 =    -0.5491926301D+00 EUMP2 =    -0.15248353503095D+03
 CCSD(T)
 CCSD(T)= -0.15250847686D+03

 The electronic state is 1-A'.
 Alpha  occ. eigenvalues --  -20.54790 -20.49613  -1.40168  -1.26218  -0.77170
 Alpha  occ. eigenvalues --   -0.71832  -0.54609  -0.53403  -0.43227  -0.41372
 Alpha virt. eigenvalues --    0.13353   0.18744   0.19971   0.25110   0.50540
 Alpha virt. eigenvalues --    0.54946   0.61193   0.67579   0.73175   0.76637
 Alpha virt. eigenvalues --    0.78682   0.80738   0.84118   0.84743   0.88833

 Mulliken charges:
               1
     1  O   -0.308331
     2  H    0.152947
     3  H    0.202943
     4  O   -0.417024
     5  H    0.116939
     6  H    0.252526
 Sum of Mulliken charges =  -0.00000

 Dipole moment (field-independent basis, Debye):
    X=             -1.4133    Y=             -1.8353    Z=              0.0000  Tot=              2.3164
 Quadrupole moment (field-independent basis, Debye-Ang):
   XX=             -9.7639   YY=             -8.6900   ZZ=            -14.5758
   XY=             -1.2060   XZ=              0.0000   YZ=              0.0000

 1415\MP4DQ=-152.4872545\MP4SDQ=-152.4912468\CCSD=-152.4901751\CCSD(T)=
 Normal termination of Gaussian 16 at Fri Aug 26 12:41:55 2022.
