 Gaussian 16, Revision A.03,
 Gaussian 16:  ES64L-G16RevA.03 25-Dec-2016

 ------------------
 #p CCSD(T)/cc-pVTZ
 ------------------

 ------------
 H2O_H2O_1638
 ------------
 Symbolic Z-matrix:
 Charge =  0 Multiplicity = 1

                         Standard orientation:
 ---------------------------------------------------------------------
 Center     Atomic      Atomic             Coordinates (Angstroms)
 Number     Number       Type             X           Y           Z
 ---------------------------------------------------------------------
      1          8           0        0.042983   -1.646802    0.000000
      2          1           0       -0.757853   -2.216158    0.000000
      3          1           0        0.841285   -2.219706    0.000000
      4          8           0        0.042983    1.685523    0.000000
      5          1           0        0.142946    2.663026    0.000000
      6          1           0       -0.914107    1.463069    0.000000
 ---------------------------------------------------------------------

 SCF Done:  E(RHF) =  -152.105334987     A.U. after   10 cycles
 E2 =    -0.5268092319D+00 EUMP2 =    -0.15263214421882D+03
 CCSD(T)
 CCSD(T)= -0.15265935621D+03

 The electronic state is 1-A'.
 Alpha  occ. eigenvalues --  -20.54917 -20.54048  -1.32198  -1.31307  -0.69622
 Alpha  occ. eigenvalues --   -0.68698  -0.55718  -0.54417  -0.49310  -0.48406
 Alpha virt. eigenvalues --    0.13802   0.16432   0.20256   0.22232   0.53512
 Alpha virt. eigenvalues --    0.55647   0.57736   0.58627   0.64364   0.76873
 Alpha virt. eigenvalues --    0.78222   0.78536   0.79188   0.81517   0.85324

 Mulliken charges:
               1
     1  O   -0.487666
     2  H    0.239697
     3  H    0.250084
     4  O   -0.489425
     5  H    0.236290
     6  H    0.251021
 Sum of Mulliken charges =  -0.00000

 Dipole moment (field-independent basis, Debye):
    X=             -1.4241    Y=             -0.7264    Z=              0.0000  Tot=              1.5987
 Quadrupole moment (field-independent basis, Debye-Ang):
   XX=             -8.9989   YY=             -0.0499   ZZ=            -14.7132
   XY=             -1.6794   XZ=              0.0000   YZ=              0.0000

 Normal termination of Gaussian 16 at Sat Aug 27 05:55:29 2022.
