 Gaussian 16, Revision A.03,
 Gaussian 16:  ES64L-G16RevA.03 25-Dec-2016

 ------------------
 #p CCSD(T)/cc-pVTZ
 ------------------

 ------------
 H2O_H2O_1151
 ------------
 Symbolic Z-matrix:
 Charge =  0 Multiplicity = 1

                         Standard orientation:
 ---------------------------------------------------------------------
 Center     Atomic      Atomic             Coordinates (Angstroms)
 Number     Number       Type             X           Y           Z
 ---------------------------------------------------------------------
      1          8           0        0.003735   -1.415079    0.000000
      2          1           0       -0.795965   -1.986029    0.000000
      3          1           0        0.803177   -1.986392    0.000000
      4          8           0        0.003735    1.415321    0.000000
      5          1           0        0.764383    2.037353    0.000000
      6          1           0       -0.831360    1.933126    0.000000
 ---------------------------------------------------------------------

 SCF Done:  E(RHF) =  -152.099335694     A.U. after   10 cycles
 E2 =    -0.5278212033D+00 EUMP2 =    -0.15262715689713D+03
 CCSD(T)
 CCSD(T)= -0.15265447238D+03

 The electronic state is 1-A'.
 Alpha  occ. eigenvalues --  -20.53607 -20.53601  -1.31133  -1.30770  -0.68519
 Alpha  occ. eigenvalues --   -0.68258  -0.55923  -0.52152  -0.48364  -0.47668
 Alpha virt. eigenvalues --    0.14442   0.16975   0.20566   0.22009   0.51070
 Alpha virt. eigenvalues --    0.58472   0.58748   0.61080   0.69361   0.76308
 Alpha virt. eigenvalues --    0.77270   0.78005   0.79225   0.83230   0.86262

 Mulliken charges:
               1
     1  O   -0.467704
     2  H    0.233107
     3  H    0.234586
     4  O   -0.467522
     5  H    0.233160
     6  H    0.234373
 Sum of Mulliken charges =  -0.00000

 Dipole moment (field-independent basis, Debye):
    X=             -0.1208    Y=             -0.0046    Z=              0.0000  Tot=              0.1209
 Quadrupole moment (field-independent basis, Debye-Ang):
   XX=             -7.9301   YY=             -1.2288   ZZ=            -14.7132
   XY=             -0.0715   XZ=              0.0000   YZ=              0.0000

 Normal termination of Gaussian 16 at Sat Aug 27 02:31:54 2022.
