 Gaussian 16, Revision A.03,
 Gaussian 16:  ES64L-G16RevA.03 25-Dec-2016

 ------------------
 #p CCSD(T)/cc-pVTZ
 ------------------

 ------------
 H2O_H2O_3560
 ------------
 Symbolic Z-matrix:
 Charge =  0 Multiplicity = 1

                         Standard orientation:
 ---------------------------------------------------------------------
 Center     Atomic      Atomic             Coordinates (Angstroms)
 Number     Number       Type             X           Y           Z
 ---------------------------------------------------------------------
      1          8           0        0.034781   -2.678840    0.000000
      2          1           0       -0.765424   -3.249082    0.000000
      3          1           0        0.833717   -3.250861    0.000000
      4          8           0        0.034781    2.702367    0.000000
      5          1           0        0.322487    3.641906    0.000000
      6          1           0       -0.947281    2.669821    0.000000
 ---------------------------------------------------------------------

 SCF Done:  E(RHF) =  -152.106700126     A.U. after   10 cycles
 E2 =    -0.5259615117D+00 EUMP2 =    -0.15263266163810D+03
 CCSD(T)
 CCSD(T)= -0.15265989558D+03

 The electronic state is 1-A'.
 Alpha  occ. eigenvalues --  -20.55190 -20.55002  -1.32486  -1.32295  -0.69894
 Alpha  occ. eigenvalues --   -0.69698  -0.55900  -0.55710  -0.49592  -0.49403
 Alpha virt. eigenvalues --    0.14333   0.14703   0.20441   0.20690   0.54655
 Alpha virt. eigenvalues --    0.54894   0.57528   0.57725   0.67962   0.68941
 Alpha virt. eigenvalues --    0.79286   0.79473   0.80725   0.80940   0.82687

 Mulliken charges:
               1
     1  O   -0.504723
     2  H    0.251119
     3  H    0.253608
     4  O   -0.504480
     5  H    0.250421
     6  H    0.254055
 Sum of Mulliken charges =  -0.00000

 Dipole moment (field-independent basis, Debye):
    X=             -1.1913    Y=             -0.4134    Z=              0.0000  Tot=              1.2610
 Quadrupole moment (field-independent basis, Debye-Ang):
   XX=             -8.5676   YY=              7.9916   ZZ=            -14.7107
   XY=             -2.3891   XZ=              0.0000   YZ=              0.0000

 Normal termination of Gaussian 16 at Sat Aug 27 01:29:56 2022.
