 Gaussian 16, Revision A.03,
 Gaussian 16:  ES64L-G16RevA.03 25-Dec-2016

 ------------------
 #p CCSD(T)/cc-pVTZ
 ------------------

 -----------
 H2O_H2O_491
 -----------
 Symbolic Z-matrix:
 Charge =  0 Multiplicity = 1

                         Standard orientation:
 ---------------------------------------------------------------------
 Center     Atomic      Atomic             Coordinates (Angstroms)
 Number     Number       Type             X           Y           Z
 ---------------------------------------------------------------------
      1          8           0        0.049576   -1.025415    0.000000
      2          1           0       -0.752296   -1.593312    0.000000
      3          1           0        0.846833   -1.599773    0.000000
      4          8           0        0.049576    1.082128    0.000000
      5          1           0       -0.041300    2.060518    0.000000
      6          1           0       -0.846460    0.678862    0.000000
 ---------------------------------------------------------------------

 SCF Done:  E(RHF) =  -152.072445747     A.U. after   11 cycles
 E2 =    -0.5336674765D+00 EUMP2 =    -0.15260611322316D+03
 CCSD(T)
 CCSD(T)= -0.15263301775D+03

 The electronic state is 1-A'.
 Alpha  occ. eigenvalues --  -20.54281 -20.51893  -1.33365  -1.28941  -0.70684
 Alpha  occ. eigenvalues --   -0.68314  -0.56487  -0.50316  -0.49160  -0.45777
 Alpha virt. eigenvalues --    0.13836   0.18191   0.19895   0.24208   0.52453
 Alpha virt. eigenvalues --    0.57148   0.59393   0.62733   0.71833   0.75370
 Alpha virt. eigenvalues --    0.79622   0.82940   0.83295   0.84592   0.87988

 Mulliken charges:
               1
     1  O   -0.436183
     2  H    0.211024
     3  H    0.233084
     4  O   -0.437071
     5  H    0.184623
     6  H    0.244523
 Sum of Mulliken charges =   0.00000

 Dipole moment (field-independent basis, Debye):
    X=             -1.4615    Y=             -1.1644    Z=              0.0000  Tot=              1.8687
 Quadrupole moment (field-independent basis, Debye-Ang):
   XX=             -9.4611   YY=             -5.4504   ZZ=            -14.7107
   XY=             -1.2326   XZ=              0.0000   YZ=              0.0000

 Normal termination of Gaussian 16 at Fri Aug 26 16:57:07 2022.
