 Gaussian 16, Revision A.03,
 Gaussian 16:  ES64L-G16RevA.03 25-Dec-2016

 ------------------
 #p CCSD(T)/cc-pVTZ
 ------------------

 -----------
 H2O_H2O_406
 -----------
 Symbolic Z-matrix:
 Charge =  0 Multiplicity = 1

                         Standard orientation:
 ---------------------------------------------------------------------
 Center     Atomic      Atomic             Coordinates (Angstroms)
 Number     Number       Type             X           Y           Z
 ---------------------------------------------------------------------
      1          8           0        0.021864   -1.011654    0.000000
      2          1           0       -0.778763   -1.581304    0.000000
      3          1           0        0.820376   -1.584266    0.000000
      4          8           0        0.021864    1.020268    0.000000
      5          1           0        0.543552    1.852943    0.000000
      6          1           0       -0.934994    1.243715    0.000000
 ---------------------------------------------------------------------

 SCF Done:  E(RHF) =  -152.056703954     A.U. after   11 cycles
 E2 =    -0.5346088433D+00 EUMP2 =    -0.15259131279761D+03
 CCSD(T)
 CCSD(T)= -0.15261818191D+03

 The electronic state is 1-A'.
 Alpha  occ. eigenvalues --  -20.52195 -20.51925  -1.31999  -1.28680  -0.68762
 Alpha  occ. eigenvalues --   -0.66818  -0.60234  -0.49210  -0.45174  -0.44605
 Alpha virt. eigenvalues --    0.14564   0.18228   0.20408   0.22990   0.51381
 Alpha virt. eigenvalues --    0.58670   0.58894   0.65238   0.69974   0.77573
 Alpha virt. eigenvalues --    0.78558   0.82585   0.84129   0.86471   0.87592

 Mulliken charges:
               1
     1  O   -0.438447
     2  H    0.211552
     3  H    0.224997
     4  O   -0.419027
     5  H    0.190706
     6  H    0.230218
 Sum of Mulliken charges =  -0.00000

 Dipole moment (field-independent basis, Debye):
    X=             -0.6403    Y=             -0.1801    Z=              0.0000  Tot=              0.6651
 Quadrupole moment (field-independent basis, Debye-Ang):
   XX=             -8.4032   YY=             -5.5419   ZZ=            -14.7434
   XY=             -0.2425   XZ=              0.0000   YZ=              0.0000

 68694\MP4DQ=-152.5986734\MP4SDQ=-152.602182\CCSD=-152.6014117\CCSD(T)=
 Normal termination of Gaussian 16 at Fri Aug 26 16:10:02 2022.
