 Gaussian 16, Revision A.03,
 Gaussian 16:  ES64L-G16RevA.03 25-Dec-2016

 ------------------
 #p CCSD(T)/cc-pVTZ
 ------------------

 ------------
 H2O_H2O_3647
 ------------
 Symbolic Z-matrix:
 Charge =  0 Multiplicity = 1

                         Standard orientation:
 ---------------------------------------------------------------------
 Center     Atomic      Atomic             Coordinates (Angstroms)
 Number     Number       Type             X           Y           Z
 ---------------------------------------------------------------------
      1          8           0        0.056713   -2.677678    0.000000
      2          1           0       -0.743877   -3.247380    0.000000
      3          1           0        0.855262   -3.250238    0.000000
      4          8           0        0.056713    2.776792    0.000000
      5          1           0       -0.403617    3.644896    0.000000
      6          1           0       -0.615180    2.059809    0.000000
 ---------------------------------------------------------------------

 SCF Done:  E(RHF) =  -152.107704666     A.U. after   10 cycles
 E2 =    -0.5258820705D+00 EUMP2 =    -0.15263358673685D+03
 CCSD(T)
 CCSD(T)= -0.15266079784D+03

 The electronic state is 1-A'.
 Alpha  occ. eigenvalues --  -20.55747 -20.54957  -1.33046  -1.32257  -0.70452
 Alpha  occ. eigenvalues --   -0.69650  -0.56507  -0.55709  -0.50160  -0.49373
 Alpha virt. eigenvalues --    0.13762   0.14861   0.20027   0.20946   0.54088
 Alpha virt. eigenvalues --    0.54881   0.57051   0.57791   0.67277   0.68912
 Alpha virt. eigenvalues --    0.78724   0.79492   0.80115   0.80573   0.82630

 Mulliken charges:
               1
     1  O   -0.510542
     2  H    0.253471
     3  H    0.257148
     4  O   -0.509991
     5  H    0.251156
     6  H    0.258758
 Sum of Mulliken charges =  -0.00000

 Dipole moment (field-independent basis, Debye):
    X=             -1.9443    Y=             -1.7458    Z=              0.0000  Tot=              2.6130
 Quadrupole moment (field-independent basis, Debye-Ang):
   XX=             -9.8270   YY=              2.2042   ZZ=            -14.7130
   XY=             -5.3144   XZ=              0.0000   YZ=              0.0000

 Normal termination of Gaussian 16 at Sat Aug 27 02:11:36 2022.
