 Gaussian 16, Revision A.03,
 Gaussian 16:  ES64L-G16RevA.03 25-Dec-2016

 ------------------
 #p CCSD(T)/cc-pVTZ
 ------------------

 ------------
 H2O_H2O_3808
 ------------
 Symbolic Z-matrix:
 Charge =  0 Multiplicity = 1

                         Standard orientation:
 ---------------------------------------------------------------------
 Center     Atomic      Atomic             Coordinates (Angstroms)
 Number     Number       Type             X           Y           Z
 ---------------------------------------------------------------------
      1          8           0        0.028563   -2.816293    0.000000
      2          1           0       -0.771505   -3.386728    0.000000
      3          1           0        0.827637   -3.388121    0.000000
      4          8           0        0.028563    2.831546    0.000000
      5          1           0        0.436226    3.725593    0.000000
      6          1           0       -0.949369    2.927227    0.000000
 ---------------------------------------------------------------------

 SCF Done:  E(RHF) =  -152.106712654     A.U. after   10 cycles
 E2 =    -0.5259517013D+00 EUMP2 =    -0.15263266435567D+03
 CCSD(T)
 CCSD(T)= -0.15265989859D+03

 The electronic state is 1-A'.
 Alpha  occ. eigenvalues --  -20.55175 -20.55065  -1.32471  -1.32359  -0.69879
 Alpha  occ. eigenvalues --   -0.69764  -0.55885  -0.55774  -0.49577  -0.49466
 Alpha virt. eigenvalues --    0.14399   0.14597   0.20471   0.20610   0.54684
 Alpha virt. eigenvalues --    0.54819   0.57546   0.57662   0.68179   0.68654
 Alpha virt. eigenvalues --    0.79301   0.79411   0.80745   0.80869   0.82683

 Mulliken charges:
               1
     1  O   -0.504782
     2  H    0.251501
     3  H    0.253282
     4  O   -0.504644
     5  H    0.251047
     6  H    0.253596
 Sum of Mulliken charges =  -0.00000

 Dipole moment (field-independent basis, Debye):
    X=             -0.9794    Y=             -0.2673    Z=              0.0000  Tot=              1.0152
 Quadrupole moment (field-independent basis, Debye-Ang):
   XX=             -8.3192   YY=              9.5353   ZZ=            -14.7106
   XY=             -2.0167   XZ=              0.0000   YZ=              0.0000

 Normal termination of Gaussian 16 at Sat Aug 27 03:29:11 2022.
