 Gaussian 16, Revision A.03,
 Gaussian 16:  ES64L-G16RevA.03 25-Dec-2016

 ------------------
 #p CCSD(T)/cc-pVTZ
 ------------------

 ------------
 H2O_H2O_2436
 ------------
 Symbolic Z-matrix:
 Charge =  0 Multiplicity = 1

                         Standard orientation:
 ---------------------------------------------------------------------
 Center     Atomic      Atomic             Coordinates (Angstroms)
 Number     Number       Type             X           Y           Z
 ---------------------------------------------------------------------
      1          8           0        0.037679   -2.077970    0.000000
      2          1           0       -0.762776   -2.647862    0.000000
      3          1           0        0.836364   -2.650340    0.000000
      4          8           0        0.037679    2.106199    0.000000
      5          1           0        0.263737    3.062444    0.000000
      6          1           0       -0.940195    2.009920    0.000000
 ---------------------------------------------------------------------

 SCF Done:  E(RHF) =  -152.106097825     A.U. after   10 cycles
 E2 =    -0.5261676737D+00 EUMP2 =    -0.15263226549851D+03
 CCSD(T)
 CCSD(T)= -0.15265949711D+03

 The electronic state is 1-A'.
 Alpha  occ. eigenvalues --  -20.54995 -20.54603  -1.32281  -1.31886  -0.69695
 Alpha  occ. eigenvalues --   -0.69284  -0.55673  -0.55243  -0.49384  -0.48992
 Alpha virt. eigenvalues --    0.13913   0.15540   0.20401   0.21240   0.54047
 Alpha virt. eigenvalues --    0.55334   0.57681   0.58067   0.64644   0.73805
 Alpha virt. eigenvalues --    0.79375   0.79987   0.80534   0.81303   0.82759

 Mulliken charges:
               1
     1  O   -0.499947
     2  H    0.247457
     3  H    0.252784
     4  O   -0.499697
     5  H    0.246035
     6  H    0.253368
 Sum of Mulliken charges =  -0.00000

 Dipole moment (field-independent basis, Debye):
    X=             -1.2770    Y=             -0.5085    Z=              0.0000  Tot=              1.3745
 Quadrupole moment (field-independent basis, Debye-Ang):
   XX=             -8.7099   YY=              3.4190   ZZ=            -14.7109
   XY=             -1.8836   XZ=              0.0000   YZ=              0.0000

 Normal termination of Gaussian 16 at Sat Aug 27 10:33:06 2022.
