 Gaussian 16, Revision A.03,
 Gaussian 16:  ES64L-G16RevA.03 25-Dec-2016

 ------------------
 #p CCSD(T)/cc-pVTZ
 ------------------

 ------------
 H2O_H2O_4918
 ------------
 Symbolic Z-matrix:
 Charge =  0 Multiplicity = 1

                         Standard orientation:
 ---------------------------------------------------------------------
 Center     Atomic      Atomic             Coordinates (Angstroms)
 Number     Number       Type             X           Y           Z
 ---------------------------------------------------------------------
      1          8           0        0.052813   -3.371379    0.000000
      2          1           0       -0.747519   -3.941444    0.000000
      3          1           0        0.851621   -3.943576    0.000000
      4          8           0        0.052813    3.441752    0.000000
      5          1           0       -0.167585    4.399317    0.000000
      6          1           0       -0.781520    2.922719    0.000000
 ---------------------------------------------------------------------

 SCF Done:  E(RHF) =  -152.107390593     A.U. after   10 cycles
 E2 =    -0.5258761114D+00 EUMP2 =    -0.15263326670438D+03
 CCSD(T)
 CCSD(T)= -0.15266048747D+03

 The electronic state is 1-A'.
 Alpha  occ. eigenvalues --  -20.55575 -20.55227  -1.32874  -1.32525  -0.70280
 Alpha  occ. eigenvalues --   -0.69927  -0.56320  -0.55970  -0.49985  -0.49638
 Alpha virt. eigenvalues --    0.14100   0.14448   0.20174   0.20540   0.54282
 Alpha virt. eigenvalues --    0.54646   0.57199   0.57547   0.67870   0.68227
 Alpha virt. eigenvalues --    0.78894   0.79237   0.80326   0.80696   0.82250

 Mulliken charges:
               1
     1  O   -0.508778
     2  H    0.253457
     3  H    0.255321
     4  O   -0.508589
     5  H    0.252577
     6  H    0.256012
 Sum of Mulliken charges =  -0.00000

 Dipole moment (field-independent basis, Debye):
    X=             -1.8169    Y=             -1.2266    Z=              0.0000  Tot=              2.1922
 Quadrupole moment (field-independent basis, Debye-Ang):
   XX=             -9.5597   YY=              8.4805   ZZ=            -14.7119
   XY=             -5.6962   XZ=              0.0000   YZ=              0.0000

 Normal termination of Gaussian 16 at Sat Aug 27 10:07:14 2022.
