 Gaussian 16, Revision A.03,
 Gaussian 16:  ES64L-G16RevA.03 25-Dec-2016

 ------------------
 #p CCSD(T)/cc-pVTZ
 ------------------

 -----------
 H2O_H2O_856
 -----------
 Symbolic Z-matrix:
 Charge =  0 Multiplicity = 1

                         Standard orientation:
 ---------------------------------------------------------------------
 Center     Atomic      Atomic             Coordinates (Angstroms)
 Number     Number       Type             X           Y           Z
 ---------------------------------------------------------------------
      1          8           0        0.021863   -1.250972    0.000000
      2          1           0       -0.778563   -1.820905    0.000000
      3          1           0        0.820577   -1.823302    0.000000
      4          8           0        0.021863    1.259602    0.000000
      5          1           0        0.543257    2.092461    0.000000
      6          1           0       -0.935074    1.482711    0.000000
 ---------------------------------------------------------------------

 SCF Done:  E(RHF) =  -152.093569829     A.U. after   11 cycles
 E2 =    -0.5291478440D+00 EUMP2 =    -0.15262271767346D+03
 CCSD(T)
 CCSD(T)= -0.15265000062D+03

 The electronic state is 1-A'.
 Alpha  occ. eigenvalues --  -20.53343 -20.53087  -1.31165  -1.30225  -0.68472
 Alpha  occ. eigenvalues --   -0.67802  -0.56880  -0.50444  -0.48451  -0.47011
 Alpha virt. eigenvalues --    0.14415   0.17399   0.20516   0.22485   0.51302
 Alpha virt. eigenvalues --    0.58658   0.58833   0.62402   0.71600   0.76555
 Alpha virt. eigenvalues --    0.76821   0.79485   0.83855   0.84863   0.86324

 Mulliken charges:
               1
     1  O   -0.463908
     2  H    0.226422
     3  H    0.236359
     4  O   -0.454380
     5  H    0.220531
     6  H    0.234976
 Sum of Mulliken charges =  -0.00000

 Dipole moment (field-independent basis, Debye):
    X=             -0.6855    Y=             -0.1671    Z=              0.0000  Tot=              0.7056
 Quadrupole moment (field-independent basis, Debye-Ang):
   XX=             -8.2645   YY=             -2.8537   ZZ=            -14.7238
   XY=             -0.3669   XZ=              0.0000   YZ=              0.0000

 Normal termination of Gaussian 16 at Fri Aug 26 20:36:48 2022.
