 Gaussian 16, Revision A.03,
 Gaussian 16:  ES64L-G16RevA.03 25-Dec-2016

 ------------------
 #p CCSD(T)/cc-pVTZ
 ------------------

 ------------
 H2O_H2O_1123
 ------------
 Symbolic Z-matrix:
 Charge =  0 Multiplicity = 1

                         Standard orientation:
 ---------------------------------------------------------------------
 Center     Atomic      Atomic             Coordinates (Angstroms)
 Number     Number       Type             X           Y           Z
 ---------------------------------------------------------------------
      1          8           0        0.057180   -1.330857    0.000000
      2          1           0       -0.744411   -1.899151    0.000000
      3          1           0        0.854721   -1.904820    0.000000
      4          8           0        0.057180    1.437208    0.000000
      5          1           0       -0.457471    2.274251    0.000000
      6          1           0       -0.567716    0.678913    0.000000
 ---------------------------------------------------------------------

 SCF Done:  E(RHF) =  -152.107587219     A.U. after   10 cycles
 E2 =    -0.5284696766D+00 EUMP2 =    -0.15263605689571D+03
 CCSD(T)
 CCSD(T)= -0.15266306887D+03

 The electronic state is 1-A'.
 Alpha  occ. eigenvalues --  -20.56756 -20.52607  -1.34221  -1.29998  -0.71587
 Alpha  occ. eigenvalues --   -0.68002  -0.57143  -0.53530  -0.51304  -0.47109
 Alpha virt. eigenvalues --    0.12965   0.17756   0.19459   0.26211   0.51279
 Alpha virt. eigenvalues --    0.56208   0.57904   0.59837   0.70332   0.74079
 Alpha virt. eigenvalues --    0.74442   0.79471   0.82446   0.83820   0.84887

 Mulliken charges:
               1
     1  O   -0.482649
     2  H    0.242508
     3  H    0.258763
     4  O   -0.517356
     5  H    0.230714
     6  H    0.268020
 Sum of Mulliken charges =  -0.00000

 Dipole moment (field-independent basis, Debye):
    X=             -1.8386    Y=             -2.1767    Z=              0.0000  Tot=              2.8493
 Quadrupole moment (field-independent basis, Debye-Ang):
   XX=             -9.8521   YY=             -4.4923   ZZ=            -14.7263
   XY=             -2.9239   XZ=              0.0000   YZ=              0.0000

 Normal termination of Gaussian 16 at Sat Aug 27 02:18:49 2022.
