 Gaussian 16, Revision A.03,
 Gaussian 16:  ES64L-G16RevA.03 25-Dec-2016

 ------------------
 #p CCSD(T)/cc-pVTZ
 ------------------

 ------------
 H2O_H2O_3725
 ------------
 Symbolic Z-matrix:
 Charge =  0 Multiplicity = 1

                         Standard orientation:
 ---------------------------------------------------------------------
 Center     Atomic      Atomic             Coordinates (Angstroms)
 Number     Number       Type             X           Y           Z
 ---------------------------------------------------------------------
      1          8           0        0.000000   -0.000000    2.784690
      2          1           0        0.000000    0.799571    3.355822
      3          1           0       -0.000000   -0.799571    3.355822
      4          8           0        0.000000   -0.000000   -2.784690
      5          1           0       -0.000000   -0.799571   -3.355822
      6          1           0        0.000000    0.799571   -3.355822
 ---------------------------------------------------------------------

 SCF Done:  E(RHF) =  -152.106509449     A.U. after   10 cycles
 E2 =    -0.5259700929D+00 EUMP2 =    -0.15263247954228D+03
 CCSD(T)
 CCSD(T)= -0.15265971806D+03

 The electronic state is 1-AG.
 Alpha  occ. eigenvalues --  -20.55057 -20.55057  -1.32351  -1.32351  -0.69760
 Alpha  occ. eigenvalues --   -0.69759  -0.55758  -0.55754  -0.49456  -0.49456
 Alpha virt. eigenvalues --    0.14478   0.14614   0.20550   0.20599   0.54789
 Alpha virt. eigenvalues --    0.54836   0.57641   0.57664   0.68240   0.68771
 Alpha virt. eigenvalues --    0.79419   0.79424   0.80858   0.80884   0.82777

 Mulliken charges:
               1
     1  O   -0.503571
     2  H    0.251786
     3  H    0.251786
     4  O   -0.503571
     5  H    0.251786
     6  H    0.251786
 Sum of Mulliken charges =   0.00000

 Dipole moment (field-independent basis, Debye):
    X=             -0.0000    Y=              0.0000    Z=              0.0000  Tot=              0.0000
 Quadrupole moment (field-independent basis, Debye-Ang):
   XX=            -14.7102   YY=             -7.8082   ZZ=             10.2338
   XY=              0.0000   XZ=              0.0000   YZ=             -0.0000

 7\MP4DQ=-152.6416033\MP4SDQ=-152.6446664\CCSD=-152.6440769\CCSD(T)=-15
 Normal termination of Gaussian 16 at Sat Aug 27 02:47:38 2022.
