 Gaussian 16, Revision A.03,
 Gaussian 16:  ES64L-G16RevA.03 25-Dec-2016

 ------------------
 #p CCSD(T)/cc-pVTZ
 ------------------

 ------------
 H2O_H2O_2292
 ------------
 Symbolic Z-matrix:
 Charge =  0 Multiplicity = 1

                         Standard orientation:
 ---------------------------------------------------------------------
 Center     Atomic      Atomic             Coordinates (Angstroms)
 Number     Number       Type             X           Y           Z
 ---------------------------------------------------------------------
      1          8           0        0.051293   -1.979049    0.000000
      2          1           0       -0.749529   -2.548426    0.000000
      3          1           0        0.849610   -2.551933    0.000000
      4          8           0        0.051293    2.042530    0.000000
      5          1           0       -0.105171    3.012594    0.000000
      6          1           0       -0.815598    1.579921    0.000000
 ---------------------------------------------------------------------

 SCF Done:  E(RHF) =  -152.107112592     A.U. after   10 cycles
 E2 =    -0.5261932274D+00 EUMP2 =    -0.15263330581964D+03
 CCSD(T)
 CCSD(T)= -0.15266050440D+03

 The electronic state is 1-A'.
 Alpha  occ. eigenvalues --  -20.55454 -20.54445  -1.32735  -1.31729  -0.70147
 Alpha  occ. eigenvalues --   -0.69108  -0.56150  -0.55146  -0.49845  -0.48846
 Alpha virt. eigenvalues --    0.13429   0.15849   0.20115   0.21902   0.53876
 Alpha virt. eigenvalues --    0.54675   0.57339   0.58334   0.65203   0.74687
 Alpha virt. eigenvalues --    0.78912   0.79526   0.80128   0.81666   0.83775

 Mulliken charges:
               1
     1  O   -0.502403
     2  H    0.248013
     3  H    0.255816
     4  O   -0.504791
     5  H    0.245292
     6  H    0.258073
 Sum of Mulliken charges =  -0.00000

 Dipole moment (field-independent basis, Debye):
    X=             -1.7334    Y=             -1.1565    Z=              0.0000  Tot=              2.0838
 Quadrupole moment (field-independent basis, Debye-Ang):
   XX=             -9.4620   YY=              1.1007   ZZ=            -14.7136
   XY=             -2.9920   XZ=              0.0000   YZ=              0.0000

 Normal termination of Gaussian 16 at Sat Aug 27 09:41:41 2022.
