 Gaussian 16, Revision A.03,
 Gaussian 16:  ES64L-G16RevA.03 25-Dec-2016

 ------------------
 #p CCSD(T)/cc-pVTZ
 ------------------

 ------------
 H2O_H2O_4560
 ------------
 Symbolic Z-matrix:
 Charge =  0 Multiplicity = 1

                         Standard orientation:
 ---------------------------------------------------------------------
 Center     Atomic      Atomic             Coordinates (Angstroms)
 Number     Number       Type             X           Y           Z
 ---------------------------------------------------------------------
      1          8           0        0.034779   -3.210670    0.000000
      2          1           0       -0.765322   -3.781059    0.000000
      3          1           0        0.833819   -3.782544    0.000000
      4          8           0        0.034779    3.234210    0.000000
      5          1           0        0.322312    4.173801    0.000000
      6          1           0       -0.947278    3.201483    0.000000
 ---------------------------------------------------------------------

 SCF Done:  E(RHF) =  -152.107024320     A.U. after   10 cycles
 E2 =    -0.5259115467D+00 EUMP2 =    -0.15263293586643D+03
 CCSD(T)
 CCSD(T)= -0.15266016424D+03

 The electronic state is 1-A'.
 Alpha  occ. eigenvalues --  -20.55327 -20.55197  -1.32624  -1.32492  -0.70031
 Alpha  occ. eigenvalues --   -0.69897  -0.56053  -0.55922  -0.49733  -0.49602
 Alpha virt. eigenvalues --    0.14316   0.14451   0.20372   0.20510   0.54536
 Alpha virt. eigenvalues --    0.54677   0.57420   0.57551   0.68161   0.68303
 Alpha virt. eigenvalues --    0.79147   0.79276   0.80586   0.80728   0.82512

 Mulliken charges:
               1
     1  O   -0.506610
     2  H    0.252561
     3  H    0.254049
     4  O   -0.506503
     5  H    0.252117
     6  H    0.254387
 Sum of Mulliken charges =  -0.00000

 Dipole moment (field-independent basis, Debye):
    X=             -1.1954    Y=             -0.4107    Z=              0.0000  Tot=              1.2640
 Quadrupole moment (field-independent basis, Debye-Ang):
   XX=             -8.5638   YY=             11.8190   ZZ=            -14.7111
   XY=             -3.0183   XZ=              0.0000   YZ=              0.0000

 Normal termination of Gaussian 16 at Sat Aug 27 08:03:20 2022.
