 Gaussian 16, Revision A.03,
 Gaussian 16:  ES64L-G16RevA.03 25-Dec-2016

 ------------------
 #p CCSD(T)/cc-pVTZ
 ------------------

 ------------
 H2O_H2O_1710
 ------------
 Symbolic Z-matrix:
 Charge =  0 Multiplicity = 1

                         Standard orientation:
 ---------------------------------------------------------------------
 Center     Atomic      Atomic             Coordinates (Angstroms)
 Number     Number       Type             X           Y           Z
 ---------------------------------------------------------------------
      1          8           0        0.034789   -1.694966    0.000000
      2          1           0       -0.765782   -2.264695    0.000000
      3          1           0        0.833357   -2.267500    0.000000
      4          8           0        0.034789    1.718449    0.000000
      5          1           0        0.323097    2.657802    0.000000
      6          1           0       -0.947295    1.686532    0.000000
 ---------------------------------------------------------------------

 SCF Done:  E(RHF) =  -152.104771659     A.U. after   10 cycles
 E2 =    -0.5267312817D+00 EUMP2 =    -0.15263150294068D+03
 CCSD(T)
 CCSD(T)= -0.15265873440D+03

 The electronic state is 1-A'.
 Alpha  occ. eigenvalues --  -20.54652 -20.54161  -1.31933  -1.31425  -0.69357
 Alpha  occ. eigenvalues --   -0.68828  -0.55525  -0.54408  -0.49045  -0.48513
 Alpha virt. eigenvalues --    0.13964   0.16282   0.20400   0.21824   0.53076
 Alpha virt. eigenvalues --    0.56180   0.57929   0.58564   0.63471   0.76927
 Alpha virt. eigenvalues --    0.78600   0.78746   0.79939   0.81372   0.84870

 Mulliken charges:
               1
     1  O   -0.486907
     2  H    0.239895
     3  H    0.248054
     4  O   -0.487207
     5  H    0.237815
     6  H    0.248351
 Sum of Mulliken charges =  -0.00000

 Dipole moment (field-independent basis, Debye):
    X=             -1.1572    Y=             -0.4378    Z=              0.0000  Tot=              1.2372
 Quadrupole moment (field-independent basis, Debye-Ang):
   XX=             -8.6055   YY=              0.7480   ZZ=            -14.7111
   XY=             -1.2404   XZ=              0.0000   YZ=              0.0000

 Normal termination of Gaussian 16 at Sat Aug 27 06:20:53 2022.
