 Gaussian 16, Revision A.03,
 Gaussian 16:  ES64L-G16RevA.03 25-Dec-2016

 ------------------
 #p CCSD(T)/cc-pVTZ
 ------------------

 ------------
 H2O_H2O_4252
 ------------
 Symbolic Z-matrix:
 Charge =  0 Multiplicity = 1

                         Standard orientation:
 ---------------------------------------------------------------------
 Center     Atomic      Atomic             Coordinates (Angstroms)
 Number     Number       Type             X           Y           Z
 ---------------------------------------------------------------------
      1          8           0        0.007455   -3.063375    0.000000
      2          1           0       -0.792236   -3.634339    0.000000
      3          1           0        0.806906   -3.634674    0.000000
      4          8           0        0.007455    3.064349    0.000000
      5          1           0        0.725778    3.734809    0.000000
      6          1           0       -0.859727    3.526411    0.000000
 ---------------------------------------------------------------------

 SCF Done:  E(RHF) =  -152.106757518     A.U. after   10 cycles
 E2 =    -0.5259379764D+00 EUMP2 =    -0.15263269549400D+03
 CCSD(T)
 CCSD(T)= -0.15265992935D+03

 The electronic state is 1-A'.
 Alpha  occ. eigenvalues --  -20.55164 -20.55158  -1.32459  -1.32453  -0.69867
 Alpha  occ. eigenvalues --   -0.69860  -0.55876  -0.55870  -0.49566  -0.49560
 Alpha virt. eigenvalues --    0.14442   0.14483   0.20495   0.20513   0.54700
 Alpha virt. eigenvalues --    0.54713   0.57562   0.57573   0.68317   0.68418
 Alpha virt. eigenvalues --    0.79313   0.79319   0.80758   0.80764   0.82687

 Mulliken charges:
               1
     1  O   -0.505028
     2  H    0.252330
     3  H    0.252699
     4  O   -0.505022
     5  H    0.252255
     6  H    0.252766
 Sum of Mulliken charges =  -0.00000

 Dipole moment (field-independent basis, Debye):
    X=             -0.2560    Y=             -0.0170    Z=              0.0000  Tot=              0.2566
 Quadrupole moment (field-independent basis, Debye-Ang):
   XX=             -7.8390   YY=             12.4050   ZZ=            -14.7106
   XY=             -0.5536   XZ=              0.0000   YZ=              0.0000

 Normal termination of Gaussian 16 at Sat Aug 27 06:16:06 2022.
