 Gaussian 16, Revision A.03,
 Gaussian 16:  ES64L-G16RevA.03 25-Dec-2016

 ------------------
 #p CCSD(T)/cc-pVTZ
 ------------------

 ------------
 H2O_H2O_4943
 ------------
 Symbolic Z-matrix:
 Charge =  0 Multiplicity = 1

                         Standard orientation:
 ---------------------------------------------------------------------
 Center     Atomic      Atomic             Coordinates (Angstroms)
 Number     Number       Type             X           Y           Z
 ---------------------------------------------------------------------
      1          8           0        0.052812   -3.384674    0.000000
      2          1           0       -0.747516   -3.954744    0.000000
      3          1           0        0.851624   -3.956868    0.000000
      4          8           0        0.052812    3.455048    0.000000
      5          1           0       -0.167590    4.412611    0.000000
      6          1           0       -0.781518    2.936011    0.000000
 ---------------------------------------------------------------------

 SCF Done:  E(RHF) =  -152.107391681     A.U. after   10 cycles
 E2 =    -0.5258757540D+00 EUMP2 =    -0.15263326743504D+03
 CCSD(T)
 CCSD(T)= -0.15266048819D+03

 The electronic state is 1-A'.
 Alpha  occ. eigenvalues --  -20.55576 -20.55231  -1.32874  -1.32529  -0.70281
 Alpha  occ. eigenvalues --   -0.69930  -0.56321  -0.55974  -0.49986  -0.49641
 Alpha virt. eigenvalues --    0.14100   0.14444   0.20173   0.20537   0.54281
 Alpha virt. eigenvalues --    0.54642   0.57198   0.57544   0.67869   0.68224
 Alpha virt. eigenvalues --    0.78893   0.79234   0.80325   0.80692   0.82249

 Mulliken charges:
               1
     1  O   -0.508783
     2  H    0.253470
     3  H    0.255313
     4  O   -0.508597
     5  H    0.252600
     6  H    0.255997
 Sum of Mulliken charges =  -0.00000

 Dipole moment (field-independent basis, Debye):
    X=             -1.8170    Y=             -1.2264    Z=              0.0000  Tot=              2.1922
 Quadrupole moment (field-independent basis, Debye-Ang):
   XX=             -9.5597   YY=              8.5538   ZZ=            -14.7119
   XY=             -5.7202   XZ=              0.0000   YZ=              0.0000

 Normal termination of Gaussian 16 at Sat Aug 27 10:15:22 2022.
