 Gaussian 16, Revision A.03,
 Gaussian 16:  ES64L-G16RevA.03 25-Dec-2016

 ------------------
 #p CCSD(T)/cc-pVTZ
 ------------------

 ------------
 H2O_H2O_2186
 ------------
 Symbolic Z-matrix:
 Charge =  0 Multiplicity = 1

                         Standard orientation:
 ---------------------------------------------------------------------
 Center     Atomic      Atomic             Coordinates (Angstroms)
 Number     Number       Type             X           Y           Z
 ---------------------------------------------------------------------
      1          8           0        0.037681   -1.945015    0.000000
      2          1           0       -0.762834   -2.514823    0.000000
      3          1           0        0.836306   -2.517469    0.000000
      4          8           0        0.037681    1.973237    0.000000
      5          1           0        0.263839    2.929458    0.000000
      6          1           0       -0.940204    1.877059    0.000000
 ---------------------------------------------------------------------

 SCF Done:  E(RHF) =  -152.105859860     A.U. after   10 cycles
 E2 =    -0.5262972000D+00 EUMP2 =    -0.15263215705987D+03
 CCSD(T)
 CCSD(T)= -0.15265938352D+03

 The electronic state is 1-A'.
 Alpha  occ. eigenvalues --  -20.54926 -20.54472  -1.32207  -1.31749  -0.69624
 Alpha  occ. eigenvalues --   -0.69146  -0.55613  -0.55053  -0.49311  -0.48854
 Alpha virt. eigenvalues --    0.13850   0.15793   0.20387   0.21440   0.53587
 Alpha virt. eigenvalues --    0.55434   0.57738   0.58216   0.63690   0.75216
 Alpha virt. eigenvalues --    0.79257   0.79987   0.80298   0.81134   0.83088

 Mulliken charges:
               1
     1  O   -0.496926
     2  H    0.245600
     3  H    0.251879
     4  O   -0.497111
     5  H    0.243995
     6  H    0.252563
 Sum of Mulliken charges =  -0.00000

 Dipole moment (field-independent basis, Debye):
    X=             -1.2709    Y=             -0.5139    Z=              0.0000  Tot=              1.3709
 Quadrupole moment (field-independent basis, Debye-Ang):
   XX=             -8.7155   YY=              2.4612   ZZ=            -14.7111
   XY=             -1.7157   XZ=              0.0000   YZ=              0.0000

 Normal termination of Gaussian 16 at Sat Aug 27 09:05:59 2022.
