 Gaussian 16, Revision A.03,
 Gaussian 16:  ES64L-G16RevA.03 25-Dec-2016

 ------------------
 #p CCSD(T)/cc-pVTZ
 ------------------

 ------------
 H2O_H2O_1640
 ------------
 Symbolic Z-matrix:
 Charge =  0 Multiplicity = 1

                         Standard orientation:
 ---------------------------------------------------------------------
 Center     Atomic      Atomic             Coordinates (Angstroms)
 Number     Number       Type             X           Y           Z
 ---------------------------------------------------------------------
      1          8           0        0.047550   -1.640387    0.000000
      2          1           0       -0.753420   -2.209555    0.000000
      3          1           0        0.845717   -2.213480    0.000000
      4          8           0        0.047550    1.690919    0.000000
      5          1           0        0.019300    2.673114    0.000000
      6          1           0       -0.872397    1.345661    0.000000
 ---------------------------------------------------------------------

 SCF Done:  E(RHF) =  -152.105985639     A.U. after   10 cycles
 E2 =    -0.5267953788D+00 EUMP2 =    -0.15263278101760D+03
 CCSD(T)
 CCSD(T)= -0.15265997563D+03

 The electronic state is 1-A'.
 Alpha  occ. eigenvalues --  -20.55162 -20.53998  -1.32443  -1.31259  -0.69864
 Alpha  occ. eigenvalues --   -0.68644  -0.55896  -0.54495  -0.49555  -0.48367
 Alpha virt. eigenvalues --    0.13663   0.16494   0.20146   0.22540   0.53930
 Alpha virt. eigenvalues --    0.55117   0.57544   0.58558   0.64759   0.76616
 Alpha virt. eigenvalues --    0.78041   0.78434   0.78703   0.81460   0.85130

 Mulliken charges:
               1
     1  O   -0.489317
     2  H    0.240568
     3  H    0.251821
     4  O   -0.493296
     5  H    0.236668
     6  H    0.253556
 Sum of Mulliken charges =  -0.00000

 Dipole moment (field-independent basis, Debye):
    X=             -1.5749    Y=             -0.9508    Z=              0.0000  Tot=              1.8397
 Quadrupole moment (field-independent basis, Debye-Ang):
   XX=             -9.2503   YY=             -0.4769   ZZ=            -14.7149
   XY=             -2.0331   XZ=              0.0000   YZ=              0.0000

 Normal termination of Gaussian 16 at Sat Aug 27 05:56:13 2022.
