 Gaussian 16, Revision A.03,
 Gaussian 16:  ES64L-G16RevA.03 25-Dec-2016

 ------------------
 #p CCSD(T)/cc-pVTZ
 ------------------

 ------------
 H2O_H2O_2568
 ------------
 Symbolic Z-matrix:
 Charge =  0 Multiplicity = 1

                         Standard orientation:
 ---------------------------------------------------------------------
 Center     Atomic      Atomic             Coordinates (Angstroms)
 Number     Number       Type             X           Y           Z
 ---------------------------------------------------------------------
      1          8           0        0.052840   -2.121606    0.000000
      2          1           0       -0.747932   -2.691052    0.000000
      3          1           0        0.851206   -2.694420    0.000000
      4          8           0        0.052840    2.191897    0.000000
      5          1           0       -0.166817    3.149633    0.000000
      6          1           0       -0.781894    1.673510    0.000000
 ---------------------------------------------------------------------

 SCF Done:  E(RHF) =  -152.107328467     A.U. after   10 cycles
 E2 =    -0.5260721357D+00 EUMP2 =    -0.15263340060278D+03
 CCSD(T)
 CCSD(T)= -0.15266060368D+03

 The electronic state is 1-A'.
 Alpha  occ. eigenvalues --  -20.55540 -20.54584  -1.32827  -1.31874  -0.70236
 Alpha  occ. eigenvalues --   -0.69256  -0.56257  -0.55306  -0.49938  -0.48990
 Alpha virt. eigenvalues --    0.13437   0.15599   0.20094   0.21634   0.54031
 Alpha virt. eigenvalues --    0.54767   0.57266   0.58142   0.65975   0.72994
 Alpha virt. eigenvalues --    0.78922   0.79824   0.79895   0.81913   0.82570

 Mulliken charges:
               1
     1  O   -0.505576
     2  H    0.249893
     3  H    0.256621
     4  O   -0.506873
     5  H    0.247205
     6  H    0.258732
 Sum of Mulliken charges =  -0.00000

 Dipole moment (field-independent basis, Debye):
    X=             -1.7944    Y=             -1.2675    Z=              0.0000  Tot=              2.1969
 Quadrupole moment (field-independent basis, Debye-Ang):
   XX=             -9.5602   YY=              1.5432   ZZ=            -14.7134
   XY=             -3.4543   XZ=              0.0000   YZ=              0.0000

 Normal termination of Gaussian 16 at Fri Aug 26 13:49:35 2022.
