 Gaussian 16, Revision A.03,
 Gaussian 16:  ES64L-G16RevA.03 25-Dec-2016

 ------------------
 #p CCSD(T)/cc-pVTZ
 ------------------

 ------------
 H2O_H2O_3860
 ------------
 Symbolic Z-matrix:
 Charge =  0 Multiplicity = 1

                         Standard orientation:
 ---------------------------------------------------------------------
 Center     Atomic      Atomic             Coordinates (Angstroms)
 Number     Number       Type             X           Y           Z
 ---------------------------------------------------------------------
      1          8           0        0.034781   -2.838389    0.000000
      2          1           0       -0.765390   -3.408681    0.000000
      3          1           0        0.833751   -3.410360    0.000000
      4          8           0        0.034781    2.861920    0.000000
      5          1           0        0.322427    3.801477    0.000000
      6          1           0       -0.947280    2.829313    0.000000
 ---------------------------------------------------------------------

 SCF Done:  E(RHF) =  -152.106821472     A.U. after   10 cycles
 E2 =    -0.5259415475D+00 EUMP2 =    -0.15263276301935D+03
 CCSD(T)
 CCSD(T)= -0.15265999497D+03

 The electronic state is 1-A'.
 Alpha  occ. eigenvalues --  -20.55238 -20.55071  -1.32535  -1.32365  -0.69942
 Alpha  occ. eigenvalues --   -0.69769  -0.55954  -0.55786  -0.49642  -0.49473
 Alpha virt. eigenvalues --    0.14350   0.14594   0.20424   0.20620   0.54620
 Alpha virt. eigenvalues --    0.54814   0.57492   0.57664   0.68138   0.68599
 Alpha virt. eigenvalues --    0.79237   0.79403   0.80679   0.80863   0.82618

 Mulliken charges:
               1
     1  O   -0.505429
     2  H    0.251658
     3  H    0.253772
     4  O   -0.505243
     5  H    0.251053
     6  H    0.254188
 Sum of Mulliken charges =  -0.00000

 Dipole moment (field-independent basis, Debye):
    X=             -1.1929    Y=             -0.4124    Z=              0.0000  Tot=              1.2621
 Quadrupole moment (field-independent basis, Debye-Ang):
   XX=             -8.5661   YY=              9.1432   ZZ=            -14.7108
   XY=             -2.5774   XZ=              0.0000   YZ=              0.0000

 Normal termination of Gaussian 16 at Sat Aug 27 03:51:30 2022.
