 Gaussian 16, Revision A.03,
 Gaussian 16:  ES64L-G16RevA.03 25-Dec-2016

 ------------------
 #p CCSD(T)/cc-pVTZ
 ------------------

 ------------
 H2O_H2O_2949
 ------------
 Symbolic Z-matrix:
 Charge =  0 Multiplicity = 1

                         Standard orientation:
 ---------------------------------------------------------------------
 Center     Atomic      Atomic             Coordinates (Angstroms)
 Number     Number       Type             X           Y           Z
 ---------------------------------------------------------------------
      1          8           0        0.057232   -2.297315    0.000000
      2          1           0       -0.743530   -2.866776    0.000000
      3          1           0        0.855609   -2.870116    0.000000
      4          8           0        0.057232    2.411303    0.000000
      5          1           0       -0.512229    3.212065    0.000000
      6          1           0       -0.515568    1.612925    0.000000
 ---------------------------------------------------------------------

 SCF Done:  E(RHF) =  -152.108287793     A.U. after   10 cycles
 E2 =    -0.5259409749D+00 EUMP2 =    -0.15263422876755D+03
 CCSD(T)
 CCSD(T)= -0.15266141467D+03

 The electronic state is 1-A'.
 Alpha  occ. eigenvalues --  -20.55973 -20.54683  -1.33263  -1.31986  -0.70668
 Alpha  occ. eigenvalues --   -0.69369  -0.56742  -0.55449  -0.50381  -0.49107
 Alpha virt. eigenvalues --    0.13170   0.15420   0.19872   0.21638   0.53875
 Alpha virt. eigenvalues --    0.54863   0.56901   0.58046   0.66673   0.70406
 Alpha virt. eigenvalues --    0.78515   0.79476   0.79744   0.80198   0.82806

 Mulliken charges:
               1
     1  O   -0.511210
     2  H    0.253440
     3  H    0.258754
     4  O   -0.512206
     5  H    0.249797
     6  H    0.261424
 Sum of Mulliken charges =   0.00000

 Dipole moment (field-independent basis, Debye):
    X=             -1.9531    Y=             -2.0398    Z=              0.0000  Tot=              2.8240
 Quadrupole moment (field-independent basis, Debye-Ang):
   XX=             -9.8621   YY=             -0.6882   ZZ=            -14.7153
   XY=             -4.9050   XZ=              0.0000   YZ=              0.0000

 Normal termination of Gaussian 16 at Fri Aug 26 17:43:58 2022.
