 Gaussian 16, Revision A.03,
 Gaussian 16:  ES64L-G16RevA.03 25-Dec-2016

 ------------------
 #p CCSD(T)/cc-pVTZ
 ------------------

 ------------
 H2O_H2O_4800
 ------------
 Symbolic Z-matrix:
 Charge =  0 Multiplicity = 1

                         Standard orientation:
 ---------------------------------------------------------------------
 Center     Atomic      Atomic             Coordinates (Angstroms)
 Number     Number       Type             X           Y           Z
 ---------------------------------------------------------------------
      1          8           0        0.000000   -0.000000    3.356414
      2          1           0        0.000000    0.799571    3.927546
      3          1           0       -0.000000   -0.799571    3.927546
      4          8           0        0.000000   -0.000000   -3.356414
      5          1           0       -0.000000   -0.799571   -3.927546
      6          1           0        0.000000    0.799571   -3.927546
 ---------------------------------------------------------------------

 SCF Done:  E(RHF) =  -152.106925234     A.U. after   10 cycles
 E2 =    -0.5259169892D+00 EUMP2 =    -0.15263284222317D+03
 CCSD(T)
 CCSD(T)= -0.15266007290D+03

 The electronic state is 1-AG.
 Alpha  occ. eigenvalues --  -20.55240 -20.55240  -1.32537  -1.32537  -0.69943
 Alpha  occ. eigenvalues --   -0.69943  -0.55962  -0.55962  -0.49644  -0.49644
 Alpha virt. eigenvalues --    0.14393   0.14402   0.20445   0.20449   0.54624
 Alpha virt. eigenvalues --    0.54626   0.57499   0.57501   0.68258   0.68273
 Alpha virt. eigenvalues --    0.79235   0.79235   0.80676   0.80677   0.82602

 Mulliken charges:
               1
     1  O   -0.506014
     2  H    0.253007
     3  H    0.253007
     4  O   -0.506014
     5  H    0.253007
     6  H    0.253007
 Sum of Mulliken charges =  -0.00000

 Dipole moment (field-independent basis, Debye):
    X=             -0.0000    Y=              0.0000    Z=              0.0000  Tot=              0.0000
 Quadrupole moment (field-independent basis, Debye-Ang):
   XX=            -14.7108   YY=             -7.8011   ZZ=             14.8157
   XY=              0.0000   XZ=              0.0000   YZ=             -0.0000

 3\MP4DQ=-152.641969\MP4SDQ=-152.645028\CCSD=-152.64444\CCSD(T)=-152.66
 Normal termination of Gaussian 16 at Sat Aug 27 09:24:18 2022.
