 Gaussian 16, Revision A.03,
 Gaussian 16:  ES64L-G16RevA.03 25-Dec-2016

 ------------------
 #p CCSD(T)/cc-pVTZ
 ------------------

 ------------
 H2O_H2O_3078
 ------------
 Symbolic Z-matrix:
 Charge =  0 Multiplicity = 1

                         Standard orientation:
 ---------------------------------------------------------------------
 Center     Atomic      Atomic             Coordinates (Angstroms)
 Number     Number       Type             X           Y           Z
 ---------------------------------------------------------------------
      1          8           0        0.011143   -2.437809    0.000000
      2          1           0       -0.788653   -3.008626    0.000000
      3          1           0        0.810489   -3.009255    0.000000
      4          8           0        0.011143    2.439995    0.000000
      5          1           0        0.684209    3.155876    0.000000
      6          1           0       -0.884328    2.844516    0.000000
 ---------------------------------------------------------------------

 SCF Done:  E(RHF) =  -152.106093607     A.U. after   10 cycles
 E2 =    -0.5260363925D+00 EUMP2 =    -0.15263212999906D+03
 CCSD(T)
 CCSD(T)= -0.15265937531D+03

 The electronic state is 1-A'.
 Alpha  occ. eigenvalues --  -20.54905 -20.54884  -1.32198  -1.32176  -0.69608
 Alpha  occ. eigenvalues --   -0.69586  -0.55593  -0.55548  -0.49300  -0.49278
 Alpha virt. eigenvalues --    0.14418   0.14919   0.20597   0.20762   0.54834
 Alpha virt. eigenvalues --    0.55116   0.57741   0.57822   0.67180   0.70237
 Alpha virt. eigenvalues --    0.79554   0.79617   0.80990   0.81101   0.82641

 Mulliken charges:
               1
     1  O   -0.501129
     2  H    0.250044
     3  H    0.251086
     4  O   -0.501081
     5  H    0.249870
     6  H    0.251210
 Sum of Mulliken charges =  -0.00000

 Dipole moment (field-independent basis, Debye):
    X=             -0.3804    Y=             -0.0386    Z=              0.0000  Tot=              0.3824
 Quadrupole moment (field-independent basis, Debye-Ang):
   XX=             -7.8937   YY=              7.3288   ZZ=            -14.7098
   XY=             -0.5958   XZ=              0.0000   YZ=              0.0000

 Normal termination of Gaussian 16 at Fri Aug 26 19:12:36 2022.
