 Gaussian 16, Revision A.03,
 Gaussian 16:  ES64L-G16RevA.03 25-Dec-2016

 ------------------
 #p CCSD(T)/cc-pVTZ
 ------------------

 ------------
 H2O_H2O_4655
 ------------
 Symbolic Z-matrix:
 Charge =  0 Multiplicity = 1

                         Standard orientation:
 ---------------------------------------------------------------------
 Center     Atomic      Atomic             Coordinates (Angstroms)
 Number     Number       Type             X           Y           Z
 ---------------------------------------------------------------------
      1          8           0        0.018360   -3.273356    0.000000
      2          1           0       -0.781487   -3.844102    0.000000
      3          1           0        0.817655   -3.844873    0.000000
      4          8           0        0.018360    3.279400    0.000000
      5          1           0        0.592299    4.076958    0.000000
      6          1           0       -0.922225    3.563662    0.000000
 ---------------------------------------------------------------------

 SCF Done:  E(RHF) =  -152.106924832     A.U. after   10 cycles
 E2 =    -0.5259185816D+00 EUMP2 =    -0.15263284341377D+03
 CCSD(T)
 CCSD(T)= -0.15266007400D+03

 The electronic state is 1-A'.
 Alpha  occ. eigenvalues --  -20.55250 -20.55218  -1.32546  -1.32514  -0.69953
 Alpha  occ. eigenvalues --   -0.69920  -0.55972  -0.55939  -0.49654  -0.49622
 Alpha virt. eigenvalues --    0.14385   0.14421   0.20436   0.20471   0.54615
 Alpha virt. eigenvalues --    0.54650   0.57490   0.57523   0.68251   0.68293
 Alpha virt. eigenvalues --    0.79225   0.79257   0.80666   0.80702   0.82593

 Mulliken charges:
               1
     1  O   -0.506014
     2  H    0.252632
     3  H    0.253382
     4  O   -0.505984
     5  H    0.252452
     6  H    0.253532
 Sum of Mulliken charges =  -0.00000

 Dipole moment (field-independent basis, Debye):
    X=             -0.6311    Y=             -0.1054    Z=              0.0000  Tot=              0.6399
 Quadrupole moment (field-independent basis, Debye-Ang):
   XX=             -8.0140   YY=             13.6871   ZZ=            -14.7108
   XY=             -1.5257   XZ=              0.0000   YZ=              0.0000

 Normal termination of Gaussian 16 at Sat Aug 27 08:34:31 2022.
