 Gaussian 16, Revision A.03,
 Gaussian 16:  ES64L-G16RevA.03 25-Dec-2016

 ------------------
 #p CCSD(T)/cc-pVTZ
 ------------------

 -----------
 H2O_H2O_579
 -----------
 Symbolic Z-matrix:
 Charge =  0 Multiplicity = 1

                         Standard orientation:
 ---------------------------------------------------------------------
 Center     Atomic      Atomic             Coordinates (Angstroms)
 Number     Number       Type             X           Y           Z
 ---------------------------------------------------------------------
      1          8           0        0.014784   -1.107309    0.000000
      2          1           0       -0.785441   -1.677523    0.000000
      3          1           0        0.813700   -1.679358    0.000000
      4          8           0        0.014784    1.111167    0.000000
      5          1           0        0.640161    1.869065    0.000000
      6          1           0       -0.904967    1.456949    0.000000
 ---------------------------------------------------------------------

 SCF Done:  E(RHF) =  -152.077134243     A.U. after   11 cycles
 E2 =    -0.5316573300D+00 EUMP2 =    -0.15260879157286D+03
 CCSD(T)
 CCSD(T)= -0.15263593936D+03

 The electronic state is 1-A'.
 Alpha  occ. eigenvalues --  -20.52531 -20.52411  -1.31295  -1.29355  -0.68339
 Alpha  occ. eigenvalues --   -0.67112  -0.58723  -0.48604  -0.47205  -0.45950
 Alpha virt. eigenvalues --    0.14564   0.17946   0.20533   0.22682   0.50637
 Alpha virt. eigenvalues --    0.58947   0.59030   0.64684   0.71206   0.77001
 Alpha virt. eigenvalues --    0.77856   0.81534   0.84260   0.86613   0.87035

 Mulliken charges:
               1
     1  O   -0.449545
     2  H    0.220270
     3  H    0.228214
     4  O   -0.441840
     5  H    0.212215
     6  H    0.230686
 Sum of Mulliken charges =  -0.00000

 Dipole moment (field-independent basis, Debye):
    X=             -0.4464    Y=             -0.0775    Z=              0.0000  Tot=              0.4531
 Quadrupole moment (field-independent basis, Debye-Ang):
   XX=             -8.1890   YY=             -4.3923   ZZ=            -14.7395
   XY=             -0.1715   XZ=              0.0000   YZ=              0.0000

 Normal termination of Gaussian 16 at Fri Aug 26 17:49:30 2022.
