 Gaussian 16, Revision A.03,
 Gaussian 16:  ES64L-G16RevA.03 25-Dec-2016

 ------------------
 #p CCSD(T)/cc-pVTZ
 ------------------

 ------------
 H2O_H2O_4820
 ------------
 Symbolic Z-matrix:
 Charge =  0 Multiplicity = 1

                         Standard orientation:
 ---------------------------------------------------------------------
 Center     Atomic      Atomic             Coordinates (Angstroms)
 Number     Number       Type             X           Y           Z
 ---------------------------------------------------------------------
      1          8           0        0.055227   -3.310520    0.000000
      2          1           0       -0.745152   -3.880519    0.000000
      3          1           0        0.853988   -3.882784    0.000000
      4          8           0        0.055227    3.395026    0.000000
      5          1           0       -0.288196    4.315659    0.000000
      6          1           0       -0.704272    2.771594    0.000000
 ---------------------------------------------------------------------

 SCF Done:  E(RHF) =  -152.107479853     A.U. after   10 cycles
 E2 =    -0.5258690457D+00 EUMP2 =    -0.15263334889913D+03
 CCSD(T)
 CCSD(T)= -0.15266056771D+03

 The electronic state is 1-A'.
 Alpha  occ. eigenvalues --  -20.55638 -20.55207  -1.32937  -1.32506  -0.70343
 Alpha  occ. eigenvalues --   -0.69906  -0.56387  -0.55953  -0.50049  -0.49619
 Alpha virt. eigenvalues --    0.14043   0.14476   0.20123   0.20579   0.54218
 Alpha virt. eigenvalues --    0.54666   0.57143   0.57574   0.67793   0.68242
 Alpha virt. eigenvalues --    0.78830   0.79255   0.80260   0.80716   0.82185

 Mulliken charges:
               1
     1  O   -0.509309
     2  H    0.253653
     3  H    0.255656
     4  O   -0.509073
     5  H    0.252579
     6  H    0.256494
 Sum of Mulliken charges =  -0.00000

 Dipole moment (field-independent basis, Debye):
    X=             -1.8997    Y=             -1.4738    Z=              0.0000  Tot=              2.4044
 Quadrupole moment (field-independent basis, Debye-Ang):
   XX=             -9.7244   YY=              6.6677   ZZ=            -14.7122
   XY=             -6.1011   XZ=              0.0000   YZ=              0.0000

 Normal termination of Gaussian 16 at Sat Aug 27 09:31:07 2022.
