 Gaussian 16, Revision A.03,
 Gaussian 16:  ES64L-G16RevA.03 25-Dec-2016

 ------------------
 #p CCSD(T)/cc-pVTZ
 ------------------

 -----------
 H2O_H2O_137
 -----------
 Symbolic Z-matrix:
 Charge =  0 Multiplicity = 1

                         Standard orientation:
 ---------------------------------------------------------------------
 Center     Atomic      Atomic             Coordinates (Angstroms)
 Number     Number       Type             X           Y           Z
 ---------------------------------------------------------------------
      1          8           0        0.040452   -0.852079    0.000000
      2          1           0       -0.761399   -1.420006    0.000000
      3          1           0        0.837731   -1.426407    0.000000
      4          8           0        0.040452    0.885212    0.000000
      5          1           0        0.205861    1.853791    0.000000
      6          1           0       -0.929421    0.727561    0.000000
 ---------------------------------------------------------------------

 SCF Done:  E(RHF) =  -151.984624252     A.U. after   12 cycles
 E2 =    -0.5439491036D+00 EUMP2 =    -0.15252857335539D+03
 CCSD(T)
 CCSD(T)= -0.15255430047D+03

 The electronic state is 1-A'.
 Alpha  occ. eigenvalues --  -20.52530 -20.51378  -1.35814  -1.27220  -0.72291
 Alpha  occ. eigenvalues --   -0.68822  -0.59760  -0.52030  -0.43832  -0.39756
 Alpha virt. eigenvalues --    0.14132   0.18871   0.19827   0.23739   0.53492
 Alpha virt. eigenvalues --    0.56329   0.58604   0.65195   0.72672   0.77568
 Alpha virt. eigenvalues --    0.80450   0.82210   0.82770   0.84510   0.88845

 Mulliken charges:
               1
     1  O   -0.377218
     2  H    0.176653
     3  H    0.202863
     4  O   -0.361096
     5  H    0.128377
     6  H    0.230420
 Sum of Mulliken charges =  -0.00000

 Dipole moment (field-independent basis, Debye):
    X=             -1.1039    Y=             -0.7512    Z=              0.0000  Tot=              1.3353
 Quadrupole moment (field-independent basis, Debye-Ang):
   XX=             -9.1202   YY=             -7.8411   ZZ=            -14.6850
   XY=             -0.5795   XZ=              0.0000   YZ=              0.0000

 Normal termination of Gaussian 16 at Fri Aug 26 13:11:31 2022.
