 Gaussian 16, Revision A.03,
 Gaussian 16:  ES64L-G16RevA.03 25-Dec-2016

 ------------------
 #p CCSD(T)/cc-pVTZ
 ------------------

 ------------
 H2O_H2O_1527
 ------------
 Symbolic Z-matrix:
 Charge =  0 Multiplicity = 1

                         Standard orientation:
 ---------------------------------------------------------------------
 Center     Atomic      Atomic             Coordinates (Angstroms)
 Number     Number       Type             X           Y           Z
 ---------------------------------------------------------------------
      1          8           0        0.007455   -1.614122    0.000000
      2          1           0       -0.792343   -2.184936    0.000000
      3          1           0        0.806799   -2.185572    0.000000
      4          8           0        0.007455    1.615093    0.000000
      5          1           0        0.725904    2.285419    0.000000
      6          1           0       -0.859640    2.077318    0.000000
 ---------------------------------------------------------------------

 SCF Done:  E(RHF) =  -152.102842658     A.U. after   10 cycles
 E2 =    -0.5269993645D+00 EUMP2 =    -0.15262984202230D+03
 CCSD(T)
 CCSD(T)= -0.15265711837D+03

 The electronic state is 1-A'.
 Alpha  occ. eigenvalues --  -20.54074 -20.54053  -1.31414  -1.31288  -0.68833
 Alpha  occ. eigenvalues --   -0.68731  -0.55422  -0.53666  -0.48582  -0.48291
 Alpha virt. eigenvalues --    0.14320   0.16428   0.20580   0.21655   0.52445
 Alpha virt. eigenvalues --    0.58163   0.58525   0.58815   0.62994   0.76126
 Alpha virt. eigenvalues --    0.78393   0.78452   0.79669   0.82031   0.85694

 Mulliken charges:
               1
     1  O   -0.478129
     2  H    0.238052
     3  H    0.240116
     4  O   -0.478003
     5  H    0.237993
     6  H    0.239971
 Sum of Mulliken charges =  -0.00000

 Dipole moment (field-independent basis, Debye):
    X=             -0.2466    Y=             -0.0182    Z=              0.0000  Tot=              0.2473
 Quadrupole moment (field-independent basis, Debye-Ang):
   XX=             -7.9114   YY=              0.5667   ZZ=            -14.7090
   XY=             -0.1915   XZ=              0.0000   YZ=              0.0000

 Normal termination of Gaussian 16 at Sat Aug 27 05:17:24 2022.
