 Gaussian 16, Revision A.03,
 Gaussian 16:  ES64L-G16RevA.03 25-Dec-2016

 ------------------
 #p CCSD(T)/cc-pVTZ
 ------------------

 ------------
 H2O_H2O_3806
 ------------
 Symbolic Z-matrix:
 Charge =  0 Multiplicity = 1

                         Standard orientation:
 ---------------------------------------------------------------------
 Center     Atomic      Atomic             Coordinates (Angstroms)
 Number     Number       Type             X           Y           Z
 ---------------------------------------------------------------------
      1          8           0        0.021859   -2.819871    0.000000
      2          1           0       -0.778092   -3.390470    0.000000
      3          1           0        0.821049   -3.391535    0.000000
      4          8           0        0.021859    2.828537    0.000000
      5          1           0        0.542559    3.661830    0.000000
      6          1           0       -0.935263    3.050848    0.000000
 ---------------------------------------------------------------------

 SCF Done:  E(RHF) =  -152.106641691     A.U. after   10 cycles
 E2 =    -0.5259573373D+00 EUMP2 =    -0.15263259902877D+03
 CCSD(T)
 CCSD(T)= -0.15265983481D+03

 The electronic state is 1-A'.
 Alpha  occ. eigenvalues --  -20.55131 -20.55068  -1.32426  -1.32363  -0.69834
 Alpha  occ. eigenvalues --   -0.69769  -0.55837  -0.55775  -0.49532  -0.49469
 Alpha virt. eigenvalues --    0.14435   0.14591   0.20505   0.20595   0.54728
 Alpha virt. eigenvalues --    0.54813   0.57585   0.57654   0.68222   0.68669
 Alpha virt. eigenvalues --    0.79346   0.79408   0.80792   0.80864   0.82726

 Mulliken charges:
               1
     1  O   -0.504358
     2  H    0.251498
     3  H    0.252860
     4  O   -0.504273
     5  H    0.251187
     6  H    0.253085
 Sum of Mulliken charges =  -0.00000

 Dipole moment (field-independent basis, Debye):
    X=             -0.7494    Y=             -0.1519    Z=              0.0000  Tot=              0.7647
 Quadrupole moment (field-independent basis, Debye-Ang):
   XX=             -8.1072   YY=              9.9845   ZZ=            -14.7105
   XY=             -1.4982   XZ=              0.0000   YZ=              0.0000

 Normal termination of Gaussian 16 at Sat Aug 27 03:28:15 2022.
