 Gaussian 16, Revision A.03,
 Gaussian 16:  ES64L-G16RevA.03 25-Dec-2016

 ------------------
 #p CCSD(T)/cc-pVTZ
 ------------------

 ------------
 H2O_H2O_1747
 ------------
 Symbolic Z-matrix:
 Charge =  0 Multiplicity = 1

                         Standard orientation:
 ---------------------------------------------------------------------
 Center     Atomic      Atomic             Coordinates (Angstroms)
 Number     Number       Type             X           Y           Z
 ---------------------------------------------------------------------
      1          8           0        0.056765   -1.667251    0.000000
      2          1           0       -0.744424   -2.236111    0.000000
      3          1           0        0.854711   -2.240651    0.000000
      4          8           0        0.056765    1.766246    0.000000
      5          1           0       -0.402651    2.634832    0.000000
      6          1           0       -0.615882    1.049970    0.000000
 ---------------------------------------------------------------------

 SCF Done:  E(RHF) =  -152.108956122     A.U. after   10 cycles
 E2 =    -0.5266333736D+00 EUMP2 =    -0.15263558949522D+03
 CCSD(T)
 CCSD(T)= -0.15266271620D+03

 The electronic state is 1-A'.
 Alpha  occ. eigenvalues --  -20.56192 -20.53822  -1.33462  -1.31121  -0.70868
 Alpha  occ. eigenvalues --   -0.68504  -0.56917  -0.54596  -0.50583  -0.48254
 Alpha virt. eigenvalues --    0.13053   0.16696   0.19731   0.24216   0.53181
 Alpha virt. eigenvalues --    0.55453   0.56684   0.58186   0.66719   0.75229
 Alpha virt. eigenvalues --    0.77284   0.77288   0.79477   0.81049   0.84337

 Mulliken charges:
               1
     1  O   -0.497233
     2  H    0.246646
     3  H    0.258145
     4  O   -0.512460
     5  H    0.241640
     6  H    0.263263
 Sum of Mulliken charges =  -0.00000

 Dipole moment (field-independent basis, Debye):
    X=             -1.8906    Y=             -1.8817    Z=              0.0000  Tot=              2.6674
 Quadrupole moment (field-independent basis, Debye-Ang):
   XX=             -9.8272   YY=             -2.4275   ZZ=            -14.7210
   XY=             -3.3887   XZ=              0.0000   YZ=              0.0000

 Normal termination of Gaussian 16 at Sat Aug 27 06:33:44 2022.
