 Gaussian 16, Revision A.03,
 Gaussian 16:  ES64L-G16RevA.03 25-Dec-2016

 ------------------
 #p CCSD(T)/cc-pVTZ
 ------------------

 ------------
 H2O_H2O_3180
 ------------
 Symbolic Z-matrix:
 Charge =  0 Multiplicity = 1

                         Standard orientation:
 ---------------------------------------------------------------------
 Center     Atomic      Atomic             Coordinates (Angstroms)
 Number     Number       Type             X           Y           Z
 ---------------------------------------------------------------------
      1          8           0        0.018360   -2.488900    0.000000
      2          1           0       -0.781573   -3.059524    0.000000
      3          1           0        0.817569   -3.060539    0.000000
      4          8           0        0.018360    2.494938    0.000000
      5          1           0        0.592420    3.292410    0.000000
      6          1           0       -0.922181    2.779343    0.000000
 ---------------------------------------------------------------------

 SCF Done:  E(RHF) =  -152.106234075     A.U. after   10 cycles
 E2 =    -0.5260179165D+00 EUMP2 =    -0.15263225199130D+03
 CCSD(T)
 CCSD(T)= -0.15265949481D+03

 The electronic state is 1-A'.
 Alpha  occ. eigenvalues --  -20.54968 -20.54912  -1.32261  -1.32204  -0.69671
 Alpha  occ. eigenvalues --   -0.69612  -0.55655  -0.55592  -0.49364  -0.49308
 Alpha virt. eigenvalues --    0.14407   0.14863   0.20568   0.20742   0.54808
 Alpha virt. eigenvalues --    0.55048   0.57701   0.57794   0.67462   0.69859
 Alpha virt. eigenvalues --    0.79505   0.79574   0.80934   0.81064   0.82706

 Mulliken charges:
               1
     1  O   -0.501966
     2  H    0.250174
     3  H    0.251795
     4  O   -0.501853
     5  H    0.249856
     6  H    0.251994
 Sum of Mulliken charges =   0.00000

 Dipole moment (field-independent basis, Debye):
    X=             -0.6273    Y=             -0.1065    Z=              0.0000  Tot=              0.6363
 Quadrupole moment (field-independent basis, Debye-Ang):
   XX=             -8.0252   YY=              7.5480   ZZ=            -14.7100
   XY=             -1.0368   XZ=              0.0000   YZ=              0.0000

 Normal termination of Gaussian 16 at Fri Aug 26 20:09:45 2022.
