 Gaussian 16, Revision A.03,
 Gaussian 16:  ES64L-G16RevA.03 25-Dec-2016

 ------------------
 #p CCSD(T)/cc-pVTZ
 ------------------

 ------------
 H2O_H2O_4524
 ------------
 Symbolic Z-matrix:
 Charge =  0 Multiplicity = 1

                         Standard orientation:
 ---------------------------------------------------------------------
 Center     Atomic      Atomic             Coordinates (Angstroms)
 Number     Number       Type             X           Y           Z
 ---------------------------------------------------------------------
      1          8           0        0.057201   -3.134925    0.000000
      2          1           0       -0.743249   -3.704824    0.000000
      3          1           0        0.855891   -3.707288    0.000000
      4          8           0        0.057201    3.248975    0.000000
      5          1           0       -0.512699    4.049426    0.000000
      6          1           0       -0.515162    2.450285    0.000000
 ---------------------------------------------------------------------

 SCF Done:  E(RHF) =  -152.107704529     A.U. after   10 cycles
 E2 =    -0.5258523889D+00 EUMP2 =    -0.15263355691744D+03
 CCSD(T)
 CCSD(T)= -0.15266077079D+03

 The electronic state is 1-A'.
 Alpha  occ. eigenvalues --  -20.55783 -20.55144  -1.33083  -1.32444  -0.70488
 Alpha  occ. eigenvalues --   -0.69843  -0.56544  -0.55898  -0.50197  -0.49560
 Alpha virt. eigenvalues --    0.13902   0.14566   0.20007   0.20691   0.54069
 Alpha virt. eigenvalues --    0.54726   0.57014   0.57651   0.67591   0.68313
 Alpha virt. eigenvalues --    0.78684   0.79310   0.80108   0.80762   0.82066

 Mulliken charges:
               1
     1  O   -0.510648
     2  H    0.254200
     3  H    0.256451
     4  O   -0.510260
     5  H    0.252586
     6  H    0.257672
 Sum of Mulliken charges =   0.00000

 Dipole moment (field-independent basis, Debye):
    X=             -1.9665    Y=             -1.9927    Z=              0.0000  Tot=              2.7996
 Quadrupole moment (field-independent basis, Debye-Ang):
   XX=             -9.8645   YY=              2.6510   ZZ=            -14.7128
   XY=             -6.5361   XZ=              0.0000   YZ=              0.0000

 Normal termination of Gaussian 16 at Sat Aug 27 07:48:42 2022.
