 Gaussian 16, Revision A.03,
 Gaussian 16:  ES64L-G16RevA.03 25-Dec-2016

 ------------------
 #p CCSD(T)/cc-pVTZ
 ------------------

 ------------
 H2O_H2O_3120
 ------------
 Symbolic Z-matrix:
 Charge =  0 Multiplicity = 1

                         Standard orientation:
 ---------------------------------------------------------------------
 Center     Atomic      Atomic             Coordinates (Angstroms)
 Number     Number       Type             X           Y           Z
 ---------------------------------------------------------------------
      1          8           0        0.055249   -2.406428    0.000000
      2          1           0       -0.745428   -2.976008    0.000000
      3          1           0        0.853711   -2.979110    0.000000
      4          8           0        0.055249    2.490876    0.000000
      5          1           0       -0.287693    3.411690    0.000000
      6          1           0       -0.704576    1.867842    0.000000
 ---------------------------------------------------------------------

 SCF Done:  E(RHF) =  -152.107580355     A.U. after   10 cycles
 E2 =    -0.5259406874D+00 EUMP2 =    -0.15263352104275D+03
 CCSD(T)
 CCSD(T)= -0.15266072964D+03

 The electronic state is 1-A'.
 Alpha  occ. eigenvalues --  -20.55664 -20.54803  -1.32959  -1.32099  -0.70366
 Alpha  occ. eigenvalues --   -0.69488  -0.56410  -0.55546  -0.50071  -0.49216
 Alpha virt. eigenvalues --    0.13596   0.15165   0.20060   0.21199   0.54113
 Alpha virt. eigenvalues --    0.54913   0.57139   0.57882   0.66875   0.70084
 Alpha virt. eigenvalues --    0.78815   0.79646   0.79994   0.80640   0.82789

 Mulliken charges:
               1
     1  O   -0.509148
     2  H    0.252239
     3  H    0.257221
     4  O   -0.508962
     5  H    0.249637
     6  H    0.259013
 Sum of Mulliken charges =  -0.00000

 Dipole moment (field-independent basis, Debye):
    X=             -1.8879    Y=             -1.5005    Z=              0.0000  Tot=              2.4116
 Quadrupole moment (field-independent basis, Debye-Ang):
   XX=             -9.7226   YY=              2.1115   ZZ=            -14.7132
   XY=             -4.4008   XZ=              0.0000   YZ=              0.0000

 Normal termination of Gaussian 16 at Fri Aug 26 19:36:01 2022.
