 Gaussian 16, Revision A.03,
 Gaussian 16:  ES64L-G16RevA.03 25-Dec-2016

 ------------------
 #p CCSD(T)/cc-pVTZ
 ------------------

 -----------
 H2O_H2O_896
 -----------
 Symbolic Z-matrix:
 Charge =  0 Multiplicity = 1

                         Standard orientation:
 ---------------------------------------------------------------------
 Center     Atomic      Atomic             Coordinates (Angstroms)
 Number     Number       Type             X           Y           Z
 ---------------------------------------------------------------------
      1          8           0        0.056191   -1.219251    0.000000
      2          1           0       -0.745552   -1.787331    0.000000
      3          1           0        0.853579   -1.793426    0.000000
      4          8           0        0.056191    1.310765    0.000000
      5          1           0       -0.344561    2.207929    0.000000
      6          1           0       -0.662516    0.640714    0.000000
 ---------------------------------------------------------------------

 SCF Done:  E(RHF) =  -152.101533001     A.U. after   10 cycles
 E2 =    -0.5297128671D+00 EUMP2 =    -0.15263124586813D+03
 CCSD(T)
 CCSD(T)= -0.15265824431D+03

 The electronic state is 1-A'.
 Alpha  occ. eigenvalues --  -20.56244 -20.52285  -1.33965  -1.29666  -0.71337
 Alpha  occ. eigenvalues --   -0.68138  -0.56202  -0.53155  -0.51008  -0.46732
 Alpha virt. eigenvalues --    0.13203   0.17972   0.19567   0.25533   0.51409
 Alpha virt. eigenvalues --    0.56449   0.59655   0.60548   0.71300   0.73917
 Alpha virt. eigenvalues --    0.76090   0.82333   0.82756   0.83993   0.85962

 Mulliken charges:
               1
     1  O   -0.466940
     2  H    0.234046
     3  H    0.252179
     4  O   -0.501123
     5  H    0.220142
     6  H    0.261695
 Sum of Mulliken charges =  -0.00000

 Dipole moment (field-independent basis, Debye):
    X=             -1.7648    Y=             -1.8976    Z=              0.0000  Tot=              2.5914
 Quadrupole moment (field-independent basis, Debye-Ang):
   XX=             -9.7990   YY=             -4.6054   ZZ=            -14.7212
   XY=             -2.3952   XZ=              0.0000   YZ=              0.0000

 Normal termination of Gaussian 16 at Fri Aug 26 20:57:35 2022.
