 Gaussian 16, Revision A.03,
 Gaussian 16:  ES64L-G16RevA.03 25-Dec-2016

 ------------------
 #p CCSD(T)/cc-pVTZ
 ------------------

 ------------
 H2O_H2O_2836
 ------------
 Symbolic Z-matrix:
 Charge =  0 Multiplicity = 1

                         Standard orientation:
 ---------------------------------------------------------------------
 Center     Atomic      Atomic             Coordinates (Angstroms)
 Number     Number       Type             X           Y           Z
 ---------------------------------------------------------------------
      1          8           0        0.037677   -2.290699    0.000000
      2          1           0       -0.762696   -2.860705    0.000000
      3          1           0        0.836444   -2.862955    0.000000
      4          8           0        0.037677    2.318939    0.000000
      5          1           0        0.263598    3.275216    0.000000
      6          1           0       -0.940183    2.222520    0.000000
 ---------------------------------------------------------------------

 SCF Done:  E(RHF) =  -152.106382648     A.U. after   10 cycles
 E2 =    -0.5260477489D+00 EUMP2 =    -0.15263243039673D+03
 CCSD(T)
 CCSD(T)= -0.15265966592D+03

 The electronic state is 1-A'.
 Alpha  occ. eigenvalues --  -20.55089 -20.54774  -1.32381  -1.32063  -0.69792
 Alpha  occ. eigenvalues --   -0.69462  -0.55779  -0.55457  -0.49486  -0.49169
 Alpha virt. eigenvalues --    0.14084   0.15175   0.20417   0.20988   0.54503
 Alpha virt. eigenvalues --    0.55164   0.57601   0.57911   0.66348   0.71340
 Alpha virt. eigenvalues --    0.79377   0.79715   0.80720   0.81328   0.82687

 Mulliken charges:
               1
     1  O   -0.502657
     2  H    0.249303
     3  H    0.253442
     4  O   -0.502223
     5  H    0.248138
     6  H    0.253998
 Sum of Mulliken charges =  -0.00000

 Dipole moment (field-independent basis, Debye):
    X=             -1.2837    Y=             -0.5023    Z=              0.0000  Tot=              1.3784
 Quadrupole moment (field-independent basis, Debye-Ang):
   XX=             -8.7043   YY=              4.9377   ZZ=            -14.7107
   XY=             -2.1530   XZ=              0.0000   YZ=              0.0000

 Normal termination of Gaussian 16 at Fri Aug 26 16:37:40 2022.
