 Gaussian 16, Revision A.03,
 Gaussian 16:  ES64L-G16RevA.03 25-Dec-2016

 ------------------
 #p CCSD(T)/cc-pVTZ
 ------------------

 ------------
 H2O_H2O_2265
 ------------
 Symbolic Z-matrix:
 Charge =  0 Multiplicity = 1

                         Standard orientation:
 ---------------------------------------------------------------------
 Center     Atomic      Atomic             Coordinates (Angstroms)
 Number     Number       Type             X           Y           Z
 ---------------------------------------------------------------------
      1          8           0        0.047540   -1.972764    0.000000
      2          1           0       -0.753198   -2.542259    0.000000
      3          1           0        0.845941   -2.545531    0.000000
      4          8           0        0.047540    2.023335    0.000000
      5          1           0        0.018888    3.005520    0.000000
      6          1           0       -0.872266    1.677701    0.000000
 ---------------------------------------------------------------------

 SCF Done:  E(RHF) =  -152.106662364     A.U. after   10 cycles
 E2 =    -0.5262219490D+00 EUMP2 =    -0.15263288431321D+03
 CCSD(T)
 CCSD(T)= -0.15266009358D+03

 The electronic state is 1-A'.
 Alpha  occ. eigenvalues --  -20.55265 -20.54464  -1.32547  -1.31745  -0.69960
 Alpha  occ. eigenvalues --   -0.69129  -0.55949  -0.55134  -0.49654  -0.48858
 Alpha virt. eigenvalues --    0.13580   0.15816   0.20211   0.21701   0.53699
 Alpha virt. eigenvalues --    0.54917   0.57486   0.58275   0.64775   0.74957
 Alpha virt. eigenvalues --    0.79059   0.79697   0.80160   0.81535   0.83800

 Mulliken charges:
               1
     1  O   -0.500720
     2  H    0.247156
     3  H    0.254607
     4  O   -0.502065
     5  H    0.244808
     6  H    0.256214
 Sum of Mulliken charges =  -0.00000

 Dipole moment (field-independent basis, Debye):
    X=             -1.6058    Y=             -0.9203    Z=              0.0000  Tot=              1.8508
 Quadrupole moment (field-independent basis, Debye-Ang):
   XX=             -9.2330   YY=              1.6991   ZZ=            -14.7127
   XY=             -2.5599   XZ=              0.0000   YZ=              0.0000

 Normal termination of Gaussian 16 at Sat Aug 27 09:32:26 2022.
