 Gaussian 16, Revision A.03,
 Gaussian 16:  ES64L-G16RevA.03 25-Dec-2016

 ------------------
 #p CCSD(T)/cc-pVTZ
 ------------------

 -----------
 H2O_H2O_209
 -----------
 Symbolic Z-matrix:
 Charge =  0 Multiplicity = 1

                         Standard orientation:
 ---------------------------------------------------------------------
 Center     Atomic      Atomic             Coordinates (Angstroms)
 Number     Number       Type             X           Y           Z
 ---------------------------------------------------------------------
      1          8           0        0.031759   -0.899612    0.000000
      2          1           0       -0.769524   -1.468339    0.000000
      3          1           0        0.829611   -1.473143    0.000000
      4          8           0        0.031759    0.918672    0.000000
      5          1           0        0.382034    1.836720    0.000000
      6          1           0       -0.950267    0.952283    0.000000
 ---------------------------------------------------------------------

 SCF Done:  E(RHF) =  -152.011667843     A.U. after   11 cycles
 E2 =    -0.5405533720D+00 EUMP2 =    -0.15255222121478D+03
 CCSD(T)
 CCSD(T)= -0.15257837587D+03

 The electronic state is 1-A'.
 Alpha  occ. eigenvalues --  -20.52070 -20.51472  -1.34037  -1.27696  -0.70414
 Alpha  occ. eigenvalues --   -0.67527  -0.61187  -0.50786  -0.44166  -0.40731
 Alpha virt. eigenvalues --    0.14388   0.18661   0.20072   0.23421   0.52999
 Alpha virt. eigenvalues --    0.57045   0.58726   0.65166   0.70994   0.78003
 Alpha virt. eigenvalues --    0.79465   0.82714   0.83564   0.85591   0.88456

 Mulliken charges:
               1
     1  O   -0.408052
     2  H    0.193366
     3  H    0.213037
     4  O   -0.378919
     5  H    0.152473
     6  H    0.228095
 Sum of Mulliken charges =   0.00000

 Dipole moment (field-independent basis, Debye):
    X=             -0.8915    Y=             -0.4265    Z=              0.0000  Tot=              0.9883
 Quadrupole moment (field-independent basis, Debye-Ang):
   XX=             -8.7754   YY=             -7.1137   ZZ=            -14.7239
   XY=             -0.3926   XZ=              0.0000   YZ=              0.0000

 Normal termination of Gaussian 16 at Fri Aug 26 14:05:34 2022.
