 Gaussian 16, Revision A.03,
 Gaussian 16:  ES64L-G16RevA.03 25-Dec-2016

 ------------------
 #p CCSD(T)/cc-pVTZ
 ------------------

 ----------
 H2O_H2O_11
 ----------
 Symbolic Z-matrix:
 Charge =  0 Multiplicity = 1

                         Standard orientation:
 ---------------------------------------------------------------------
 Center     Atomic      Atomic             Coordinates (Angstroms)
 Number     Number       Type             X           Y           Z
 ---------------------------------------------------------------------
      1          8           0        0.037714   -0.788364    0.000000
      2          1           0       -0.764157   -1.356262    0.000000
      3          1           0        0.834972   -1.362722    0.000000
      4          8           0        0.037714    0.816407    0.000000
      5          1           0        0.266153    1.772085    0.000000
      6          1           0       -0.940397    0.722562    0.000000
 ---------------------------------------------------------------------

 SCF Done:  E(RHF) =  -151.915806841     A.U. after   12 cycles
 E2 =    -0.5519218549D+00 EUMP2 =    -0.15246772869607D+03
 CCSD(T)
 CCSD(T)= -0.15249211175D+03

 The electronic state is 1-A'.
 Alpha  occ. eigenvalues --  -20.52592 -20.51647  -1.38710  -1.26584  -0.74126
 Alpha  occ. eigenvalues --   -0.70323  -0.60997  -0.54103  -0.43197  -0.34533
 Alpha virt. eigenvalues --    0.13965   0.19083   0.19918   0.23640   0.53568
 Alpha virt. eigenvalues --    0.55401   0.58597   0.65764   0.73001   0.77681
 Alpha virt. eigenvalues --    0.80017   0.82225   0.82350   0.84013   0.89203

 Mulliken charges:
               1
     1  O   -0.323941
     2  H    0.149514
     3  H    0.181193
     4  O   -0.319436
     5  H    0.084416
     6  H    0.228253
 Sum of Mulliken charges =  -0.00000

 Dipole moment (field-independent basis, Debye):
    X=             -1.0126    Y=             -0.7169    Z=              0.0000  Tot=              1.2406
 Quadrupole moment (field-independent basis, Debye-Ang):
   XX=             -9.1122   YY=             -9.3947   ZZ=            -14.6759
   XY=             -0.5478   XZ=              0.0000   YZ=              0.0000

 Normal termination of Gaussian 16 at Fri Aug 26 11:52:08 2022.
