 Gaussian 16, Revision A.03,
 Gaussian 16:  ES64L-G16RevA.03 25-Dec-2016

 ------------------
 #p CCSD(T)/cc-pVTZ
 ------------------

 ------------
 H2O_H2O_4365
 ------------
 Symbolic Z-matrix:
 Charge =  0 Multiplicity = 1

                         Standard orientation:
 ---------------------------------------------------------------------
 Center     Atomic      Atomic             Coordinates (Angstroms)
 Number     Number       Type             X           Y           Z
 ---------------------------------------------------------------------
      1          8           0        0.047521   -3.089584    0.000000
      2          1           0       -0.752799   -3.659666    0.000000
      3          1           0        0.846342   -3.661765    0.000000
      4          8           0        0.047521    3.140225    0.000000
      5          1           0        0.018149    4.122388    0.000000
      6          1           0       -0.872031    2.793917    0.000000
 ---------------------------------------------------------------------

 SCF Done:  E(RHF) =  -152.107199824     A.U. after   10 cycles
 E2 =    -0.5258995567D+00 EUMP2 =    -0.15263309938082D+03
 CCSD(T)
 CCSD(T)= -0.15266032379D+03

 The electronic state is 1-A'.
 Alpha  occ. eigenvalues --  -20.55454 -20.55152  -1.32752  -1.32448  -0.70158
 Alpha  occ. eigenvalues --   -0.69849  -0.56189  -0.55885  -0.49862  -0.49559
 Alpha virt. eigenvalues --    0.14196   0.14515   0.20267   0.20591   0.54405
 Alpha virt. eigenvalues --    0.54728   0.57306   0.57609   0.67997   0.68344
 Alpha virt. eigenvalues --    0.79018   0.79316   0.80453   0.80778   0.82382

 Mulliken charges:
               1
     1  O   -0.507660
     2  H    0.252721
     3  H    0.254939
     4  O   -0.507446
     5  H    0.251856
     6  H    0.255590
 Sum of Mulliken charges =  -0.00000

 Dipole moment (field-independent basis, Debye):
    X=             -1.6328    Y=             -0.8849    Z=              0.0000  Tot=              1.8572
 Quadrupole moment (field-independent basis, Debye-Ang):
   XX=             -9.2245   YY=              8.7144   ZZ=            -14.7116
   XY=             -4.3561   XZ=              0.0000   YZ=              0.0000

 Normal termination of Gaussian 16 at Sat Aug 27 06:54:11 2022.
