 Gaussian 16, Revision A.03,
 Gaussian 16:  ES64L-G16RevA.03 25-Dec-2016

 ------------------
 #p CCSD(T)/cc-pVTZ
 ------------------

 ------------
 H2O_H2O_1149
 ------------
 Symbolic Z-matrix:
 Charge =  0 Multiplicity = 1

                         Standard orientation:
 ---------------------------------------------------------------------
 Center     Atomic      Atomic             Coordinates (Angstroms)
 Number     Number       Type             X           Y           Z
 ---------------------------------------------------------------------
      1          8           0        0.057314   -1.340095    0.000000
      2          1           0       -0.744262   -1.908410    0.000000
      3          1           0        0.854870   -1.914038    0.000000
      4          8           0        0.057314    1.453919    0.000000
      5          1           0       -0.511001    2.255495    0.000000
      6          1           0       -0.516629    0.656362    0.000000
 ---------------------------------------------------------------------

 SCF Done:  E(RHF) =  -152.108553511     A.U. after   10 cycles
 E2 =    -0.5284288747D+00 EUMP2 =    -0.15263698238540D+03
 CCSD(T)
 CCSD(T)= -0.15266397166D+03

 The electronic state is 1-A'.
 Alpha  occ. eigenvalues --  -20.57008 -20.52525  -1.34463  -1.29945  -0.71816
 Alpha  occ. eigenvalues --   -0.68001  -0.57437  -0.53464  -0.51545  -0.47061
 Alpha virt. eigenvalues --    0.12844   0.17801   0.19369   0.26811   0.50921
 Alpha virt. eigenvalues --    0.56026   0.57895   0.59834   0.70174   0.73927
 Alpha virt. eigenvalues --    0.74092   0.79096   0.82406   0.83655   0.85381

 Mulliken charges:
               1
     1  O   -0.484406
     2  H    0.244393
     3  H    0.260174
     4  O   -0.523652
     5  H    0.232396
     6  H    0.271095
 Sum of Mulliken charges =  -0.00000

 Dipole moment (field-independent basis, Debye):
    X=             -1.8486    Y=             -2.3415    Z=              0.0000  Tot=              2.9833
 Quadrupole moment (field-independent basis, Debye-Ang):
   XX=             -9.8560   YY=             -4.7762   ZZ=            -14.7266
   XY=             -3.0870   XZ=              0.0000   YZ=              0.0000

 Normal termination of Gaussian 16 at Sat Aug 27 02:30:42 2022.
