 Gaussian 16, Revision A.03,
 Gaussian 16:  ES64L-G16RevA.03 25-Dec-2016

 ------------------
 #p CCSD(T)/cc-pVTZ
 ------------------

 ------------
 H2O_H2O_3202
 ------------
 Symbolic Z-matrix:
 Charge =  0 Multiplicity = 1

                         Standard orientation:
 ---------------------------------------------------------------------
 Center     Atomic      Atomic             Coordinates (Angstroms)
 Number     Number       Type             X           Y           Z
 ---------------------------------------------------------------------
      1          8           0        0.007455   -2.504946    0.000000
      2          1           0       -0.792262   -3.075874    0.000000
      3          1           0        0.806880   -3.076283    0.000000
      4          8           0        0.007455    2.505920    0.000000
      5          1           0        0.725810    3.176347    0.000000
      6          1           0       -0.859706    2.968023    0.000000
 ---------------------------------------------------------------------

 SCF Done:  E(RHF) =  -152.106176077     A.U. after   10 cycles
 E2 =    -0.5260204789D+00 EUMP2 =    -0.15263219655548D+03
 CCSD(T)
 CCSD(T)= -0.15265944079D+03

 The electronic state is 1-A'.
 Alpha  occ. eigenvalues --  -20.54932 -20.54923  -1.32225  -1.32216  -0.69635
 Alpha  occ. eigenvalues --   -0.69625  -0.55622  -0.55593  -0.49327  -0.49318
 Alpha virt. eigenvalues --    0.14447   0.14843   0.20594   0.20723   0.54843
 Alpha virt. eigenvalues --    0.55044   0.57725   0.57787   0.67540   0.69805
 Alpha virt. eigenvalues --    0.79533   0.79572   0.80964   0.81056   0.82713

 Mulliken charges:
               1
     1  O   -0.501618
     2  H    0.250486
     3  H    0.251133
     4  O   -0.501600
     5  H    0.250381
     6  H    0.251218
 Sum of Mulliken charges =  -0.00000

 Dipole moment (field-independent basis, Debye):
    X=             -0.2547    Y=             -0.0172    Z=              0.0000  Tot=              0.2553
 Quadrupole moment (field-independent basis, Debye-Ang):
   XX=             -7.8491   YY=              7.9275   ZZ=            -14.7099
   XY=             -0.4125   XZ=              0.0000   YZ=              0.0000

 Normal termination of Gaussian 16 at Fri Aug 26 20:20:04 2022.
