 Gaussian 16, Revision A.03,
 Gaussian 16:  ES64L-G16RevA.03 25-Dec-2016

 ------------------
 #p CCSD(T)/cc-pVTZ
 ------------------

 ------------
 H2O_H2O_4063
 ------------
 Symbolic Z-matrix:
 Charge =  0 Multiplicity = 1

                         Standard orientation:
 ---------------------------------------------------------------------
 Center     Atomic      Atomic             Coordinates (Angstroms)
 Number     Number       Type             X           Y           Z
 ---------------------------------------------------------------------
      1          8           0        0.042964   -2.936462    0.000000
      2          1           0       -0.757320   -3.506593    0.000000
      3          1           0        0.841820   -3.508593    0.000000
      4          8           0        0.042964    2.975266    0.000000
      5          1           0        0.141981    3.952866    0.000000
      6          1           0       -0.913910    2.751886    0.000000
 ---------------------------------------------------------------------

 SCF Done:  E(RHF) =  -152.107036938     A.U. after   10 cycles
 E2 =    -0.5259189649D+00 EUMP2 =    -0.15263295590311D+03
 CCSD(T)
 CCSD(T)= -0.15266018347D+03

 The electronic state is 1-A'.
 Alpha  occ. eigenvalues --  -20.55361 -20.55103  -1.32658  -1.32398  -0.70065
 Alpha  occ. eigenvalues --   -0.69800  -0.56088  -0.55828  -0.49766  -0.49508
 Alpha virt. eigenvalues --    0.14261   0.14563   0.20335   0.20619   0.54498
 Alpha virt. eigenvalues --    0.54780   0.57386   0.57647   0.68065   0.68460
 Alpha virt. eigenvalues --    0.79113   0.79367   0.80551   0.80829   0.82487

 Mulliken charges:
               1
     1  O   -0.506703
     2  H    0.252178
     3  H    0.254525
     4  O   -0.506479
     5  H    0.251372
     6  H    0.255105
 Sum of Mulliken charges =  -0.00000

 Dipole moment (field-independent basis, Debye):
    X=             -1.4748    Y=             -0.6793    Z=              0.0000  Tot=              1.6237
 Quadrupole moment (field-independent basis, Debye-Ang):
   XX=             -8.9652   YY=              8.7042   ZZ=            -14.7113
   XY=             -3.5451   XZ=              0.0000   YZ=              0.0000

 Normal termination of Gaussian 16 at Sat Aug 27 05:10:42 2022.
