 Gaussian 16, Revision A.03,
 Gaussian 16:  ES64L-G16RevA.03 25-Dec-2016

 ------------------
 #p CCSD(T)/cc-pVTZ
 ------------------

 ------------
 H2O_H2O_3260
 ------------
 Symbolic Z-matrix:
 Charge =  0 Multiplicity = 1

                         Standard orientation:
 ---------------------------------------------------------------------
 Center     Atomic      Atomic             Coordinates (Angstroms)
 Number     Number       Type             X           Y           Z
 ---------------------------------------------------------------------
      1          8           0        0.034782   -2.519292    0.000000
      2          1           0       -0.765464   -3.089478    0.000000
      3          1           0        0.833677   -3.091369    0.000000
      4          8           0        0.034782    2.542814    0.000000
      5          1           0        0.322553    3.482332    0.000000
      6          1           0       -0.947283    2.510337    0.000000
 ---------------------------------------------------------------------

 SCF Done:  E(RHF) =  -152.106551068     A.U. after   10 cycles
 E2 =    -0.5259891893D+00 EUMP2 =    -0.15263254025737D+03
 CCSD(T)
 CCSD(T)= -0.15265977632D+03

 The electronic state is 1-A'.
 Alpha  occ. eigenvalues --  -20.55134 -20.54920  -1.32429  -1.32212  -0.69838
 Alpha  occ. eigenvalues --   -0.69615  -0.55835  -0.55620  -0.49534  -0.49319
 Alpha virt. eigenvalues --    0.14280   0.14856   0.20452   0.20781   0.54667
 Alpha virt. eigenvalues --    0.54997   0.57569   0.57794   0.67549   0.69585
 Alpha virt. eigenvalues --    0.79342   0.79555   0.80762   0.81051   0.82741

 Mulliken charges:
               1
     1  O   -0.503844
     2  H    0.250452
     3  H    0.253406
     4  O   -0.503527
     5  H    0.249640
     6  H    0.253873
 Sum of Mulliken charges =   0.00000

 Dipole moment (field-independent basis, Debye):
    X=             -1.1892    Y=             -0.4149    Z=              0.0000  Tot=              1.2595
 Quadrupole moment (field-independent basis, Debye-Ang):
   XX=             -8.5696   YY=              6.8363   ZZ=            -14.7106
   XY=             -2.2013   XZ=              0.0000   YZ=              0.0000

 Normal termination of Gaussian 16 at Fri Aug 26 20:49:00 2022.
