 Gaussian 16, Revision A.03,
 Gaussian 16:  ES64L-G16RevA.03 25-Dec-2016

 ------------------
 #p CCSD(T)/cc-pVTZ
 ------------------

 -----------
 H2O_H2O_649
 -----------
 Symbolic Z-matrix:
 Charge =  0 Multiplicity = 1

                         Standard orientation:
 ---------------------------------------------------------------------
 Center     Atomic      Atomic             Coordinates (Angstroms)
 Number     Number       Type             X           Y           Z
 ---------------------------------------------------------------------
      1          8           0        0.057361   -1.074226    0.000000
      2          1           0       -0.744685   -1.641877    0.000000
      3          1           0        0.854442   -1.648828    0.000000
      4          8           0        0.057361    1.187955    0.000000
      5          1           0       -0.510290    1.990001    0.000000
      6          1           0       -0.517241    0.390874    0.000000
 ---------------------------------------------------------------------

 SCF Done:  E(RHF) =  -152.085653299     A.U. after   11 cycles
 E2 =    -0.5333347518D+00 EUMP2 =    -0.15261898805081D+03
 CCSD(T)
 CCSD(T)= -0.15264549646D+03

 The electronic state is 1-A'.
 Alpha  occ. eigenvalues --  -20.57443 -20.50228  -1.36181  -1.28112  -0.73447
 Alpha  occ. eigenvalues --   -0.69832  -0.54807  -0.52835  -0.51701  -0.45103
 Alpha virt. eigenvalues --    0.12684   0.18691   0.19195   0.27859   0.49318
 Alpha virt. eigenvalues --    0.55032   0.61818   0.65235   0.71503   0.73569
 Alpha virt. eigenvalues --    0.76043   0.81596   0.83486   0.83882   0.86870

 Mulliken charges:
               1
     1  O   -0.420395
     2  H    0.224128
     3  H    0.249401
     4  O   -0.531479
     5  H    0.209208
     6  H    0.269137
 Sum of Mulliken charges =  -0.00000

 Dipole moment (field-independent basis, Debye):
    X=             -1.7414    Y=             -2.6389    Z=              0.0000  Tot=              3.1617
 Quadrupole moment (field-independent basis, Debye-Ang):
   XX=             -9.8357   YY=             -6.3757   ZZ=            -14.6805
   XY=             -2.5788   XZ=              0.0000   YZ=              0.0000

 Normal termination of Gaussian 16 at Fri Aug 26 18:40:30 2022.
