 Gaussian 16, Revision A.03,
 Gaussian 16:  ES64L-G16RevA.03 25-Dec-2016

 ------------------
 #p CCSD(T)/cc-pVTZ
 ------------------

 ------------
 H2O_H2O_1131
 ------------
 Symbolic Z-matrix:
 Charge =  0 Multiplicity = 1

                         Standard orientation:
 ---------------------------------------------------------------------
 Center     Atomic      Atomic             Coordinates (Angstroms)
 Number     Number       Type             X           Y           Z
 ---------------------------------------------------------------------
      1          8           0        0.021862   -1.397224    0.000000
      2          1           0       -0.778475   -1.967282    0.000000
      3          1           0        0.820666   -1.969429    0.000000
      4          8           0        0.021862    1.405860    0.000000
      5          1           0        0.543126    2.238801    0.000000
      6          1           0       -0.935109    1.628820    0.000000
 ---------------------------------------------------------------------

 SCF Done:  E(RHF) =  -152.099735045     A.U. after   11 cycles
 E2 =    -0.5279044101D+00 EUMP2 =    -0.15262763945541D+03
 CCSD(T)
 CCSD(T)= -0.15265493603D+03

 The electronic state is 1-A'.
 Alpha  occ. eigenvalues --  -20.53792 -20.53563  -1.31257  -1.30782  -0.68651
 Alpha  occ. eigenvalues --   -0.68260  -0.55991  -0.52262  -0.48482  -0.47696
 Alpha virt. eigenvalues --    0.14334   0.16978   0.20511   0.22178   0.51707
 Alpha virt. eigenvalues --    0.58445   0.58726   0.60558   0.69262   0.76514
 Alpha virt. eigenvalues --    0.77088   0.78338   0.80034   0.83244   0.86118

 Mulliken charges:
               1
     1  O   -0.470703
     2  H    0.231053
     3  H    0.239441
     4  O   -0.465369
     5  H    0.228332
     6  H    0.237246
 Sum of Mulliken charges =  -0.00000

 Dipole moment (field-independent basis, Debye):
    X=             -0.7048    Y=             -0.1645    Z=              0.0000  Tot=              0.7237
 Quadrupole moment (field-independent basis, Debye-Ang):
   XX=             -8.2148   YY=             -1.4667   ZZ=            -14.7146
   XY=             -0.4643   XZ=              0.0000   YZ=              0.0000

 Normal termination of Gaussian 16 at Sat Aug 27 02:22:09 2022.
