 Gaussian 16, Revision A.03,
 Gaussian 16:  ES64L-G16RevA.03 25-Dec-2016

 ------------------
 #p CCSD(T)/cc-pVTZ
 ------------------

 -----------
 H2O_H2O_806
 -----------
 Symbolic Z-matrix:
 Charge =  0 Multiplicity = 1

                         Standard orientation:
 ---------------------------------------------------------------------
 Center     Atomic      Atomic             Coordinates (Angstroms)
 Number     Number       Type             X           Y           Z
 ---------------------------------------------------------------------
      1          8           0        0.021863   -1.224381    0.000000
      2          1           0       -0.778582   -1.794288    0.000000
      3          1           0        0.820558   -1.796737    0.000000
      4          8           0        0.021863    1.233010    0.000000
      5          1           0        0.543284    2.065851    0.000000
      6          1           0       -0.935067    1.456149    0.000000
 ---------------------------------------------------------------------

 SCF Done:  E(RHF) =  -152.091730690     A.U. after   11 cycles
 E2 =    -0.5294761182D+00 EUMP2 =    -0.15262120680829D+03
 CCSD(T)
 CCSD(T)= -0.15264847773D+03

 The electronic state is 1-A'.
 Alpha  occ. eigenvalues --  -20.53243 -20.52984  -1.31174  -1.30098  -0.68452
 Alpha  occ. eigenvalues --   -0.67704  -0.57116  -0.50010  -0.48468  -0.46856
 Alpha virt. eigenvalues --    0.14432   0.17481   0.20515   0.22542   0.51262
 Alpha virt. eigenvalues --    0.58692   0.58842   0.62738   0.71585   0.76536
 Alpha virt. eigenvalues --    0.76920   0.79874   0.83928   0.86344   0.86360

 Mulliken charges:
               1
     1  O   -0.462353
     2  H    0.225410
     3  H    0.235654
     4  O   -0.451991
     5  H    0.218550
     6  H    0.234730
 Sum of Mulliken charges =  -0.00000

 Dipole moment (field-independent basis, Debye):
    X=             -0.6813    Y=             -0.1678    Z=              0.0000  Tot=              0.7016
 Quadrupole moment (field-independent basis, Debye-Ang):
   XX=             -8.2758   YY=             -3.1203   ZZ=            -14.7261
   XY=             -0.3501   XZ=              0.0000   YZ=              0.0000

 Normal termination of Gaussian 16 at Fri Aug 26 20:11:45 2022.
