 Gaussian 16, Revision A.03,
 Gaussian 16:  ES64L-G16RevA.03 25-Dec-2016

 ------------------
 #p CCSD(T)/cc-pVTZ
 ------------------

 ------------
 H2O_H2O_2974
 ------------
 Symbolic Z-matrix:
 Charge =  0 Multiplicity = 1

                         Standard orientation:
 ---------------------------------------------------------------------
 Center     Atomic      Atomic             Coordinates (Angstroms)
 Number     Number       Type             X           Y           Z
 ---------------------------------------------------------------------
      1          8           0        0.057232   -2.310610    0.000000
      2          1           0       -0.743524   -2.880081    0.000000
      3          1           0        0.855615   -2.883401    0.000000
      4          8           0        0.057232    2.424599    0.000000
      5          1           0       -0.512239    3.225355    0.000000
      6          1           0       -0.515559    1.626216    0.000000
 ---------------------------------------------------------------------

 SCF Done:  E(RHF) =  -152.108267966     A.U. after   10 cycles
 E2 =    -0.5259364036D+00 EUMP2 =    -0.15263420436950D+03
 CCSD(T)
 CCSD(T)= -0.15266139136D+03

 The electronic state is 1-A'.
 Alpha  occ. eigenvalues --  -20.55967 -20.54695  -1.33258  -1.31997  -0.70663
 Alpha  occ. eigenvalues --   -0.69381  -0.56736  -0.55460  -0.50375  -0.49119
 Alpha virt. eigenvalues --    0.13187   0.15398   0.19876   0.21602   0.53877
 Alpha virt. eigenvalues --    0.54865   0.56904   0.58027   0.66677   0.70331
 Alpha virt. eigenvalues --    0.78520   0.79492   0.79733   0.80193   0.82811

 Mulliken charges:
               1
     1  O   -0.511290
     2  H    0.253486
     3  H    0.258726
     4  O   -0.512141
     5  H    0.249872
     6  H    0.261346
 Sum of Mulliken charges =  -0.00000

 Dipole moment (field-independent basis, Debye):
    X=             -1.9535    Y=             -2.0382    Z=              0.0000  Tot=              2.8232
 Quadrupole moment (field-independent basis, Debye-Ang):
   XX=             -9.8622   YY=             -0.6353   ZZ=            -14.7152
   XY=             -4.9307   XZ=              0.0000   YZ=              0.0000

 Normal termination of Gaussian 16 at Fri Aug 26 17:57:44 2022.
