 Gaussian 16, Revision A.03,
 Gaussian 16:  ES64L-G16RevA.03 25-Dec-2016

 ------------------
 #p CCSD(T)/cc-pVTZ
 ------------------

 ------------
 H2O_H2O_1586
 ------------
 Symbolic Z-matrix:
 Charge =  0 Multiplicity = 1

                         Standard orientation:
 ---------------------------------------------------------------------
 Center     Atomic      Atomic             Coordinates (Angstroms)
 Number     Number       Type             X           Y           Z
 ---------------------------------------------------------------------
      1          8           0        0.037685   -1.625925    0.000000
      2          1           0       -0.763013   -2.195476    0.000000
      3          1           0        0.836126   -2.198637    0.000000
      4          8           0        0.037685    1.654123    0.000000
      5          1           0        0.264152    2.610271    0.000000
      6          1           0       -0.940230    1.558262    0.000000
 ---------------------------------------------------------------------

 SCF Done:  E(RHF) =  -152.104597718     A.U. after   10 cycles
 E2 =    -0.5268945434D+00 EUMP2 =    -0.15263149226115D+03
 CCSD(T)
 CCSD(T)= -0.15265872153D+03

 The electronic state is 1-A'.
 Alpha  occ. eigenvalues --  -20.54675 -20.54039  -1.31961  -1.31298  -0.69387
 Alpha  occ. eigenvalues --   -0.68699  -0.55605  -0.54214  -0.49078  -0.48382
 Alpha virt. eigenvalues --    0.13945   0.16442   0.20350   0.22056   0.53197
 Alpha virt. eigenvalues --    0.56346   0.57910   0.58670   0.64267   0.76983
 Alpha virt. eigenvalues --    0.78224   0.78701   0.79270   0.81722   0.85513

 Mulliken charges:
               1
     1  O   -0.484919
     2  H    0.238376
     3  H    0.248002
     4  O   -0.484974
     5  H    0.235382
     6  H    0.248132
 Sum of Mulliken charges =  -0.00000

 Dipole moment (field-independent basis, Debye):
    X=             -1.2465    Y=             -0.5292    Z=              0.0000  Tot=              1.3542
 Quadrupole moment (field-independent basis, Debye-Ang):
   XX=             -8.7414   YY=              0.0914   ZZ=            -14.7121
   XY=             -1.3163   XZ=              0.0000   YZ=              0.0000

 Normal termination of Gaussian 16 at Sat Aug 27 05:37:23 2022.
