 Gaussian 16, Revision A.03,
 Gaussian 16:  ES64L-G16RevA.03 25-Dec-2016

 ------------------
 #p CCSD(T)/cc-pVTZ
 ------------------

 -----------
 H2O_H2O_169
 -----------
 Symbolic Z-matrix:
 Charge =  0 Multiplicity = 1

                         Standard orientation:
 ---------------------------------------------------------------------
 Center     Atomic      Atomic             Coordinates (Angstroms)
 Number     Number       Type             X           Y           Z
 ---------------------------------------------------------------------
      1          8           0        0.054287   -0.841582    0.000000
      2          1           0       -0.748295   -1.408476    0.000000
      3          1           0        0.850825   -1.416936    0.000000
      4          8           0        0.054287    0.918518    0.000000
      5          1           0       -0.224542    1.860730    0.000000
      6          1           0       -0.746572    0.349193    0.000000
 ---------------------------------------------------------------------

 SCF Done:  E(RHF) =  -151.976939262     A.U. after   11 cycles
 E2 =    -0.5450069866D+00 EUMP2 =    -0.15252194624903D+03
 CCSD(T)
 CCSD(T)= -0.15254748426D+03

 The electronic state is 1-A'.
 Alpha  occ. eigenvalues --  -20.54728 -20.49857  -1.38304  -1.26725  -0.75723
 Alpha  occ. eigenvalues --   -0.70953  -0.53591  -0.53511  -0.43942  -0.43681
 Alpha virt. eigenvalues --    0.13408   0.18906   0.19705   0.25187   0.50741
 Alpha virt. eigenvalues --    0.55246   0.61254   0.66732   0.73034   0.76484
 Alpha virt. eigenvalues --    0.79606   0.80594   0.84074   0.84799   0.88547

 Mulliken charges:
               1
     1  O   -0.339659
     2  H    0.167721
     3  H    0.212588
     4  O   -0.429935
     5  H    0.137697
     6  H    0.251588
 Sum of Mulliken charges =  -0.00000

 Dipole moment (field-independent basis, Debye):
    X=             -1.4587    Y=             -1.7880    Z=              0.0000  Tot=              2.3076
 Quadrupole moment (field-independent basis, Debye-Ang):
   XX=             -9.7409   YY=             -7.9861   ZZ=            -14.6066
   XY=             -1.3061   XZ=              0.0000   YZ=              0.0000

 Normal termination of Gaussian 16 at Fri Aug 26 13:34:55 2022.
