 Gaussian 16, Revision A.03,
 Gaussian 16:  ES64L-G16RevA.03 25-Dec-2016

 ------------------
 #p CCSD(T)/cc-pVTZ
 ------------------

 ------------
 H2O_H2O_2156
 ------------
 Symbolic Z-matrix:
 Charge =  0 Multiplicity = 1

                         Standard orientation:
 ---------------------------------------------------------------------
 Center     Atomic      Atomic             Coordinates (Angstroms)
 Number     Number       Type             X           Y           Z
 ---------------------------------------------------------------------
      1          8           0        0.021860   -1.942348    0.000000
      2          1           0       -0.778262   -2.512706    0.000000
      3          1           0        0.820879   -2.514252    0.000000
      4          8           0        0.021860    1.951000    0.000000
      5          1           0        0.542811    2.784137    0.000000
      6          1           0       -0.935195    2.173599    0.000000
 ---------------------------------------------------------------------

 SCF Done:  E(RHF) =  -152.105190585     A.U. after   10 cycles
 E2 =    -0.5263421559D+00 EUMP2 =    -0.15263153274064D+03
 CCSD(T)
 CCSD(T)= -0.15265877553D+03

 The electronic state is 1-A'.
 Alpha  occ. eigenvalues --  -20.54633 -20.54495  -1.31915  -1.31773  -0.69333
 Alpha  occ. eigenvalues --   -0.69185  -0.55391  -0.54935  -0.49019  -0.48867
 Alpha virt. eigenvalues --    0.14104   0.15738   0.20560   0.21237   0.53938
 Alpha virt. eigenvalues --    0.56074   0.57896   0.58195   0.62416   0.75064
 Alpha virt. eigenvalues --    0.79413   0.80318   0.80412   0.81142   0.82458

 Mulliken charges:
               1
     1  O   -0.493755
     2  H    0.245105
     3  H    0.248809
     4  O   -0.493617
     5  H    0.244438
     6  H    0.249021
 Sum of Mulliken charges =  -0.00000

 Dipole moment (field-independent basis, Debye):
    X=             -0.7372    Y=             -0.1576    Z=              0.0000  Tot=              0.7538
 Quadrupole moment (field-independent basis, Debye-Ang):
   XX=             -8.1348   YY=              3.1207   ZZ=            -14.7097
   XY=             -0.8527   XZ=              0.0000   YZ=              0.0000

 Normal termination of Gaussian 16 at Sat Aug 27 08:54:13 2022.
