 Gaussian 16, Revision A.03,
 Gaussian 16:  ES64L-G16RevA.03 25-Dec-2016

 ------------------
 #p CCSD(T)/cc-pVTZ
 ------------------

 -----------
 H2O_H2O_407
 -----------
 Symbolic Z-matrix:
 Charge =  0 Multiplicity = 1

                         Standard orientation:
 ---------------------------------------------------------------------
 Center     Atomic      Atomic             Coordinates (Angstroms)
 Number     Number       Type             X           Y           Z
 ---------------------------------------------------------------------
      1          8           0        0.025273   -1.009993    0.000000
      2          1           0       -0.775519   -1.579412    0.000000
      3          1           0        0.823620   -1.582835    0.000000
      4          8           0        0.025273    1.021665    0.000000
      5          1           0        0.491634    1.886542    0.000000
      6          1           0       -0.944104    1.182331    0.000000
 ---------------------------------------------------------------------

 SCF Done:  E(RHF) =  -152.057480145     A.U. after   11 cycles
 E2 =    -0.5345850783D+00 EUMP2 =    -0.15259206522346D+03
 CCSD(T)
 CCSD(T)= -0.15261893331D+03

 The electronic state is 1-A'.
 Alpha  occ. eigenvalues --  -20.52317 -20.51946  -1.32086  -1.28702  -0.68891
 Alpha  occ. eigenvalues --   -0.66932  -0.60025  -0.49283  -0.45215  -0.44829
 Alpha virt. eigenvalues --    0.14524   0.18183   0.20376   0.23063   0.51765
 Alpha virt. eigenvalues --    0.58429   0.58797   0.64906   0.70114   0.77442
 Alpha virt. eigenvalues --    0.78533   0.82459   0.84018   0.86359   0.87716

 Mulliken charges:
               1
     1  O   -0.440144
     2  H    0.211299
     3  H    0.226610
     4  O   -0.416348
     5  H    0.186973
     6  H    0.231610
 Sum of Mulliken charges =   0.00000

 Dipole moment (field-independent basis, Debye):
    X=             -0.7392    Y=             -0.2428    Z=              0.0000  Tot=              0.7780
 Quadrupole moment (field-independent basis, Debye-Ang):
   XX=             -8.4906   YY=             -5.5421   ZZ=            -14.7406
   XY=             -0.2982   XZ=              0.0000   YZ=              0.0000

 76259\MP4DQ=-152.599436\MP4SDQ=-152.6029409\CCSD=-152.6021714\CCSD(T)=
 Normal termination of Gaussian 16 at Fri Aug 26 16:10:36 2022.
