 Gaussian 16, Revision A.03,
 Gaussian 16:  ES64L-G16RevA.03 25-Dec-2016

 ------------------
 #p CCSD(T)/cc-pVTZ
 ------------------

 ------------
 H2O_H2O_1678
 ------------
 Symbolic Z-matrix:
 Charge =  0 Multiplicity = 1

                         Standard orientation:
 ---------------------------------------------------------------------
 Center     Atomic      Atomic             Coordinates (Angstroms)
 Number     Number       Type             X           Y           Z
 ---------------------------------------------------------------------
      1          8           0        0.011143   -1.693240    0.000000
      2          1           0       -0.788751   -2.263919    0.000000
      3          1           0        0.810390   -2.264824    0.000000
      4          8           0        0.011143    1.695422    0.000000
      5          1           0        0.684333    2.411187    0.000000
      6          1           0       -0.884258    2.100098    0.000000
 ---------------------------------------------------------------------

 SCF Done:  E(RHF) =  -152.103648071     A.U. after   10 cycles
 E2 =    -0.5267887921D+00 EUMP2 =    -0.15263043686347D+03
 CCSD(T)
 CCSD(T)= -0.15265769900D+03

 The electronic state is 1-A'.
 Alpha  occ. eigenvalues --  -20.54232 -20.54187  -1.31536  -1.31443  -0.68958
 Alpha  occ. eigenvalues --   -0.68874  -0.55357  -0.54079  -0.48684  -0.48475
 Alpha virt. eigenvalues --    0.14254   0.16241   0.20584   0.21535   0.52959
 Alpha virt. eigenvalues --    0.57861   0.58087   0.58493   0.61882   0.76096
 Alpha virt. eigenvalues --    0.78761   0.78988   0.80037   0.81560   0.84588

 Mulliken charges:
               1
     1  O   -0.482415
     2  H    0.239911
     3  H    0.242594
     4  O   -0.482339
     5  H    0.239693
     6  H    0.242556
 Sum of Mulliken charges =  -0.00000

 Dipole moment (field-independent basis, Debye):
    X=             -0.3708    Y=             -0.0407    Z=              0.0000  Tot=              0.3731
 Quadrupole moment (field-independent basis, Debye-Ang):
   XX=             -7.9416   YY=              1.2309   ZZ=            -14.7089
   XY=             -0.3193   XZ=              0.0000   YZ=              0.0000

 Normal termination of Gaussian 16 at Sat Aug 27 06:10:30 2022.
