 Gaussian 16, Revision A.03,
 Gaussian 16:  ES64L-G16RevA.03 25-Dec-2016

 ------------------
 #p CCSD(T)/cc-pVTZ
 ------------------

 -----------
 H2O_H2O_801
 -----------
 Symbolic Z-matrix:
 Charge =  0 Multiplicity = 1

                         Standard orientation:
 ---------------------------------------------------------------------
 Center     Atomic      Atomic             Coordinates (Angstroms)
 Number     Number       Type             X           Y           Z
 ---------------------------------------------------------------------
      1          8           0        0.003735   -1.228936    0.000000
      2          1           0       -0.795985   -1.799859    0.000000
      3          1           0        0.803157   -1.800277    0.000000
      4          8           0        0.003735    1.229179    0.000000
      5          1           0        0.764404    1.851184    0.000000
      6          1           0       -0.831342    1.747012    0.000000
 ---------------------------------------------------------------------

 SCF Done:  E(RHF) =  -152.090541254     A.U. after   10 cycles
 E2 =    -0.5294737486D+00 EUMP2 =    -0.15262001500239D+03
 CCSD(T)
 CCSD(T)= -0.15264730744D+03

 The electronic state is 1-A'.
 Alpha  occ. eigenvalues --  -20.52971 -20.52964  -1.31011  -1.30018  -0.68266
 Alpha  occ. eigenvalues --   -0.67608  -0.57210  -0.49642  -0.48314  -0.46751
 Alpha virt. eigenvalues --    0.14520   0.17582   0.20578   0.22366   0.50312
 Alpha virt. eigenvalues --    0.58863   0.58926   0.63467   0.73201   0.76694
 Alpha virt. eigenvalues --    0.77176   0.79613   0.84067   0.85588   0.86536

 Mulliken charges:
               1
     1  O   -0.457827
     2  H    0.227987
     3  H    0.229782
     4  O   -0.457452
     5  H    0.227534
     6  H    0.229977
 Sum of Mulliken charges =  -0.00000

 Dipole moment (field-independent basis, Debye):
    X=             -0.1165    Y=             -0.0047    Z=              0.0000  Tot=              0.1166
 Quadrupole moment (field-independent basis, Debye-Ang):
   XX=             -8.0012   YY=             -3.0667   ZZ=            -14.7272
   XY=             -0.0509   XZ=              0.0000   YZ=              0.0000

 Normal termination of Gaussian 16 at Fri Aug 26 20:09:25 2022.
