 Gaussian 16, Revision A.03,
 Gaussian 16:  ES64L-G16RevA.03 25-Dec-2016

 ------------------
 #p CCSD(T)/cc-pVTZ
 ------------------

 ------------
 H2O_H2O_1171
 ------------
 Symbolic Z-matrix:
 Charge =  0 Multiplicity = 1

                         Standard orientation:
 ---------------------------------------------------------------------
 Center     Atomic      Atomic             Coordinates (Angstroms)
 Number     Number       Type             X           Y           Z
 ---------------------------------------------------------------------
      1          8           0        0.056173   -1.365482    0.000000
      2          1           0       -0.745345   -1.933879    0.000000
      3          1           0        0.853787   -1.939343    0.000000
      4          8           0        0.056173    1.457041    0.000000
      5          1           0       -0.344934    2.354047    0.000000
      6          1           0       -0.662269    0.786706    0.000000
 ---------------------------------------------------------------------

 SCF Done:  E(RHF) =  -152.106866225     A.U. after   10 cycles
 E2 =    -0.5280658623D+00 EUMP2 =    -0.15263493208731D+03
 CCSD(T)
 CCSD(T)= -0.15266201438D+03

 The electronic state is 1-A'.
 Alpha  occ. eigenvalues --  -20.56221 -20.52988  -1.33625  -1.30307  -0.71022
 Alpha  occ. eigenvalues --   -0.68019  -0.56730  -0.53783  -0.50727  -0.47417
 Alpha virt. eigenvalues --    0.13197   0.17485   0.19662   0.25026   0.52250
 Alpha virt. eigenvalues --    0.56593   0.57268   0.59270   0.69944   0.74839
 Alpha virt. eigenvalues --    0.74918   0.79111   0.82371   0.82449   0.84243

 Mulliken charges:
               1
     1  O   -0.483906
     2  H    0.240429
     3  H    0.257230
     4  O   -0.505656
     5  H    0.230161
     6  H    0.261743
 Sum of Mulliken charges =  -0.00000

 Dipole moment (field-independent basis, Debye):
    X=             -1.8107    Y=             -1.8306    Z=              0.0000  Tot=              2.5749
 Quadrupole moment (field-independent basis, Debye-Ang):
   XX=             -9.7946   YY=             -3.6919   ZZ=            -14.7260
   XY=             -2.6627   XZ=              0.0000   YZ=              0.0000

 Normal termination of Gaussian 16 at Sat Aug 27 02:42:32 2022.
