 Gaussian 16, Revision A.03,
 Gaussian 16:  ES64L-G16RevA.03 25-Dec-2016

 ------------------
 #p CCSD(T)/cc-pVTZ
 ------------------

 ------------
 H2O_H2O_3979
 ------------
 Symbolic Z-matrix:
 Charge =  0 Multiplicity = 1

                         Standard orientation:
 ---------------------------------------------------------------------
 Center     Atomic      Atomic             Coordinates (Angstroms)
 Number     Number       Type             X           Y           Z
 ---------------------------------------------------------------------
      1          8           0        0.014783   -2.915542    0.000000
      2          1           0       -0.785037   -3.486325    0.000000
      3          1           0        0.814105   -3.487022    0.000000
      4          8           0        0.014783    2.919421    0.000000
      5          1           0        0.639621    3.677764    0.000000
      6          1           0       -0.905214    3.264549    0.000000
 ---------------------------------------------------------------------

 SCF Done:  E(RHF) =  -152.106671959     A.U. after   10 cycles
 E2 =    -0.5259504150D+00 EUMP2 =    -0.15263262237406D+03
 CCSD(T)
 CCSD(T)= -0.15265985776D+03

 The electronic state is 1-A'.
 Alpha  occ. eigenvalues --  -20.55133 -20.55107  -1.32428  -1.32401  -0.69836
 Alpha  occ. eigenvalues --   -0.69808  -0.55841  -0.55815  -0.49534  -0.49508
 Alpha virt. eigenvalues --    0.14452   0.14541   0.20511   0.20556   0.54729
 Alpha virt. eigenvalues --    0.54769   0.57586   0.57618   0.68294   0.68547
 Alpha virt. eigenvalues --    0.79344   0.79370   0.80790   0.80821   0.82722

 Mulliken charges:
               1
     1  O   -0.504529
     2  H    0.251845
     3  H    0.252685
     4  O   -0.504495
     5  H    0.251668
     6  H    0.252828
 Sum of Mulliken charges =  -0.00000

 Dipole moment (field-independent basis, Debye):
    X=             -0.5072    Y=             -0.0679    Z=              0.0000  Tot=              0.5117
 Quadrupole moment (field-independent basis, Debye-Ang):
   XX=             -7.9432   YY=             11.0378   ZZ=            -14.7105
   XY=             -1.0377   XZ=              0.0000   YZ=              0.0000

 Normal termination of Gaussian 16 at Sat Aug 27 04:42:06 2022.
