 Gaussian 16, Revision A.03,
 Gaussian 16:  ES64L-G16RevA.03 25-Dec-2016

 ------------------
 #p CCSD(T)/cc-pVTZ
 ------------------

 ------------
 H2O_H2O_3119
 ------------
 Symbolic Z-matrix:
 Charge =  0 Multiplicity = 1

                         Standard orientation:
 ---------------------------------------------------------------------
 Center     Atomic      Atomic             Coordinates (Angstroms)
 Number     Number       Type             X           Y           Z
 ---------------------------------------------------------------------
      1          8           0        0.054156   -2.410308    0.000000
      2          1           0       -0.746499   -2.979919    0.000000
      3          1           0        0.852640   -2.982959    0.000000
      4          8           0        0.054156    2.487612    0.000000
      5          1           0       -0.227864    3.428872    0.000000
      6          1           0       -0.744769    1.915576    0.000000
 ---------------------------------------------------------------------

 SCF Done:  E(RHF) =  -152.107441399     A.U. after   10 cycles
 E2 =    -0.5259478245D+00 EUMP2 =    -0.15263338922390D+03
 CCSD(T)
 CCSD(T)= -0.15266060155D+03

 The electronic state is 1-A'.
 Alpha  occ. eigenvalues --  -20.55598 -20.54813  -1.32893  -1.32108  -0.70300
 Alpha  occ. eigenvalues --   -0.69497  -0.56338  -0.55550  -0.50004  -0.49223
 Alpha virt. eigenvalues --    0.13673   0.15139   0.20103   0.21150   0.54169
 Alpha virt. eigenvalues --    0.54931   0.57193   0.57874   0.66922   0.70101
 Alpha virt. eigenvalues --    0.78881   0.79640   0.80093   0.80750   0.82788

 Mulliken charges:
               1
     1  O   -0.508499
     2  H    0.251910
     3  H    0.256842
     4  O   -0.508239
     5  H    0.249511
     6  H    0.258475
 Sum of Mulliken charges =  -0.00000

 Dipole moment (field-independent basis, Debye):
    X=             -1.8504    Y=             -1.3728    Z=              0.0000  Tot=              2.3040
 Quadrupole moment (field-independent basis, Debye-Ang):
   XX=             -9.6477   YY=              2.6576   ZZ=            -14.7128
   XY=             -4.1929   XZ=              0.0000   YZ=              0.0000

 Normal termination of Gaussian 16 at Fri Aug 26 19:35:31 2022.
