 Gaussian 16, Revision A.03,
 Gaussian 16:  ES64L-G16RevA.03 25-Dec-2016

 ------------------
 #p CCSD(T)/cc-pVTZ
 ------------------

 ------------
 H2O_H2O_4818
 ------------
 Symbolic Z-matrix:
 Charge =  0 Multiplicity = 1

                         Standard orientation:
 ---------------------------------------------------------------------
 Center     Atomic      Atomic             Coordinates (Angstroms)
 Number     Number       Type             X           Y           Z
 ---------------------------------------------------------------------
      1          8           0        0.052813   -3.318196    0.000000
      2          1           0       -0.747531   -3.888245    0.000000
      3          1           0        0.851610   -3.890411    0.000000
      4          8           0        0.052813    3.388567    0.000000
      5          1           0       -0.167564    4.346136    0.000000
      6          1           0       -0.781530    2.869552    0.000000
 ---------------------------------------------------------------------

 SCF Done:  E(RHF) =  -152.107386544     A.U. after   10 cycles
 E2 =    -0.5258774393D+00 EUMP2 =    -0.15263326398327D+03
 CCSD(T)
 CCSD(T)= -0.15266048477D+03

 The electronic state is 1-A'.
 Alpha  occ. eigenvalues --  -20.55573 -20.55213  -1.32872  -1.32511  -0.70278
 Alpha  occ. eigenvalues --   -0.69912  -0.56318  -0.55956  -0.49983  -0.49624
 Alpha virt. eigenvalues --    0.14101   0.14462   0.20175   0.20555   0.54284
 Alpha virt. eigenvalues --    0.54661   0.57201   0.57561   0.67871   0.68244
 Alpha virt. eigenvalues --    0.78897   0.79251   0.80328   0.80711   0.82252

 Mulliken charges:
               1
     1  O   -0.508756
     2  H    0.253402
     3  H    0.255354
     4  O   -0.508554
     5  H    0.252481
     6  H    0.256073
 Sum of Mulliken charges =   0.00000

 Dipole moment (field-independent basis, Debye):
    X=             -1.8166    Y=             -1.2271    Z=              0.0000  Tot=              2.1922
 Quadrupole moment (field-independent basis, Debye-Ang):
   XX=             -9.5596   YY=              8.1872   ZZ=            -14.7119
   XY=             -5.6001   XZ=              0.0000   YZ=              0.0000

 Normal termination of Gaussian 16 at Sat Aug 27 09:30:26 2022.
