 Gaussian 16, Revision A.03,
 Gaussian 16:  ES64L-G16RevA.03 25-Dec-2016

 ------------------
 #p CCSD(T)/cc-pVTZ
 ------------------

 ------------
 H2O_H2O_1513
 ------------
 Symbolic Z-matrix:
 Charge =  0 Multiplicity = 1

                         Standard orientation:
 ---------------------------------------------------------------------
 Center     Atomic      Atomic             Coordinates (Angstroms)
 Number     Number       Type             X           Y           Z
 ---------------------------------------------------------------------
      1          8           0        0.042985   -1.580326    0.000000
      2          1           0       -0.757904   -2.149609    0.000000
      3          1           0        0.841234   -2.153304    0.000000
      4          8           0        0.042985    1.619039    0.000000
      5          1           0        0.143038    2.596534    0.000000
      6          1           0       -0.914126    1.396674    0.000000
 ---------------------------------------------------------------------

 SCF Done:  E(RHF) =  -152.104920957     A.U. after   10 cycles
 E2 =    -0.5270032092D+00 EUMP2 =    -0.15263192416585D+03
 CCSD(T)
 CCSD(T)= -0.15265913916D+03

 The electronic state is 1-A'.
 Alpha  occ. eigenvalues --  -20.54860 -20.53928  -1.32151  -1.31183  -0.69576
 Alpha  occ. eigenvalues --   -0.68581  -0.55747  -0.54179  -0.49268  -0.48274
 Alpha virt. eigenvalues --    0.13844   0.16573   0.20245   0.22393   0.53624
 Alpha virt. eigenvalues --    0.56115   0.57768   0.58633   0.65054   0.76605
 Alpha virt. eigenvalues --    0.77850   0.78265   0.79136   0.81893   0.85360

 Mulliken charges:
               1
     1  O   -0.484894
     2  H    0.238002
     3  H    0.249299
     4  O   -0.486005
     5  H    0.233777
     6  H    0.249821
 Sum of Mulliken charges =  -0.00000

 Dipole moment (field-independent basis, Debye):
    X=             -1.4157    Y=             -0.7313    Z=              0.0000  Tot=              1.5934
 Quadrupole moment (field-independent basis, Debye-Ang):
   XX=             -9.0062   YY=             -0.5336   ZZ=            -14.7140
   XY=             -1.5855   XZ=              0.0000   YZ=              0.0000

 Normal termination of Gaussian 16 at Sat Aug 27 05:12:33 2022.
