 Gaussian 16, Revision A.03,
 Gaussian 16:  ES64L-G16RevA.03 25-Dec-2016

 ------------------
 #p CCSD(T)/cc-pVTZ
 ------------------

 ------------
 H2O_H2O_4792
 ------------
 Symbolic Z-matrix:
 Charge =  0 Multiplicity = 1

                         Standard orientation:
 ---------------------------------------------------------------------
 Center     Atomic      Atomic             Coordinates (Angstroms)
 Number     Number       Type             X           Y           Z
 ---------------------------------------------------------------------
      1          8           0        0.051265   -3.308593    0.000000
      2          1           0       -0.749059   -3.878669    0.000000
      3          1           0        0.850082   -3.880780    0.000000
      4          8           0        0.051265    3.372163    0.000000
      5          1           0       -0.106046    4.342091    0.000000
      6          1           0       -0.815221    2.908799    0.000000
 ---------------------------------------------------------------------

 SCF Done:  E(RHF) =  -152.107339808     A.U. after   10 cycles
 E2 =    -0.5258818430D+00 EUMP2 =    -0.15263322165075D+03
 CCSD(T)
 CCSD(T)= -0.15266044342D+03

 The electronic state is 1-A'.
 Alpha  occ. eigenvalues --  -20.55540 -20.55213  -1.32839  -1.32510  -0.70245
 Alpha  occ. eigenvalues --   -0.69912  -0.56283  -0.55953  -0.49950  -0.49622
 Alpha virt. eigenvalues --    0.14130   0.14459   0.20201   0.20547   0.54317
 Alpha virt. eigenvalues --    0.54662   0.57230   0.57558   0.67910   0.68249
 Alpha virt. eigenvalues --    0.78930   0.79253   0.80362   0.80712   0.82287

 Mulliken charges:
               1
     1  O   -0.508479
     2  H    0.253274
     3  H    0.255205
     4  O   -0.508290
     5  H    0.252418
     6  H    0.255872
 Sum of Mulliken charges =  -0.00000

 Dipole moment (field-independent basis, Debye):
    X=             -1.7633    Y=             -1.1086    Z=              0.0000  Tot=              2.0828
 Quadrupole moment (field-independent basis, Debye-Ang):
   XX=             -9.4579   YY=              8.8193   ZZ=            -14.7118
   XY=             -5.3032   XZ=              0.0000   YZ=              0.0000

 Normal termination of Gaussian 16 at Sat Aug 27 09:21:44 2022.
