 Gaussian 16, Revision A.03,
 Gaussian 16:  ES64L-G16RevA.03 25-Dec-2016

 ------------------
 #p CCSD(T)/cc-pVTZ
 ------------------

 ------------
 H2O_H2O_2731
 ------------
 Symbolic Z-matrix:
 Charge =  0 Multiplicity = 1

                         Standard orientation:
 ---------------------------------------------------------------------
 Center     Atomic      Atomic             Coordinates (Angstroms)
 Number     Number       Type             X           Y           Z
 ---------------------------------------------------------------------
      1          8           0        0.021860   -2.248150    0.000000
      2          1           0       -0.778188   -2.818614    0.000000
      3          1           0        0.820954   -2.819950    0.000000
      4          8           0        0.021860    2.256808    0.000000
      5          1           0        0.542701    3.090014    0.000000
      6          1           0       -0.935225    2.479283    0.000000
 ---------------------------------------------------------------------

 SCF Done:  E(RHF) =  -152.105897552     A.U. after   10 cycles
 E2 =    -0.5260963407D+00 EUMP2 =    -0.15263199389275D+03
 CCSD(T)
 CCSD(T)= -0.15265923932D+03

 The electronic state is 1-A'.
 Alpha  occ. eigenvalues --  -20.54857 -20.54757  -1.32147  -1.32046  -0.69560
 Alpha  occ. eigenvalues --   -0.69454  -0.55539  -0.55395  -0.49249  -0.49148
 Alpha virt. eigenvalues --    0.14263   0.15193   0.20568   0.20919   0.54674
 Alpha virt. eigenvalues --    0.55366   0.57765   0.57938   0.65689   0.71908
 Alpha virt. eigenvalues --    0.79566   0.79782   0.81039   0.81201   0.82355

 Mulliken charges:
               1
     1  O   -0.499837
     2  H    0.248660
     3  H    0.251204
     4  O   -0.499603
     5  H    0.248163
     6  H    0.251414
 Sum of Mulliken charges =  -0.00000

 Dipole moment (field-independent basis, Debye):
    X=             -0.7439    Y=             -0.1541    Z=              0.0000  Tot=              0.7597
 Quadrupole moment (field-independent basis, Debye-Ang):
   XX=             -8.1199   YY=              5.5338   ZZ=            -14.7099
   XY=             -1.0763   XZ=              0.0000   YZ=              0.0000

 Normal termination of Gaussian 16 at Fri Aug 26 15:33:38 2022.
