 Gaussian 16, Revision A.03,
 Gaussian 16:  ES64L-G16RevA.03 25-Dec-2016

 ------------------
 #p CCSD(T)/cc-pVTZ
 ------------------

 -----------
 H2O_H2O_259
 -----------
 Symbolic Z-matrix:
 Charge =  0 Multiplicity = 1

                         Standard orientation:
 ---------------------------------------------------------------------
 Center     Atomic      Atomic             Coordinates (Angstroms)
 Number     Number       Type             X           Y           Z
 ---------------------------------------------------------------------
      1          8           0        0.031758   -0.926201    0.000000
      2          1           0       -0.769476   -1.494996    0.000000
      3          1           0        0.829659   -1.499664    0.000000
      4          8           0        0.031758    0.945266    0.000000
      5          1           0        0.381955    1.863345    0.000000
      6          1           0       -0.950271    0.978793    0.000000
 ---------------------------------------------------------------------

 SCF Done:  E(RHF) =  -152.026933209     A.U. after   11 cycles
 E2 =    -0.5386761014D+00 EUMP2 =    -0.15256560931060D+03
 CCSD(T)
 CCSD(T)= -0.15259200906D+03

 The electronic state is 1-A'.
 Alpha  occ. eigenvalues --  -20.52184 -20.51577  -1.33451  -1.27974  -0.69998
 Alpha  occ. eigenvalues --   -0.67329  -0.60785  -0.50347  -0.44461  -0.42086
 Alpha virt. eigenvalues --    0.14412   0.18503   0.20145   0.23379   0.52872
 Alpha virt. eigenvalues --    0.57311   0.58691   0.64959   0.70846   0.77799
 Alpha virt. eigenvalues --    0.79318   0.82605   0.83642   0.85759   0.88328

 Mulliken charges:
               1
     1  O   -0.419312
     2  H    0.199027
     3  H    0.218111
     4  O   -0.388798
     5  H    0.161265
     6  H    0.229707
 Sum of Mulliken charges =  -0.00000

 Dipole moment (field-independent basis, Debye):
    X=             -0.8998    Y=             -0.4150    Z=              0.0000  Tot=              0.9909
 Quadrupole moment (field-independent basis, Debye-Ang):
   XX=             -8.7506   YY=             -6.6792   ZZ=            -14.7279
   XY=             -0.3958   XZ=              0.0000   YZ=              0.0000

 Normal termination of Gaussian 16 at Fri Aug 26 14:37:18 2022.
