 Gaussian 16, Revision A.03,
 Gaussian 16:  ES64L-G16RevA.03 25-Dec-2016

 ------------------
 #p CCSD(T)/cc-pVTZ
 ------------------

 ------------
 H2O_H2O_1923
 ------------
 Symbolic Z-matrix:
 Charge =  0 Multiplicity = 1

                         Standard orientation:
 ---------------------------------------------------------------------
 Center     Atomic      Atomic             Coordinates (Angstroms)
 Number     Number       Type             X           Y           Z
 ---------------------------------------------------------------------
      1          8           0        0.057135   -1.756277    0.000000
      2          1           0       -0.743981   -2.325239    0.000000
      3          1           0        0.855155   -2.329574    0.000000
      4          8           0        0.057135    1.862723    0.000000
      5          1           0       -0.458213    2.699336    0.000000
      6          1           0       -0.567128    1.103907    0.000000
 ---------------------------------------------------------------------

 SCF Done:  E(RHF) =  -152.109215643     A.U. after   10 cycles
 E2 =    -0.5264288438D+00 EUMP2 =    -0.15263564448639D+03
 CCSD(T)
 CCSD(T)= -0.15266277430D+03

 The electronic state is 1-A'.
 Alpha  occ. eigenvalues --  -20.56258 -20.53973  -1.33523  -1.31277  -0.70927
 Alpha  occ. eigenvalues --   -0.68648  -0.57007  -0.54755  -0.50647  -0.48411
 Alpha virt. eigenvalues --    0.12950   0.16515   0.19715   0.24057   0.53260
 Alpha virt. eigenvalues --    0.55609   0.56595   0.58266   0.66733   0.74419
 Alpha virt. eigenvalues --    0.77651   0.78479   0.79368   0.80697   0.84280

 Mulliken charges:
               1
     1  O   -0.500777
     2  H    0.248709
     3  H    0.258609
     4  O   -0.514743
     5  H    0.243967
     6  H    0.264235
 Sum of Mulliken charges =  -0.00000

 Dipole moment (field-independent basis, Debye):
    X=             -1.9151    Y=             -2.0016    Z=              0.0000  Tot=              2.7702
 Quadrupole moment (field-independent basis, Debye-Ang):
   XX=             -9.8517   YY=             -2.4275   ZZ=            -14.7202
   XY=             -3.7193   XZ=              0.0000   YZ=              0.0000

 Normal termination of Gaussian 16 at Sat Aug 27 07:34:15 2022.
