 Gaussian 16, Revision A.03,
 Gaussian 16:  ES64L-G16RevA.03 25-Dec-2016

 ------------------
 #p CCSD(T)/cc-pVTZ
 ------------------

 ------------
 H2O_H2O_2510
 ------------
 Symbolic Z-matrix:
 Charge =  0 Multiplicity = 1

                         Standard orientation:
 ---------------------------------------------------------------------
 Center     Atomic      Atomic             Coordinates (Angstroms)
 Number     Number       Type             X           Y           Z
 ---------------------------------------------------------------------
      1          8           0        0.034785   -2.120423    0.000000
      2          1           0       -0.765587   -2.690432    0.000000
      3          1           0        0.833553   -2.692676    0.000000
      4          8           0        0.034785    2.143930    0.000000
      5          1           0        0.322764    3.083383    0.000000
      6          1           0       -0.947287    2.111669    0.000000
 ---------------------------------------------------------------------

 SCF Done:  E(RHF) =  -152.106035898     A.U. after   10 cycles
 E2 =    -0.5261447139D+00 EUMP2 =    -0.15263218061232D+03
 CCSD(T)
 CCSD(T)= -0.15265941658D+03

 The electronic state is 1-A'.
 Alpha  occ. eigenvalues --  -20.54956 -20.54645  -1.32244  -1.31930  -0.69657
 Alpha  occ. eigenvalues --   -0.69331  -0.55635  -0.55286  -0.49347  -0.49034
 Alpha virt. eigenvalues --    0.14002   0.15449   0.20444   0.21143   0.54231
 Alpha virt. eigenvalues --    0.55374   0.57704   0.58026   0.64838   0.73295
 Alpha virt. eigenvalues --    0.79435   0.79925   0.80721   0.81264   0.82581

 Mulliken charges:
               1
     1  O   -0.500023
     2  H    0.247761
     3  H    0.252449
     4  O   -0.499654
     5  H    0.246570
     6  H    0.252897
 Sum of Mulliken charges =   0.00000

 Dipole moment (field-independent basis, Debye):
    X=             -1.1803    Y=             -0.4220    Z=              0.0000  Tot=              1.2535
 Quadrupole moment (field-independent basis, Debye-Ang):
   XX=             -8.5786   YY=              3.9302   ZZ=            -14.7106
   XY=             -1.7342   XZ=              0.0000   YZ=              0.0000

 Normal termination of Gaussian 16 at Fri Aug 26 13:08:54 2022.
