 Gaussian 16, Revision A.03,
 Gaussian 16:  ES64L-G16RevA.03 25-Dec-2016

 ------------------
 #p CCSD(T)/cc-pVTZ
 ------------------

 ------------
 H2O_H2O_4865
 ------------
 Symbolic Z-matrix:
 Charge =  0 Multiplicity = 1

                         Standard orientation:
 ---------------------------------------------------------------------
 Center     Atomic      Atomic             Coordinates (Angstroms)
 Number     Number       Type             X           Y           Z
 ---------------------------------------------------------------------
      1          8           0        0.047519   -3.355498    0.000000
      2          1           0       -0.752742   -3.925662    0.000000
      3          1           0        0.846398   -3.927596    0.000000
      4          8           0        0.047519    3.406148    0.000000
      5          1           0        0.018045    4.388308    0.000000
      6          1           0       -0.871998    3.059745    0.000000
 ---------------------------------------------------------------------

 SCF Done:  E(RHF) =  -152.107261031     A.U. after   10 cycles
 E2 =    -0.5258879969D+00 EUMP2 =    -0.15263314902753D+03
 CCSD(T)
 CCSD(T)= -0.15266037252D+03

 The electronic state is 1-A'.
 Alpha  occ. eigenvalues --  -20.55483 -20.55229  -1.32781  -1.32526  -0.70188
 Alpha  occ. eigenvalues --   -0.69928  -0.56222  -0.55966  -0.49892  -0.49637
 Alpha virt. eigenvalues --    0.14181   0.14436   0.20248   0.20516   0.54376
 Alpha virt. eigenvalues --    0.54645   0.57281   0.57537   0.67979   0.68239
 Alpha virt. eigenvalues --    0.78988   0.79239   0.80422   0.80695   0.82346

 Mulliken charges:
               1
     1  O   -0.508010
     2  H    0.253131
     3  H    0.254878
     4  O   -0.507857
     5  H    0.252441
     6  H    0.255416
 Sum of Mulliken charges =  -0.00000

 Dipole moment (field-independent basis, Debye):
    X=             -1.6345    Y=             -0.8828    Z=              0.0000  Tot=              1.8577
 Quadrupole moment (field-independent basis, Debye-Ang):
   XX=             -9.2243   YY=             10.3671   ZZ=            -14.7116
   XY=             -4.7876   XZ=              0.0000   YZ=              0.0000

 Normal termination of Gaussian 16 at Sat Aug 27 09:46:26 2022.
