 Gaussian 16, Revision A.03,
 Gaussian 16:  ES64L-G16RevA.03 25-Dec-2016

 ------------------
 #p CCSD(T)/cc-pVTZ
 ------------------

 ------------
 H2O_H2O_4046
 ------------
 Symbolic Z-matrix:
 Charge =  0 Multiplicity = 1

                         Standard orientation:
 ---------------------------------------------------------------------
 Center     Atomic      Atomic             Coordinates (Angstroms)
 Number     Number       Type             X           Y           Z
 ---------------------------------------------------------------------
      1          8           0        0.056091   -2.894408    0.000000
      2          1           0       -0.744415   -3.464228    0.000000
      3          1           0        0.854724   -3.466850    0.000000
      4          8           0        0.056091    2.986166    0.000000
      5          1           0       -0.346609    3.882458    0.000000
      6          1           0       -0.661158    2.314555    0.000000
 ---------------------------------------------------------------------

 SCF Done:  E(RHF) =  -152.107565022     A.U. after   10 cycles
 E2 =    -0.5258755414D+00 EUMP2 =    -0.15263344056367D+03
 CCSD(T)
 CCSD(T)= -0.15266065655D+03

 The electronic state is 1-A'.
 Alpha  occ. eigenvalues --  -20.55682 -20.55063  -1.32982  -1.32362  -0.70388
 Alpha  occ. eigenvalues --   -0.69758  -0.56436  -0.55811  -0.50094  -0.49476
 Alpha virt. eigenvalues --    0.13944   0.14666   0.20083   0.20768   0.54167
 Alpha virt. eigenvalues --    0.54810   0.57103   0.57715   0.67614   0.68508
 Alpha virt. eigenvalues --    0.78787   0.79393   0.80211   0.80785   0.82283

 Mulliken charges:
               1
     1  O   -0.509832
     2  H    0.253442
     3  H    0.256402
     4  O   -0.509404
     5  H    0.251725
     6  H    0.257667
 Sum of Mulliken charges =  -0.00000

 Dipole moment (field-independent basis, Debye):
    X=             -1.9259    Y=             -1.6087    Z=              0.0000  Tot=              2.5093
 Quadrupole moment (field-independent basis, Debye-Ang):
   XX=             -9.7838   YY=              3.8935   ZZ=            -14.7125
   XY=             -5.5338   XZ=              0.0000   YZ=              0.0000

 Normal termination of Gaussian 16 at Sat Aug 27 05:05:07 2022.
