 Gaussian 16, Revision A.03,
 Gaussian 16:  ES64L-G16RevA.03 25-Dec-2016

 ------------------
 #p CCSD(T)/cc-pVTZ
 ------------------

 ------------
 H2O_H2O_2158
 ------------
 Symbolic Z-matrix:
 Charge =  0 Multiplicity = 1

                         Standard orientation:
 ---------------------------------------------------------------------
 Center     Atomic      Atomic             Coordinates (Angstroms)
 Number     Number       Type             X           Y           Z
 ---------------------------------------------------------------------
      1          8           0        0.028566   -1.938774    0.000000
      2          1           0       -0.771726   -2.508896    0.000000
      3          1           0        0.827415   -2.510916    0.000000
      4          8           0        0.028566    1.954006    0.000000
      5          1           0        0.436580    2.847891    0.000000
      6          1           0       -0.949328    2.050070    0.000000
 ---------------------------------------------------------------------

 SCF Done:  E(RHF) =  -152.105403071     A.U. after   10 cycles
 E2 =    -0.5263325823D+00 EUMP2 =    -0.15263173565356D+03
 CCSD(T)
 CCSD(T)= -0.15265897279D+03

 The electronic state is 1-A'.
 Alpha  occ. eigenvalues --  -20.54728 -20.54483  -1.32010  -1.31761  -0.69428
 Alpha  occ. eigenvalues --   -0.69168  -0.55453  -0.54978  -0.49112  -0.48859
 Alpha virt. eigenvalues --    0.14017   0.15764   0.20500   0.21303   0.53756
 Alpha virt. eigenvalues --    0.55833   0.57859   0.58195   0.62876   0.75142
 Alpha virt. eigenvalues --    0.79359   0.80178   0.80382   0.81097   0.82671

 Mulliken charges:
               1
     1  O   -0.494720
     2  H    0.245082
     3  H    0.249927
     4  O   -0.494603
     5  H    0.244061
     6  H    0.250253
 Sum of Mulliken charges =  -0.00000

 Dipole moment (field-independent basis, Debye):
    X=             -0.9632    Y=             -0.2775    Z=              0.0000  Tot=              1.0024
 Quadrupole moment (field-independent basis, Debye-Ang):
   XX=             -8.3435   YY=              2.8797   ZZ=            -14.7102
   XY=             -1.1725   XZ=              0.0000   YZ=              0.0000

 Normal termination of Gaussian 16 at Sat Aug 27 08:54:54 2022.
