 Gaussian 16, Revision A.03,
 Gaussian 16:  ES64L-G16RevA.03 25-Dec-2016

 ------------------
 #p CCSD(T)/cc-pVTZ
 ------------------

 ------------
 H2O_H2O_2503
 ------------
 Symbolic Z-matrix:
 Charge =  0 Multiplicity = 1

                         Standard orientation:
 ---------------------------------------------------------------------
 Center     Atomic      Atomic             Coordinates (Angstroms)
 Number     Number       Type             X           Y           Z
 ---------------------------------------------------------------------
      1          8           0        0.011143   -2.132003    0.000000
      2          1           0       -0.788685   -2.702776    0.000000
      3          1           0        0.810457   -2.703495    0.000000
      4          8           0        0.011143    2.134188    0.000000
      5          1           0        0.684250    2.850032    0.000000
      6          1           0       -0.884305    2.538760    0.000000
 ---------------------------------------------------------------------

 SCF Done:  E(RHF) =  -152.105506674     A.U. after   10 cycles
 E2 =    -0.5261750189D+00 EUMP2 =    -0.15263168169245D+03
 CCSD(T)
 CCSD(T)= -0.15265893085D+03

 The electronic state is 1-A'.
 Alpha  occ. eigenvalues --  -20.54701 -20.54673  -1.31989  -1.31960  -0.69404
 Alpha  occ. eigenvalues --   -0.69373  -0.55421  -0.55219  -0.49092  -0.49055
 Alpha virt. eigenvalues --    0.14262   0.15372   0.20622   0.20988   0.54619
 Alpha virt. eigenvalues --    0.55704   0.57845   0.58034   0.64144   0.73288
 Alpha virt. eigenvalues --    0.79605   0.79987   0.81111   0.81319   0.81936

 Mulliken charges:
               1
     1  O   -0.497221
     2  H    0.247870
     3  H    0.249365
     4  O   -0.497144
     5  H    0.247655
     6  H    0.249475
 Sum of Mulliken charges =  -0.00000

 Dipole moment (field-independent basis, Debye):
    X=             -0.3781    Y=             -0.0392    Z=              0.0000  Tot=              0.3801
 Quadrupole moment (field-independent basis, Debye-Ang):
   XX=             -7.9054   YY=              4.8622   ZZ=            -14.7095
   XY=             -0.4815   XZ=              0.0000   YZ=              0.0000

 Normal termination of Gaussian 16 at Fri Aug 26 13:01:27 2022.
