 Gaussian 16, Revision A.03,
 Gaussian 16:  ES64L-G16RevA.03 25-Dec-2016

 ------------------
 #p CCSD(T)/cc-pVTZ
 ------------------

 ------------
 H2O_H2O_1609
 ------------
 Symbolic Z-matrix:
 Charge =  0 Multiplicity = 1

                         Standard orientation:
 ---------------------------------------------------------------------
 Center     Atomic      Atomic             Coordinates (Angstroms)
 Number     Number       Type             X           Y           Z
 ---------------------------------------------------------------------
      1          8           0        0.031746   -1.644138    0.000000
      2          1           0       -0.768767   -2.213948    0.000000
      3          1           0        0.830373   -2.216590    0.000000
      4          8           0        0.031746    1.663284    0.000000
      5          1           0        0.380779    2.581805    0.000000
      6          1           0       -0.950325    1.695567    0.000000
 ---------------------------------------------------------------------

 SCF Done:  E(RHF) =  -152.104203316     A.U. after   10 cycles
 E2 =    -0.5268690337D+00 EUMP2 =    -0.15263107234953D+03
 CCSD(T)
 CCSD(T)= -0.15265831429D+03

 The electronic state is 1-A'.
 Alpha  occ. eigenvalues --  -20.54506 -20.54087  -1.31793  -1.31349  -0.69219
 Alpha  occ. eigenvalues --   -0.68759  -0.55510  -0.54152  -0.48914  -0.48422
 Alpha virt. eigenvalues --    0.14050   0.16380   0.20434   0.21853   0.52946
 Alpha virt. eigenvalues --    0.56768   0.58023   0.58630   0.63754   0.76995
 Alpha virt. eigenvalues --    0.78401   0.78703   0.79593   0.81692   0.85369

 Mulliken charges:
               1
     1  O   -0.483872
     2  H    0.238339
     3  H    0.246428
     4  O   -0.483434
     5  H    0.236291
     6  H    0.246249
 Sum of Mulliken charges =  -0.00000

 Dipole moment (field-independent basis, Debye):
    X=             -1.0520    Y=             -0.3584    Z=              0.0000  Tot=              1.1113
 Quadrupole moment (field-independent basis, Debye-Ang):
   XX=             -8.4879   YY=              0.4582   ZZ=            -14.7108
   XY=             -1.0339   XZ=              0.0000   YZ=              0.0000

 Normal termination of Gaussian 16 at Sat Aug 27 05:45:17 2022.
