 Gaussian 16, Revision A.03,
 Gaussian 16:  ES64L-G16RevA.03 25-Dec-2016

 ------------------
 #p CCSD(T)/cc-pVTZ
 ------------------

 ------------
 H2O_H2O_3636
 ------------
 Symbolic Z-matrix:
 Charge =  0 Multiplicity = 1

                         Standard orientation:
 ---------------------------------------------------------------------
 Center     Atomic      Atomic             Coordinates (Angstroms)
 Number     Number       Type             X           Y           Z
 ---------------------------------------------------------------------
      1          8           0        0.037674   -2.716159    0.000000
      2          1           0       -0.762574   -3.286342    0.000000
      3          1           0        0.836567   -3.288240    0.000000
      4          8           0        0.037674    2.744417    0.000000
      5          1           0        0.263386    3.700742    0.000000
      6          1           0       -0.940165    2.647782    0.000000
 ---------------------------------------------------------------------

 SCF Done:  E(RHF) =  -152.106790629     A.U. after   10 cycles
 E2 =    -0.5259513952D+00 EUMP2 =    -0.15263274202399D+03
 CCSD(T)
 CCSD(T)= -0.15265997417D+03

 The electronic state is 1-A'.
 Alpha  occ. eigenvalues --  -20.55237 -20.55017  -1.32533  -1.32310  -0.69941
 Alpha  occ. eigenvalues --   -0.69713  -0.55951  -0.55730  -0.49640  -0.49419
 Alpha virt. eigenvalues --    0.14307   0.14681   0.20410   0.20685   0.54612
 Alpha virt. eigenvalues --    0.54876   0.57489   0.57715   0.67986   0.68829
 Alpha virt. eigenvalues --    0.79239   0.79456   0.80677   0.80920   0.82640

 Mulliken charges:
               1
     1  O   -0.505258
     2  H    0.251338
     3  H    0.253924
     4  O   -0.504999
     5  H    0.250563
     6  H    0.254432
 Sum of Mulliken charges =  -0.00000

 Dipole moment (field-independent basis, Debye):
    X=             -1.2909    Y=             -0.4963    Z=              0.0000  Tot=              1.3830
 Quadrupole moment (field-independent basis, Debye-Ang):
   XX=             -8.6986   YY=              7.9523   ZZ=            -14.7109
   XY=             -2.6946   XZ=              0.0000   YZ=              0.0000

 Normal termination of Gaussian 16 at Sat Aug 27 02:06:37 2022.
