 Gaussian 16, Revision A.03,
 Gaussian 16:  ES64L-G16RevA.03 25-Dec-2016

 ------------------
 #p CCSD(T)/cc-pVTZ
 ------------------

 ------------
 H2O_H2O_1163
 ------------
 Symbolic Z-matrix:
 Charge =  0 Multiplicity = 1

                         Standard orientation:
 ---------------------------------------------------------------------
 Center     Atomic      Atomic             Coordinates (Angstroms)
 Number     Number       Type             X           Y           Z
 ---------------------------------------------------------------------
      1          8           0        0.042991   -1.394197    0.000000
      2          1           0       -0.758071   -1.963236    0.000000
      3          1           0        0.841065   -1.967418    0.000000
      4          8           0        0.042991    1.432884    0.000000
      5          1           0        0.143341    2.410348    0.000000
      6          1           0       -0.914187    1.210811    0.000000
 ---------------------------------------------------------------------

 SCF Done:  E(RHF) =  -152.102573972     A.U. after   11 cycles
 E2 =    -0.5278332969D+00 EUMP2 =    -0.15263040726930D+03
 CCSD(T)
 CCSD(T)= -0.15265763382D+03

 The electronic state is 1-A'.
 Alpha  occ. eigenvalues --  -20.54632 -20.53509  -1.32011  -1.30752  -0.69432
 Alpha  occ. eigenvalues --   -0.68214  -0.55996  -0.53178  -0.49159  -0.47787
 Alpha virt. eigenvalues --    0.13946   0.16993   0.20219   0.22855   0.53555
 Alpha virt. eigenvalues --    0.57863   0.58071   0.58643   0.68450   0.76160
 Alpha virt. eigenvalues --    0.76609   0.76924   0.81282   0.82867   0.85476

 Mulliken charges:
               1
     1  O   -0.477344
     2  H    0.232937
     3  H    0.247314
     4  O   -0.473674
     5  H    0.224753
     6  H    0.246014
 Sum of Mulliken charges =  -0.00000

 Dipole moment (field-independent basis, Debye):
    X=             -1.3844    Y=             -0.7451    Z=              0.0000  Tot=              1.5721
 Quadrupole moment (field-independent basis, Debye-Ang):
   XX=             -9.0350   YY=             -1.9436   ZZ=            -14.7181
   XY=             -1.3258   XZ=              0.0000   YZ=              0.0000

 Normal termination of Gaussian 16 at Sat Aug 27 02:38:45 2022.
