 Gaussian 16, Revision A.03,
 Gaussian 16:  ES64L-G16RevA.03 25-Dec-2016

 ------------------
 #p CCSD(T)/cc-pVTZ
 ------------------

 ------------
 H2O_H2O_4591
 ------------
 Symbolic Z-matrix:
 Charge =  0 Multiplicity = 1

                         Standard orientation:
 ---------------------------------------------------------------------
 Center     Atomic      Atomic             Coordinates (Angstroms)
 Number     Number       Type             X           Y           Z
 ---------------------------------------------------------------------
      1          8           0        0.049499   -3.205803    0.000000
      2          1           0       -0.750823   -3.775882    0.000000
      3          1           0        0.848317   -3.777987    0.000000
      4          8           0        0.049499    3.262786    0.000000
      5          1           0       -0.044042    4.240925    0.000000
      6          1           0       -0.845436    2.857081    0.000000
 ---------------------------------------------------------------------

 SCF Done:  E(RHF) =  -152.107276817     A.U. after   10 cycles
 E2 =    -0.5258896748D+00 EUMP2 =    -0.15263316649193D+03
 CCSD(T)
 CCSD(T)= -0.15266038945D+03

 The electronic state is 1-A'.
 Alpha  occ. eigenvalues --  -20.55500 -20.55186  -1.32798  -1.32483  -0.70205
 Alpha  occ. eigenvalues --   -0.69884  -0.56239  -0.55923  -0.49909  -0.49594
 Alpha virt. eigenvalues --    0.14162   0.14483   0.20233   0.20566   0.54358
 Alpha virt. eigenvalues --    0.54691   0.57266   0.57581   0.67953   0.68288
 Alpha virt. eigenvalues --    0.78971   0.79281   0.80404   0.80741   0.82330

 Mulliken charges:
               1
     1  O   -0.508110
     2  H    0.253024
     3  H    0.255086
     4  O   -0.507912
     5  H    0.252167
     6  H    0.255745
 Sum of Mulliken charges =   0.00000

 Dipole moment (field-independent basis, Debye):
    X=             -1.7018    Y=             -0.9946    Z=              0.0000  Tot=              1.9711
 Quadrupole moment (field-independent basis, Debye-Ang):
   XX=             -9.3454   YY=              8.8512   ZZ=            -14.7117
   XY=             -4.8381   XZ=              0.0000   YZ=              0.0000

 Normal termination of Gaussian 16 at Sat Aug 27 08:13:15 2022.
