 Gaussian 16, Revision A.03,
 Gaussian 16:  ES64L-G16RevA.03 25-Dec-2016

 ------------------
 #p CCSD(T)/cc-pVTZ
 ------------------

 ------------
 H2O_H2O_2083
 ------------
 Symbolic Z-matrix:
 Charge =  0 Multiplicity = 1

                         Standard orientation:
 ---------------------------------------------------------------------
 Center     Atomic      Atomic             Coordinates (Angstroms)
 Number     Number       Type             X           Y           Z
 ---------------------------------------------------------------------
      1          8           0        0.028566   -1.898887    0.000000
      2          1           0       -0.771740   -2.468988    0.000000
      3          1           0        0.827400   -2.471050    0.000000
      4          8           0        0.028566    1.914117    0.000000
      5          1           0        0.436603    2.807993    0.000000
      6          1           0       -0.949326    2.010207    0.000000
 ---------------------------------------------------------------------

 SCF Done:  E(RHF) =  -152.105283076     A.U. after   10 cycles
 E2 =    -0.5263845984D+00 EUMP2 =    -0.15263166767471D+03
 CCSD(T)
 CCSD(T)= -0.15265890419D+03

 The electronic state is 1-A'.
 Alpha  occ. eigenvalues --  -20.54696 -20.54440  -1.31977  -1.31716  -0.69396
 Alpha  occ. eigenvalues --   -0.69123  -0.55441  -0.54894  -0.49080  -0.48813
 Alpha virt. eigenvalues --    0.14012   0.15842   0.20496   0.21360   0.53602
 Alpha virt. eigenvalues --    0.55917   0.57882   0.58241   0.62661   0.75465
 Alpha virt. eigenvalues --    0.79291   0.79963   0.80515   0.81024   0.82842

 Mulliken charges:
               1
     1  O   -0.493450
     2  H    0.244347
     3  H    0.249447
     4  O   -0.493423
     5  H    0.243290
     6  H    0.249790
 Sum of Mulliken charges =  -0.00000

 Dipole moment (field-independent basis, Debye):
    X=             -0.9615    Y=             -0.2785    Z=              0.0000  Tot=              1.0011
 Quadrupole moment (field-independent basis, Debye-Ang):
   XX=             -8.3461   YY=              2.5704   ZZ=            -14.7102
   XY=             -1.1345   XZ=              0.0000   YZ=              0.0000

 Normal termination of Gaussian 16 at Sat Aug 27 08:29:27 2022.
