 Gaussian 16, Revision A.03,
 Gaussian 16:  ES64L-G16RevA.03 25-Dec-2016

 ------------------
 #p CCSD(T)/cc-pVTZ
 ------------------

 ------------
 H2O_H2O_4226
 ------------
 Symbolic Z-matrix:
 Charge =  0 Multiplicity = 1

                         Standard orientation:
 ---------------------------------------------------------------------
 Center     Atomic      Atomic             Coordinates (Angstroms)
 Number     Number       Type             X           Y           Z
 ---------------------------------------------------------------------
      1          8           0        0.003735   -3.050475    0.000000
      2          1           0       -0.795896   -3.621523    0.000000
      3          1           0        0.803246   -3.621691    0.000000
      4          8           0        0.003735    3.050719    0.000000
      5          1           0        0.764307    3.672843    0.000000
      6          1           0       -0.831423    3.568422    0.000000
 ---------------------------------------------------------------------

 SCF Done:  E(RHF) =  -152.106741846     A.U. after   10 cycles
 E2 =    -0.5259396919D+00 EUMP2 =    -0.15263268153756D+03
 CCSD(T)
 CCSD(T)= -0.15265991570D+03

 The electronic state is 1-A'.
 Alpha  occ. eigenvalues --  -20.55155 -20.55154  -1.32451  -1.32449  -0.69858
 Alpha  occ. eigenvalues --   -0.69857  -0.55867  -0.55866  -0.49557  -0.49556
 Alpha virt. eigenvalues --    0.14446   0.14488   0.20499   0.20517   0.54707
 Alpha virt. eigenvalues --    0.54718   0.57568   0.57577   0.68322   0.68430
 Alpha virt. eigenvalues --    0.79321   0.79323   0.80766   0.80769   0.82696

 Mulliken charges:
               1
     1  O   -0.504936
     2  H    0.252374
     3  H    0.252561
     4  O   -0.504934
     5  H    0.252338
     6  H    0.252596
 Sum of Mulliken charges =  -0.00000

 Dipole moment (field-independent basis, Debye):
    X=             -0.1283    Y=             -0.0043    Z=              0.0000  Tot=              0.1283
 Quadrupole moment (field-independent basis, Debye-Ang):
   XX=             -7.8130   YY=             12.3519   ZZ=            -14.7105
   XY=             -0.2748   XZ=              0.0000   YZ=              0.0000

 Normal termination of Gaussian 16 at Sat Aug 27 06:07:50 2022.
