 Gaussian 16, Revision A.03,
 Gaussian 16:  ES64L-G16RevA.03 25-Dec-2016

 ------------------
 #p CCSD(T)/cc-pVTZ
 ------------------

 -----------
 H2O_H2O_608
 -----------
 Symbolic Z-matrix:
 Charge =  0 Multiplicity = 1

                         Standard orientation:
 ---------------------------------------------------------------------
 Center     Atomic      Atomic             Coordinates (Angstroms)
 Number     Number       Type             X           Y           Z
 ---------------------------------------------------------------------
      1          8           0        0.028573   -1.114456    0.000000
      2          1           0       -0.772247   -1.683834    0.000000
      3          1           0        0.826891   -1.687338    0.000000
      4          8           0        0.028573    1.129634    0.000000
      5          1           0        0.437416    2.023141    0.000000
      6          1           0       -0.949232    1.226605    0.000000
 ---------------------------------------------------------------------

 SCF Done:  E(RHF) =  -152.081332300     A.U. after   11 cycles
 E2 =    -0.5313142429D+00 EUMP2 =    -0.15261264654302D+03
 CCSD(T)
 CCSD(T)= -0.15263979779D+03

 The electronic state is 1-A'.
 Alpha  occ. eigenvalues --  -20.53011 -20.52521  -1.31523  -1.29532  -0.68669
 Alpha  occ. eigenvalues --   -0.67383  -0.58162  -0.48807  -0.48193  -0.46197
 Alpha virt. eigenvalues --    0.14426   0.17758   0.20427   0.22923   0.51941
 Alpha virt. eigenvalues --    0.58512   0.58610   0.63451   0.70609   0.76583
 Alpha virt. eigenvalues --    0.77656   0.81246   0.83931   0.86283   0.87370

 Mulliken charges:
               1
     1  O   -0.456705
     2  H    0.219825
     3  H    0.234879
     4  O   -0.436074
     5  H    0.202139
     6  H    0.235936
 Sum of Mulliken charges =  -0.00000

 Dipole moment (field-independent basis, Debye):
    X=             -0.8644    Y=             -0.3018    Z=              0.0000  Tot=              0.9156
 Quadrupole moment (field-independent basis, Debye-Ang):
   XX=             -8.5236   YY=             -4.2814   ZZ=            -14.7337
   XY=             -0.4277   XZ=              0.0000   YZ=              0.0000

 Normal termination of Gaussian 16 at Fri Aug 26 18:10:39 2022.
