 Gaussian 16, Revision A.03,
 Gaussian 16:  ES64L-G16RevA.03 25-Dec-2016

 ------------------
 #p CCSD(T)/cc-pVTZ
 ------------------

 -----------
 H2O_H2O_540
 -----------
 Symbolic Z-matrix:
 Charge =  0 Multiplicity = 1

                         Standard orientation:
 ---------------------------------------------------------------------
 Center     Atomic      Atomic             Coordinates (Angstroms)
 Number     Number       Type             X           Y           Z
 ---------------------------------------------------------------------
      1          8           0        0.047584   -1.055433    0.000000
      2          1           0       -0.754142   -1.623536    0.000000
      3          1           0        0.844988   -1.629585    0.000000
      4          8           0        0.047584    1.105839    0.000000
      5          1           0        0.020638    2.088071    0.000000
      6          1           0       -0.872821    0.761803    0.000000
 ---------------------------------------------------------------------

 SCF Done:  E(RHF) =  -152.078280900     A.U. after   11 cycles
 E2 =    -0.5326468238D+00 EUMP2 =    -0.15261092772378D+03
 CCSD(T)
 CCSD(T)= -0.15263792540D+03

 The electronic state is 1-A'.
 Alpha  occ. eigenvalues --  -20.54136 -20.52146  -1.32888  -1.29204  -0.70176
 Alpha  occ. eigenvalues --   -0.68054  -0.56866  -0.49947  -0.49378  -0.46026
 Alpha virt. eigenvalues --    0.13928   0.18017   0.19997   0.23943   0.52808
 Alpha virt. eigenvalues --    0.57402   0.58895   0.62330   0.71578   0.75425
 Alpha virt. eigenvalues --    0.79423   0.82537   0.83139   0.84943   0.87932

 Mulliken charges:
               1
     1  O   -0.446473
     2  H    0.215537
     3  H    0.235751
     4  O   -0.437699
     5  H    0.189020
     6  H    0.243864
 Sum of Mulliken charges =   0.00000

 Dipole moment (field-independent basis, Debye):
    X=             -1.4167    Y=             -1.0205    Z=              0.0000  Tot=              1.7460
 Quadrupole moment (field-independent basis, Debye-Ang):
   XX=             -9.3507   YY=             -5.0717   ZZ=            -14.7188
   XY=             -1.1366   XZ=              0.0000   YZ=              0.0000

 Normal termination of Gaussian 16 at Fri Aug 26 17:28:05 2022.
