 Gaussian 16, Revision A.03,
 Gaussian 16:  ES64L-G16RevA.03 25-Dec-2016

 ------------------
 #p CCSD(T)/cc-pVTZ
 ------------------

 ------------
 H2O_H2O_1055
 ------------
 Symbolic Z-matrix:
 Charge =  0 Multiplicity = 1

                         Standard orientation:
 ---------------------------------------------------------------------
 Center     Atomic      Atomic             Coordinates (Angstroms)
 Number     Number       Type             X           Y           Z
 ---------------------------------------------------------------------
      1          8           0        0.018362   -1.358757    0.000000
      2          1           0       -0.781871   -1.928961    0.000000
      3          1           0        0.817269   -1.930817    0.000000
      4          8           0        0.018362    1.364777    0.000000
      5          1           0        0.592842    2.161946    0.000000
      6          1           0       -0.922030    1.649677    0.000000
 ---------------------------------------------------------------------

 SCF Done:  E(RHF) =  -152.098276282     A.U. after   11 cycles
 E2 =    -0.5281684754D+00 EUMP2 =    -0.15262644475704D+03
 CCSD(T)
 CCSD(T)= -0.15265375034D+03

 The electronic state is 1-A'.
 Alpha  occ. eigenvalues --  -20.53611 -20.53448  -1.31166  -1.30637  -0.68538
 Alpha  occ. eigenvalues --   -0.68139  -0.56178  -0.51763  -0.48413  -0.47510
 Alpha virt. eigenvalues --    0.14388   0.17102   0.20532   0.22211   0.51334
 Alpha virt. eigenvalues --    0.58543   0.58779   0.61250   0.70605   0.76528
 Alpha virt. eigenvalues --    0.76927   0.78505   0.80461   0.83466   0.86228

 Mulliken charges:
               1
     1  O   -0.467947
     2  H    0.230021
     3  H    0.237542
     4  O   -0.463034
     5  H    0.227755
     6  H    0.235663
 Sum of Mulliken charges =  -0.00000

 Dipole moment (field-independent basis, Debye):
    X=             -0.5883    Y=             -0.1149    Z=              0.0000  Tot=              0.5994
 Quadrupole moment (field-independent basis, Debye-Ang):
   XX=             -8.1417   YY=             -1.8007   ZZ=            -14.7163
   XY=             -0.3528   XZ=              0.0000   YZ=              0.0000

 Normal termination of Gaussian 16 at Sat Aug 27 01:43:01 2022.
