 Gaussian 16, Revision A.03,
 Gaussian 16:  ES64L-G16RevA.03 25-Dec-2016

 ------------------
 #p CCSD(T)/cc-pVTZ
 ------------------

 ------------
 H2O_H2O_1009
 ------------
 Symbolic Z-matrix:
 Charge =  0 Multiplicity = 1

                         Standard orientation:
 ---------------------------------------------------------------------
 Center     Atomic      Atomic             Coordinates (Angstroms)
 Number     Number       Type             X           Y           Z
 ---------------------------------------------------------------------
      1          8           0        0.031750   -1.325049    0.000000
      2          1           0       -0.768988   -1.894543    0.000000
      3          1           0        0.830150   -1.897816    0.000000
      4          8           0        0.031750    1.344170    0.000000
      5          1           0        0.381145    2.262553    0.000000
      6          1           0       -0.950308    1.376841    0.000000
 ---------------------------------------------------------------------

 SCF Done:  E(RHF) =  -152.098632812     A.U. after   11 cycles
 E2 =    -0.5283807971D+00 EUMP2 =    -0.15262701360920D+03
 CCSD(T)
 CCSD(T)= -0.15265428602D+03

 The electronic state is 1-A'.
 Alpha  occ. eigenvalues --  -20.53910 -20.53355  -1.31435  -1.30574  -0.68820
 Alpha  occ. eigenvalues --   -0.68082  -0.56288  -0.51892  -0.48658  -0.47483
 Alpha virt. eigenvalues --    0.14240   0.17135   0.20419   0.22549   0.52377
 Alpha virt. eigenvalues --    0.58335   0.58606   0.60659   0.69922   0.76586
 Alpha virt. eigenvalues --    0.76757   0.77922   0.82497   0.83436   0.85979

 Mulliken charges:
               1
     1  O   -0.471028
     2  H    0.229149
     3  H    0.241692
     4  O   -0.460517
     5  H    0.221575
     6  H    0.239128
 Sum of Mulliken charges =  -0.00000

 Dipole moment (field-independent basis, Debye):
    X=             -1.0105    Y=             -0.3681    Z=              0.0000  Tot=              1.0755
 Quadrupole moment (field-independent basis, Debye-Ang):
   XX=             -8.5527   YY=             -2.2258   ZZ=            -14.7188
   XY=             -0.7085   XZ=              0.0000   YZ=              0.0000

 Normal termination of Gaussian 16 at Sat Aug 27 01:20:49 2022.
