 Gaussian 16, Revision A.03,
 Gaussian 16:  ES64L-G16RevA.03 25-Dec-2016

 ------------------
 #p CCSD(T)/cc-pVTZ
 ------------------

 -----------
 H2O_H2O_817
 -----------
 Symbolic Z-matrix:
 Charge =  0 Multiplicity = 1

                         Standard orientation:
 ---------------------------------------------------------------------
 Center     Atomic      Atomic             Coordinates (Angstroms)
 Number     Number       Type             X           Y           Z
 ---------------------------------------------------------------------
      1          8           0        0.051337   -1.194666    0.000000
      2          1           0       -0.750282   -1.762919    0.000000
      3          1           0        0.848850   -1.768669    0.000000
      4          8           0        0.051337    1.258002    0.000000
      5          1           0       -0.103766    2.228285    0.000000
      6          1           0       -0.816201    0.796610    0.000000
 ---------------------------------------------------------------------

 SCF Done:  E(RHF) =  -152.097147872     A.U. after   11 cycles
 E2 =    -0.5297789040D+00 EUMP2 =    -0.15262692677618D+03
 CCSD(T)
 CCSD(T)= -0.15265404415D+03

 The electronic state is 1-A'.
 Alpha  occ. eigenvalues --  -20.55089 -20.52655  -1.32869  -1.29902  -0.70254
 Alpha  occ. eigenvalues --   -0.67997  -0.56171  -0.52328  -0.49978  -0.46893
 Alpha virt. eigenvalues --    0.13659   0.17705   0.19917   0.24127   0.52631
 Alpha virt. eigenvalues --    0.57258   0.59172   0.60185   0.71164   0.74773
 Alpha virt. eigenvalues --    0.77704   0.82189   0.83007   0.84812   0.85275

 Mulliken charges:
               1
     1  O   -0.466350
     2  H    0.228479
     3  H    0.247305
     4  O   -0.472144
     5  H    0.211849
     6  H    0.250862
 Sum of Mulliken charges =  -0.00000

 Dipole moment (field-independent basis, Debye):
    X=             -1.5955    Y=             -1.2702    Z=              0.0000  Tot=              2.0394
 Quadrupole moment (field-independent basis, Debye-Ang):
   XX=             -9.5242   YY=             -4.0196   ZZ=            -14.7236
   XY=             -1.6706   XZ=              0.0000   YZ=              0.0000

 Normal termination of Gaussian 16 at Fri Aug 26 20:16:57 2022.
