 Gaussian 16, Revision A.03,
 Gaussian 16:  ES64L-G16RevA.03 25-Dec-2016

 ------------------
 #p CCSD(T)/cc-pVTZ
 ------------------

 ------------
 H2O_H2O_4054
 ------------
 Symbolic Z-matrix:
 Charge =  0 Multiplicity = 1

                         Standard orientation:
 ---------------------------------------------------------------------
 Center     Atomic      Atomic             Coordinates (Angstroms)
 Number     Number       Type             X           Y           Z
 ---------------------------------------------------------------------
      1          8           0        0.014783   -2.955429    0.000000
      2          1           0       -0.785034   -3.526217    0.000000
      3          1           0        0.814108   -3.526905    0.000000
      4          8           0        0.014783    2.959308    0.000000
      5          1           0        0.639616    3.717656    0.000000
      6          1           0       -0.905216    3.304431    0.000000
 ---------------------------------------------------------------------

 SCF Done:  E(RHF) =  -152.106703985     A.U. after   10 cycles
 E2 =    -0.5259461627D+00 EUMP2 =    -0.15263265014781D+03
 CCSD(T)
 CCSD(T)= -0.15265988494D+03

 The electronic state is 1-A'.
 Alpha  occ. eigenvalues --  -20.55146 -20.55121  -1.32442  -1.32416  -0.69849
 Alpha  occ. eigenvalues --   -0.69823  -0.55856  -0.55831  -0.49548  -0.49522
 Alpha virt. eigenvalues --    0.14447   0.14523   0.20504   0.20544   0.54717
 Alpha virt. eigenvalues --    0.54753   0.57576   0.57605   0.68302   0.68502
 Alpha virt. eigenvalues --    0.79330   0.79356   0.80776   0.80805   0.82708

 Mulliken charges:
               1
     1  O   -0.504717
     2  H    0.251954
     3  H    0.252763
     4  O   -0.504685
     5  H    0.251782
     6  H    0.252903
 Sum of Mulliken charges =  -0.00000

 Dipole moment (field-independent basis, Debye):
    X=             -0.5073    Y=             -0.0678    Z=              0.0000  Tot=              0.5118
 Quadrupole moment (field-independent basis, Debye-Ang):
   XX=             -7.9427   YY=             11.3525   ZZ=            -14.7105
   XY=             -1.0577   XZ=              0.0000   YZ=              0.0000

 Normal termination of Gaussian 16 at Sat Aug 27 05:07:45 2022.
