 Gaussian 16, Revision A.03,
 Gaussian 16:  ES64L-G16RevA.03 25-Dec-2016

 ------------------
 #p CCSD(T)/cc-pVTZ
 ------------------

 -----------
 H2O_H2O_881
 -----------
 Symbolic Z-matrix:
 Charge =  0 Multiplicity = 1

                         Standard orientation:
 ---------------------------------------------------------------------
 Center     Atomic      Atomic             Coordinates (Angstroms)
 Number     Number       Type             X           Y           Z
 ---------------------------------------------------------------------
      1          8           0        0.021863   -1.264268    0.000000
      2          1           0       -0.778555   -1.834213    0.000000
      3          1           0        0.820586   -1.836585    0.000000
      4          8           0        0.021863    1.272898    0.000000
      5          1           0        0.543244    2.105766    0.000000
      6          1           0       -0.935077    1.495992    0.000000
 ---------------------------------------------------------------------

 SCF Done:  E(RHF) =  -152.094379969     A.U. after   11 cycles
 E2 =    -0.5289985599D+00 EUMP2 =    -0.15262337852904D+03
 CCSD(T)
 CCSD(T)= -0.15265066597D+03

 The electronic state is 1-A'.
 Alpha  occ. eigenvalues --  -20.53390 -20.53137  -1.31165  -1.30285  -0.68484
 Alpha  occ. eigenvalues --   -0.67849  -0.56772  -0.50646  -0.48446  -0.47084
 Alpha virt. eigenvalues --    0.14407   0.17360   0.20516   0.22457   0.51326
 Alpha virt. eigenvalues --    0.58640   0.58827   0.62233   0.71566   0.76576
 Alpha virt. eigenvalues --    0.76780   0.79295   0.83813   0.84189   0.86305

 Mulliken charges:
               1
     1  O   -0.464629
     2  H    0.226899
     3  H    0.236689
     4  O   -0.455503
     5  H    0.221434
     6  H    0.235112
 Sum of Mulliken charges =  -0.00000

 Dipole moment (field-independent basis, Debye):
    X=             -0.6875    Y=             -0.1668    Z=              0.0000  Tot=              0.7074
 Quadrupole moment (field-independent basis, Debye-Ang):
   XX=             -8.2592   YY=             -2.7223   ZZ=            -14.7227
   XY=             -0.3755   XZ=              0.0000   YZ=              0.0000

 194\MP4DQ=-152.6319948\MP4SDQ=-152.6352285\CCSD=-152.6345772\CCSD(T)=-
 Normal termination of Gaussian 16 at Fri Aug 26 20:49:47 2022.
