 Gaussian 16, Revision A.03,
 Gaussian 16:  ES64L-G16RevA.03 25-Dec-2016

 ------------------
 #p CCSD(T)/cc-pVTZ
 ------------------

 ------------
 H2O_H2O_3282
 ------------
 Symbolic Z-matrix:
 Charge =  0 Multiplicity = 1

                         Standard orientation:
 ---------------------------------------------------------------------
 Center     Atomic      Atomic             Coordinates (Angstroms)
 Number     Number       Type             X           Y           Z
 ---------------------------------------------------------------------
      1          8           0        0.025266   -2.538989    0.000000
      2          1           0       -0.774793   -3.109437    0.000000
      3          1           0        0.824348   -3.110804    0.000000
      4          8           0        0.025266    2.550725    0.000000
      5          1           0        0.490513    3.416202    0.000000
      6          1           0       -0.944318    2.710145    0.000000
 ---------------------------------------------------------------------

 SCF Done:  E(RHF) =  -152.106389597     A.U. after   10 cycles
 E2 =    -0.5259994500D+00 EUMP2 =    -0.15263238904685D+03
 CCSD(T)
 CCSD(T)= -0.15265962890D+03

 The electronic state is 1-A'.
 Alpha  occ. eigenvalues --  -20.55042 -20.54937  -1.32336  -1.32229  -0.69745
 Alpha  occ. eigenvalues --   -0.69635  -0.55735  -0.55628  -0.49440  -0.49334
 Alpha virt. eigenvalues --    0.14381   0.14815   0.20527   0.20729   0.54765
 Alpha virt. eigenvalues --    0.54992   0.57647   0.57773   0.67662   0.69540
 Alpha virt. eigenvalues --    0.79435   0.79543   0.80866   0.81030   0.82742

 Mulliken charges:
               1
     1  O   -0.502889
     2  H    0.250393
     3  H    0.252501
     4  O   -0.502705
     5  H    0.249913
     6  H    0.252788
 Sum of Mulliken charges =  -0.00000

 Dipole moment (field-independent basis, Debye):
    X=             -0.8639    Y=             -0.2068    Z=              0.0000  Tot=              0.8883
 Quadrupole moment (field-independent basis, Debye-Ang):
   XX=             -8.2123   YY=              7.6405   ZZ=            -14.7102
   XY=             -1.5171   XZ=              0.0000   YZ=              0.0000

 Normal termination of Gaussian 16 at Fri Aug 26 21:01:04 2022.
