 Gaussian 16, Revision A.03,
 Gaussian 16:  ES64L-G16RevA.03 25-Dec-2016

 ------------------
 #p CCSD(T)/cc-pVTZ
 ------------------

 ------------
 H2O_H2O_4905
 ------------
 Symbolic Z-matrix:
 Charge =  0 Multiplicity = 1

                         Standard orientation:
 ---------------------------------------------------------------------
 Center     Atomic      Atomic             Coordinates (Angstroms)
 Number     Number       Type             X           Y           Z
 ---------------------------------------------------------------------
      1          8           0        0.018360   -3.406314    0.000000
      2          1           0       -0.781476   -3.977075    0.000000
      3          1           0        0.817666   -3.977817    0.000000
      4          8           0        0.018360    3.412359    0.000000
      5          1           0        0.592284    4.209929    0.000000
      6          1           0       -0.922231    3.696604    0.000000
 ---------------------------------------------------------------------

 SCF Done:  E(RHF) =  -152.106988089     A.U. after   10 cycles
 E2 =    -0.5259108254D+00 EUMP2 =    -0.15263289891442D+03
 CCSD(T)
 CCSD(T)= -0.15266012830D+03

 The electronic state is 1-A'.
 Alpha  occ. eigenvalues --  -20.55281 -20.55251  -1.32578  -1.32548  -0.69984
 Alpha  occ. eigenvalues --   -0.69954  -0.56006  -0.55976  -0.49686  -0.49656
 Alpha virt. eigenvalues --    0.14361   0.14392   0.20414   0.20446   0.54583
 Alpha virt. eigenvalues --    0.54616   0.57464   0.57494   0.68216   0.68248
 Alpha virt. eigenvalues --    0.79193   0.79223   0.80634   0.80666   0.82559

 Mulliken charges:
               1
     1  O   -0.506386
     2  H    0.252858
     3  H    0.253528
     4  O   -0.506361
     5  H    0.252694
     6  H    0.253667
 Sum of Mulliken charges =  -0.00000

 Dipole moment (field-independent basis, Debye):
    X=             -0.6315    Y=             -0.1053    Z=              0.0000  Tot=              0.6402
 Quadrupole moment (field-independent basis, Debye-Ang):
   XX=             -8.0131   YY=             14.7207   ZZ=            -14.7109
   XY=             -1.6091   XZ=              0.0000   YZ=              0.0000

 Normal termination of Gaussian 16 at Sat Aug 27 10:00:54 2022.
