 Gaussian 16, Revision A.03,
 Gaussian 16:  ES64L-G16RevA.03 25-Dec-2016

 ------------------
 #p CCSD(T)/cc-pVTZ
 ------------------

 ------------
 H2O_H2O_2693
 ------------
 Symbolic Z-matrix:
 Charge =  0 Multiplicity = 1

                         Standard orientation:
 ---------------------------------------------------------------------
 Center     Atomic      Atomic             Coordinates (Angstroms)
 Number     Number       Type             X           Y           Z
 ---------------------------------------------------------------------
      1          8           0        0.052838   -2.188082    0.000000
      2          1           0       -0.747899   -2.757579    0.000000
      3          1           0        0.851240   -2.760846    0.000000
      4          8           0        0.052838    2.258380    0.000000
      5          1           0       -0.166880    3.216102    0.000000
      6          1           0       -0.781863    1.739940    0.000000
 ---------------------------------------------------------------------

 SCF Done:  E(RHF) =  -152.107319044     A.U. after   10 cycles
 E2 =    -0.5260352709D+00 EUMP2 =    -0.15263335431511D+03
 CCSD(T)
 CCSD(T)= -0.15266056133D+03

 The electronic state is 1-A'.
 Alpha  occ. eigenvalues --  -20.55536 -20.54646  -1.32826  -1.31937  -0.70234
 Alpha  occ. eigenvalues --   -0.69321  -0.56259  -0.55371  -0.49936  -0.49053
 Alpha virt. eigenvalues --    0.13499   0.15478   0.20107   0.21482   0.54076
 Alpha virt. eigenvalues --    0.54838   0.57264   0.58050   0.66230   0.72223
 Alpha virt. eigenvalues --    0.78938   0.79820   0.79931   0.81492   0.82694

 Mulliken charges:
               1
     1  O   -0.506358
     2  H    0.250403
     3  H    0.256645
     4  O   -0.507065
     5  H    0.247813
     6  H    0.258561
 Sum of Mulliken charges =   0.00000

 Dipole moment (field-independent basis, Debye):
    X=             -1.7974    Y=             -1.2621    Z=              0.0000  Tot=              2.1963
 Quadrupole moment (field-independent basis, Debye-Ang):
   XX=             -9.5597   YY=              1.9154   ZZ=            -14.7132
   XY=             -3.5724   XZ=              0.0000   YZ=              0.0000

 Normal termination of Gaussian 16 at Fri Aug 26 15:09:29 2022.
