 Gaussian 16, Revision A.03,
 Gaussian 16:  ES64L-G16RevA.03 25-Dec-2016

 ------------------
 #p CCSD(T)/cc-pVTZ
 ------------------

 ------------
 H2O_H2O_3521
 ------------
 Symbolic Z-matrix:
 Charge =  0 Multiplicity = 1

                         Standard orientation:
 ---------------------------------------------------------------------
 Center     Atomic      Atomic             Coordinates (Angstroms)
 Number     Number       Type             X           Y           Z
 ---------------------------------------------------------------------
      1          8           0        0.056099   -2.615204    0.000000
      2          1           0       -0.744506   -3.184886    0.000000
      3          1           0        0.854634   -3.187784    0.000000
      4          8           0        0.056099    2.706943    0.000000
      5          1           0       -0.346446    3.603304    0.000000
      6          1           0       -0.661266    2.035456    0.000000
 ---------------------------------------------------------------------

 SCF Done:  E(RHF) =  -152.107627205     A.U. after   10 cycles
 E2 =    -0.5258961344D+00 EUMP2 =    -0.15263352333980D+03
 CCSD(T)
 CCSD(T)= -0.15266073537D+03

 The electronic state is 1-A'.
 Alpha  occ. eigenvalues --  -20.55701 -20.54929  -1.32999  -1.32227  -0.70406
 Alpha  occ. eigenvalues --   -0.69619  -0.56456  -0.55676  -0.50112  -0.49343
 Alpha virt. eigenvalues --    0.13761   0.14912   0.20055   0.20978   0.54126
 Alpha virt. eigenvalues --    0.54901   0.57092   0.57806   0.67242   0.69091
 Alpha virt. eigenvalues --    0.78772   0.79522   0.80140   0.80584   0.82685

 Mulliken charges:
               1
     1  O   -0.510031
     2  H    0.253084
     3  H    0.257046
     4  O   -0.509516
     5  H    0.250780
     6  H    0.258637
 Sum of Mulliken charges =  -0.00000

 Dipole moment (field-independent basis, Debye):
    X=             -1.9220    Y=             -1.6184    Z=              0.0000  Tot=              2.5126
 Quadrupole moment (field-independent basis, Debye-Ang):
   XX=             -9.7830   YY=              2.5575   ZZ=            -14.7129
   XY=             -5.0008   XZ=              0.0000   YZ=              0.0000

 Normal termination of Gaussian 16 at Sat Aug 27 01:12:33 2022.
