 Gaussian 16, Revision A.03,
 Gaussian 16:  ES64L-G16RevA.03 25-Dec-2016

 ------------------
 #p CCSD(T)/cc-pVTZ
 ------------------

 ------------
 H2O_H2O_1482
 ------------
 Symbolic Z-matrix:
 Charge =  0 Multiplicity = 1

                         Standard orientation:
 ---------------------------------------------------------------------
 Center     Atomic      Atomic             Coordinates (Angstroms)
 Number     Number       Type             X           Y           Z
 ---------------------------------------------------------------------
      1          8           0        0.025269   -1.581697    0.000000
      2          1           0       -0.775084   -2.151733    0.000000
      3          1           0        0.824057   -2.153923    0.000000
      4          8           0        0.025269    1.593407    0.000000
      5          1           0        0.490962    2.458644    0.000000
      6          1           0       -0.944232    1.753326    0.000000
 ---------------------------------------------------------------------

 SCF Done:  E(RHF) =  -152.103183928     A.U. after   10 cycles
 E2 =    -0.5270715866D+00 EUMP2 =    -0.15263025551499D+03
 CCSD(T)
 CCSD(T)= -0.15265751794D+03

 The electronic state is 1-A'.
 Alpha  occ. eigenvalues --  -20.54254 -20.53986  -1.31562  -1.31245  -0.68987
 Alpha  occ. eigenvalues --   -0.68670  -0.55522  -0.53712  -0.48709  -0.48278
 Alpha virt. eigenvalues --    0.14188   0.16508   0.20492   0.21856   0.52583
 Alpha virt. eigenvalues --    0.57860   0.58170   0.58740   0.64395   0.76854
 Alpha virt. eigenvalues --    0.78133   0.78609   0.79291   0.82130   0.85835

 Mulliken charges:
               1
     1  O   -0.479464
     2  H    0.236362
     3  H    0.243599
     4  O   -0.478003
     5  H    0.234759
     6  H    0.242747
 Sum of Mulliken charges =  -0.00000

 Dipole moment (field-independent basis, Debye):
    X=             -0.8330    Y=             -0.2202    Z=              0.0000  Tot=              0.8616
 Quadrupole moment (field-independent basis, Debye-Ang):
   XX=             -8.2720   YY=              0.1023   ZZ=            -14.7104
   XY=             -0.7104   XZ=              0.0000   YZ=              0.0000

 Normal termination of Gaussian 16 at Sat Aug 27 05:00:55 2022.
