 Gaussian 16, Revision A.03,
 Gaussian 16:  ES64L-G16RevA.03 25-Dec-2016

 ------------------
 #p CCSD(T)/cc-pVTZ
 ------------------

 ------------
 H2O_H2O_2059
 ------------
 Symbolic Z-matrix:
 Charge =  0 Multiplicity = 1

                         Standard orientation:
 ---------------------------------------------------------------------
 Center     Atomic      Atomic             Coordinates (Angstroms)
 Number     Number       Type             X           Y           Z
 ---------------------------------------------------------------------
      1          8           0        0.031744   -1.883457    0.000000
      2          1           0       -0.768650   -2.453435    0.000000
      3          1           0        0.830490   -2.455743    0.000000
      4          8           0        0.031744    1.902616    0.000000
      5          1           0        0.380585    2.821211    0.000000
      6          1           0       -0.950333    1.934695    0.000000
 ---------------------------------------------------------------------

 SCF Done:  E(RHF) =  -152.105378631     A.U. after   10 cycles
 E2 =    -0.5263973069D+00 EUMP2 =    -0.15263177593772D+03
 CCSD(T)
 CCSD(T)= -0.15265900863D+03

 The electronic state is 1-A'.
 Alpha  occ. eigenvalues --  -20.54746 -20.54418  -1.32025  -1.31692  -0.69444
 Alpha  occ. eigenvalues --   -0.69096  -0.55479  -0.54890  -0.49129  -0.48791
 Alpha virt. eigenvalues --    0.13960   0.15885   0.20459   0.21428   0.53474
 Alpha virt. eigenvalues --    0.55797   0.57858   0.58267   0.62875   0.75642
 Alpha virt. eigenvalues --    0.79230   0.79807   0.80545   0.80974   0.83043

 Mulliken charges:
               1
     1  O   -0.493579
     2  H    0.244138
     3  H    0.249907
     4  O   -0.493678
     5  H    0.242860
     6  H    0.250351
 Sum of Mulliken charges =  -0.00000

 Dipole moment (field-independent basis, Debye):
    X=             -1.0677    Y=             -0.3509    Z=              0.0000  Tot=              1.1239
 Quadrupole moment (field-independent basis, Debye-Ang):
   XX=             -8.4651   YY=              2.3244   ZZ=            -14.7104
   XY=             -1.2854   XZ=              0.0000   YZ=              0.0000

 Normal termination of Gaussian 16 at Sat Aug 27 08:21:23 2022.
