 Gaussian 16, Revision A.03,
 Gaussian 16:  ES64L-G16RevA.03 25-Dec-2016

 ------------------
 #p CCSD(T)/cc-pVTZ
 ------------------

 ------------
 H2O_H2O_3374
 ------------
 Symbolic Z-matrix:
 Charge =  0 Multiplicity = 1

                         Standard orientation:
 ---------------------------------------------------------------------
 Center     Atomic      Atomic             Coordinates (Angstroms)
 Number     Number       Type             X           Y           Z
 ---------------------------------------------------------------------
      1          8           0        0.057222   -2.523334    0.000000
      2          1           0       -0.743436   -3.092942    0.000000
      3          1           0        0.855703   -3.095989    0.000000
      4          8           0        0.057222    2.637343    0.000000
      5          1           0       -0.512386    3.438002    0.000000
      6          1           0       -0.515433    1.838862    0.000000
 ---------------------------------------------------------------------

 SCF Done:  E(RHF) =  -152.108014745     A.U. after   10 cycles
 E2 =    -0.5258851836D+00 EUMP2 =    -0.15263389992818D+03
 CCSD(T)
 CCSD(T)= -0.15266110068D+03

 The electronic state is 1-A'.
 Alpha  occ. eigenvalues --  -20.55887 -20.54855  -1.33184  -1.32157  -0.70589
 Alpha  occ. eigenvalues --   -0.69547  -0.56657  -0.55616  -0.50300  -0.49276
 Alpha virt. eigenvalues --    0.13476   0.15077   0.19927   0.21180   0.53942
 Alpha virt. eigenvalues --    0.54888   0.56943   0.57847   0.66888   0.69368
 Alpha virt. eigenvalues --    0.78589   0.79582   0.79843   0.80234   0.82781

 Mulliken charges:
               1
     1  O   -0.511797
     2  H    0.253955
     3  H    0.258127
     4  O   -0.511351
     5  H    0.250888
     6  H    0.260179
 Sum of Mulliken charges =  -0.00000

 Dipole moment (field-independent basis, Debye):
    X=             -1.9590    Y=             -2.0184    Z=              0.0000  Tot=              2.8128
 Quadrupole moment (field-independent basis, Debye-Ang):
   XX=             -9.8629   YY=              0.2111   ZZ=            -14.7140
   XY=             -5.3430   XZ=              0.0000   YZ=              0.0000

 Normal termination of Gaussian 16 at Fri Aug 26 21:48:19 2022.
