 Gaussian 16, Revision A.03,
 Gaussian 16:  ES64L-G16RevA.03 25-Dec-2016

 ------------------
 #p CCSD(T)/cc-pVTZ
 ------------------

 ------------
 H2O_H2O_4782
 ------------
 Symbolic Z-matrix:
 Charge =  0 Multiplicity = 1

                         Standard orientation:
 ---------------------------------------------------------------------
 Center     Atomic      Atomic             Coordinates (Angstroms)
 Number     Number       Type             X           Y           Z
 ---------------------------------------------------------------------
      1          8           0        0.025264   -3.336738    0.000000
      2          1           0       -0.774678   -3.907349    0.000000
      3          1           0        0.824464   -3.908390    0.000000
      4          8           0        0.025264    3.348485    0.000000
      5          1           0        0.490336    4.214056    0.000000
      6          1           0       -0.944351    3.507707    0.000000
 ---------------------------------------------------------------------

 SCF Done:  E(RHF) =  -152.106994815     A.U. after   10 cycles
 E2 =    -0.5259114536D+00 EUMP2 =    -0.15263290626852D+03
 CCSD(T)
 CCSD(T)= -0.15266013543D+03

 The electronic state is 1-A'.
 Alpha  occ. eigenvalues --  -20.55293 -20.55233  -1.32590  -1.32529  -0.69997
 Alpha  occ. eigenvalues --   -0.69935  -0.56018  -0.55958  -0.49698  -0.49638
 Alpha virt. eigenvalues --    0.14349   0.14411   0.20403   0.20466   0.54571
 Alpha virt. eigenvalues --    0.54636   0.57452   0.57512   0.68202   0.68266
 Alpha virt. eigenvalues --    0.79181   0.79241   0.80621   0.80687   0.82547

 Mulliken charges:
               1
     1  O   -0.506428
     2  H    0.252727
     3  H    0.253702
     4  O   -0.506378
     5  H    0.252470
     6  H    0.253908
 Sum of Mulliken charges =  -0.00000

 Dipole moment (field-independent basis, Debye):
    X=             -0.8687    Y=             -0.2047    Z=              0.0000  Tot=              0.8925
 Quadrupole moment (field-independent basis, Debye-Ang):
   XX=             -8.2033   YY=             13.7168   ZZ=            -14.7110
   XY=             -2.2021   XZ=              0.0000   YZ=              0.0000

 Normal termination of Gaussian 16 at Sat Aug 27 09:18:29 2022.
