 Gaussian 16, Revision A.03,
 Gaussian 16:  ES64L-G16RevA.03 25-Dec-2016

 ------------------
 #p CCSD(T)/cc-pVTZ
 ------------------

 ----------
 H2O_H2O_76
 ----------
 Symbolic Z-matrix:
 Charge =  0 Multiplicity = 1

                         Standard orientation:
 ---------------------------------------------------------------------
 Center     Atomic      Atomic             Coordinates (Angstroms)
 Number     Number       Type             X           Y           Z
 ---------------------------------------------------------------------
      1          8           0        0.003735   -0.843355    0.000000
      2          1           0       -0.796053   -1.414182    0.000000
      3          1           0        0.803089   -1.414792    0.000000
      4          8           0        0.003735    0.843597    0.000000
      5          1           0        0.764479    1.465511    0.000000
      6          1           0       -0.831280    1.361530    0.000000
 ---------------------------------------------------------------------

 SCF Done:  E(RHF) =  -151.949906184     A.U. after   11 cycles
 E2 =    -0.5479888054D+00 EUMP2 =    -0.15249789498908D+03
 CCSD(T)
 CCSD(T)= -0.15252286793D+03

 The electronic state is 1-A'.
 Alpha  occ. eigenvalues --  -20.51217 -20.51210  -1.35508  -1.27089  -0.70273
 Alpha  occ. eigenvalues --   -0.67211  -0.65413  -0.51942  -0.43301  -0.34545
 Alpha virt. eigenvalues --    0.14536   0.19597   0.19919   0.23021   0.50444
 Alpha virt. eigenvalues --    0.58949   0.59240   0.66940   0.67913   0.79334
 Alpha virt. eigenvalues --    0.80847   0.84098   0.84188   0.86074   0.87854

 Mulliken charges:
               1
     1  O   -0.358734
     2  H    0.177252
     3  H    0.181507
     4  O   -0.357841
     5  H    0.170701
     6  H    0.187114
 Sum of Mulliken charges =  -0.00000

 Dipole moment (field-independent basis, Debye):
    X=             -0.1074    Y=             -0.0067    Z=              0.0000  Tot=              0.1076
 Quadrupole moment (field-independent basis, Debye-Ang):
   XX=             -8.4733   YY=             -8.5114   ZZ=            -14.7713
   XY=             -0.0512   XZ=              0.0000   YZ=              0.0000

 04071\MP4DQ=-152.5015563\MP4SDQ=-152.5058\CCSD=-152.5045519\CCSD(T)=-1
 Normal termination of Gaussian 16 at Fri Aug 26 12:31:58 2022.
