 Gaussian 16, Revision A.03,
 Gaussian 16:  ES64L-G16RevA.03 25-Dec-2016

 ------------------
 #p CCSD(T)/cc-pVTZ
 ------------------

 ------------
 H2O_H2O_3271
 ------------
 Symbolic Z-matrix:
 Charge =  0 Multiplicity = 1

                         Standard orientation:
 ---------------------------------------------------------------------
 Center     Atomic      Atomic             Coordinates (Angstroms)
 Number     Number       Type             X           Y           Z
 ---------------------------------------------------------------------
      1          8           0        0.056103   -2.482251    0.000000
      2          1           0       -0.744556   -3.051856    0.000000
      3          1           0        0.854584   -3.054907    0.000000
      4          8           0        0.056103    2.573979    0.000000
      5          1           0       -0.346357    3.470378    0.000000
      6          1           0       -0.661326    1.902560    0.000000
 ---------------------------------------------------------------------

 SCF Done:  E(RHF) =  -152.107680406     A.U. after   10 cycles
 E2 =    -0.5259161727D+00 EUMP2 =    -0.15263359657882D+03
 CCSD(T)
 CCSD(T)= -0.15266080465D+03

 The electronic state is 1-A'.
 Alpha  occ. eigenvalues --  -20.55718 -20.54848  -1.33014  -1.32146  -0.70420
 Alpha  occ. eigenvalues --   -0.69535  -0.56471  -0.55596  -0.50127  -0.49263
 Alpha virt. eigenvalues --    0.13617   0.15077   0.20034   0.21132   0.54086
 Alpha virt. eigenvalues --    0.54912   0.57088   0.57851   0.66986   0.69622
 Alpha virt. eigenvalues --    0.78759   0.79599   0.80007   0.80512   0.82772

 Mulliken charges:
               1
     1  O   -0.509969
     2  H    0.252813
     3  H    0.257391
     4  O   -0.509609
     5  H    0.250190
     6  H    0.259183
 Sum of Mulliken charges =  -0.00000

 Dipole moment (field-independent basis, Debye):
    X=             -1.9193    Y=             -1.6254    Z=              0.0000  Tot=              2.5151
 Quadrupole moment (field-independent basis, Debye-Ang):
   XX=             -9.7827   YY=              1.9210   ZZ=            -14.7132
   XY=             -4.7479   XZ=              0.0000   YZ=              0.0000

 Normal termination of Gaussian 16 at Fri Aug 26 20:54:31 2022.
