 Gaussian 16, Revision A.03,
 Gaussian 16:  ES64L-G16RevA.03 25-Dec-2016

 ------------------
 #p CCSD(T)/cc-pVTZ
 ------------------

 ------------
 H2O_H2O_3328
 ------------
 Symbolic Z-matrix:
 Charge =  0 Multiplicity = 1

                         Standard orientation:
 ---------------------------------------------------------------------
 Center     Atomic      Atomic             Coordinates (Angstroms)
 Number     Number       Type             X           Y           Z
 ---------------------------------------------------------------------
      1          8           0        0.011143   -2.570767    0.000000
      2          1           0       -0.788641   -3.141601    0.000000
      3          1           0        0.810501   -3.142197    0.000000
      4          8           0        0.011143    2.572954    0.000000
      5          1           0        0.684195    3.288849    0.000000
      6          1           0       -0.884337    2.977457    0.000000
 ---------------------------------------------------------------------

 SCF Done:  E(RHF) =  -152.106286981     A.U. after   10 cycles
 E2 =    -0.5260042139D+00 EUMP2 =    -0.15263229119519D+03
 CCSD(T)
 CCSD(T)= -0.15265953354D+03

 The electronic state is 1-A'.
 Alpha  occ. eigenvalues --  -20.54976 -20.54957  -1.32270  -1.32250  -0.69679
 Alpha  occ. eigenvalues --   -0.69659  -0.55667  -0.55641  -0.49373  -0.49354
 Alpha virt. eigenvalues --    0.14454   0.14777   0.20578   0.20690   0.54829
 Alpha virt. eigenvalues --    0.54978   0.57698   0.57753   0.67802   0.69446
 Alpha virt. eigenvalues --    0.79497   0.79528   0.80928   0.81008   0.82757

 Mulliken charges:
               1
     1  O   -0.502272
     2  H    0.250686
     3  H    0.251586
     4  O   -0.502235
     5  H    0.250525
     6  H    0.251709
 Sum of Mulliken charges =   0.00000

 Dipole moment (field-independent basis, Debye):
    X=             -0.3811    Y=             -0.0385    Z=              0.0000  Tot=              0.3830
 Quadrupole moment (field-independent basis, Debye-Ang):
   XX=             -7.8903   YY=              8.3953   ZZ=            -14.7100
   XY=             -0.6458   XZ=              0.0000   YZ=              0.0000

 Normal termination of Gaussian 16 at Fri Aug 26 21:24:30 2022.
