 Gaussian 16, Revision A.03,
 Gaussian 16:  ES64L-G16RevA.03 25-Dec-2016

 ------------------
 #p CCSD(T)/cc-pVTZ
 ------------------

 ------------
 H2O_H2O_4240
 ------------
 Symbolic Z-matrix:
 Charge =  0 Multiplicity = 1

                         Standard orientation:
 ---------------------------------------------------------------------
 Center     Atomic      Atomic             Coordinates (Angstroms)
 Number     Number       Type             X           Y           Z
 ---------------------------------------------------------------------
      1          8           0        0.047522   -3.023106    0.000000
      2          1           0       -0.752814   -3.593165    0.000000
      3          1           0        0.846326   -3.595310    0.000000
      4          8           0        0.047522    3.073744    0.000000
      5          1           0        0.018178    4.055908    0.000000
      6          1           0       -0.872040    2.727462    0.000000
 ---------------------------------------------------------------------

 SCF Done:  E(RHF) =  -152.107181374     A.U. after   10 cycles
 E2 =    -0.5259033069D+00 EUMP2 =    -0.15263308468125D+03
 CCSD(T)
 CCSD(T)= -0.15266030935D+03

 The electronic state is 1-A'.
 Alpha  occ. eigenvalues --  -20.55446 -20.55129  -1.32743  -1.32425  -0.70150
 Alpha  occ. eigenvalues --   -0.69826  -0.56180  -0.55862  -0.49853  -0.49537
 Alpha virt. eigenvalues --    0.14196   0.14540   0.20271   0.20613   0.54412
 Alpha virt. eigenvalues --    0.54752   0.57312   0.57630   0.67993   0.68384
 Alpha virt. eigenvalues --    0.79026   0.79338   0.80461   0.80800   0.82395

 Mulliken charges:
               1
     1  O   -0.507555
     2  H    0.252597
     3  H    0.254959
     4  O   -0.507321
     5  H    0.251679
     6  H    0.255642
 Sum of Mulliken charges =  -0.00000

 Dipole moment (field-independent basis, Debye):
    X=             -1.6323    Y=             -0.8856    Z=              0.0000  Tot=              1.8570
 Quadrupole moment (field-independent basis, Debye-Ang):
   XX=             -9.2245   YY=              8.3004   ZZ=            -14.7115
   XY=             -4.2483   XZ=              0.0000   YZ=              0.0000

 Normal termination of Gaussian 16 at Sat Aug 27 06:12:17 2022.
