 Gaussian 16, Revision A.03,
 Gaussian 16:  ES64L-G16RevA.03 25-Dec-2016

 ------------------
 #p CCSD(T)/cc-pVTZ
 ------------------

 ----------
 H2O_H2O_98
 ----------
 Symbolic Z-matrix:
 Charge =  0 Multiplicity = 1

                         Standard orientation:
 ---------------------------------------------------------------------
 Center     Atomic      Atomic             Coordinates (Angstroms)
 Number     Number       Type             X           Y           Z
 ---------------------------------------------------------------------
      1          8           0        0.057302   -0.785862    0.000000
      2          1           0       -0.745595   -1.352308    0.000000
      3          1           0        0.853519   -1.361660    0.000000
      4          8           0        0.057302    0.891949    0.000000
      5          1           0       -0.455420    1.730175    0.000000
      6          1           0       -0.569339    0.135095    0.000000
 ---------------------------------------------------------------------

 SCF Done:  E(RHF) =  -151.891315964     A.U. after   12 cycles
 E2 =    -0.5516378652D+00 EUMP2 =    -0.15244295382940D+03
 CCSD(T)
 CCSD(T)= -0.15246692813D+03

 The electronic state is 1-A'.
 Alpha  occ. eigenvalues --  -20.57571 -20.46013  -1.44592  -1.24889  -0.81575
 Alpha  occ. eigenvalues --   -0.74216  -0.57222  -0.49562  -0.41697  -0.41302
 Alpha virt. eigenvalues --    0.12379   0.17464   0.21015   0.27065   0.48416
 Alpha virt. eigenvalues --    0.52625   0.63480   0.70400   0.74238   0.74239
 Alpha virt. eigenvalues --    0.77371   0.78422   0.84793   0.85258   0.89205

 Mulliken charges:
               1
     1  O   -0.252067
     2  H    0.163499
     3  H    0.219282
     4  O   -0.537259
     5  H    0.129934
     6  H    0.276611
 Sum of Mulliken charges =  -0.00000

 Dipole moment (field-independent basis, Debye):
    X=             -1.4535    Y=             -2.9530    Z=              0.0000  Tot=              3.2913
 Quadrupole moment (field-independent basis, Debye-Ang):
   XX=             -9.8325   YY=             -9.2556   ZZ=            -14.4991
   XY=             -1.7800   XZ=              0.0000   YZ=              0.0000

 44928\MP4DQ=-152.4454455\MP4SDQ=-152.4493925\CCSD=-152.448362\CCSD(T)=
 Normal termination of Gaussian 16 at Fri Aug 26 12:44:20 2022.
