 Gaussian 16, Revision A.03,
 Gaussian 16:  ES64L-G16RevA.03 25-Dec-2016

 ------------------
 #p CCSD(T)/cc-pVTZ
 ------------------

 ------------
 H2O_H2O_1660
 ------------
 Symbolic Z-matrix:
 Charge =  0 Multiplicity = 1

                         Standard orientation:
 ---------------------------------------------------------------------
 Center     Atomic      Atomic             Coordinates (Angstroms)
 Number     Number       Type             X           Y           Z
 ---------------------------------------------------------------------
      1          8           0        0.034789   -1.668375    0.000000
      2          1           0       -0.765798   -2.238082    0.000000
      3          1           0        0.833342   -2.240931    0.000000
      4          8           0        0.034789    1.691856    0.000000
      5          1           0        0.323123    2.631201    0.000000
      6          1           0       -0.947295    1.659966    0.000000
 ---------------------------------------------------------------------

 SCF Done:  E(RHF) =  -152.104612111     A.U. after   10 cycles
 E2 =    -0.5267950375D+00 EUMP2 =    -0.15263140714826D+03
 CCSD(T)
 CCSD(T)= -0.15265864044D+03

 The electronic state is 1-A'.
 Alpha  occ. eigenvalues --  -20.54623 -20.54119  -1.31907  -1.31381  -0.69332
 Alpha  occ. eigenvalues --   -0.68785  -0.55535  -0.54312  -0.49021  -0.48466
 Alpha virt. eigenvalues --    0.13979   0.16338   0.20397   0.21878   0.53064
 Alpha virt. eigenvalues --    0.56332   0.57948   0.58605   0.63685   0.77004
 Alpha virt. eigenvalues --    0.78480   0.78696   0.79720   0.81518   0.85220

 Mulliken charges:
               1
     1  O   -0.485783
     2  H    0.239201
     3  H    0.247676
     4  O   -0.485878
     5  H    0.236949
     6  H    0.247834
 Sum of Mulliken charges =  -0.00000

 Dipole moment (field-independent basis, Debye):
    X=             -1.1549    Y=             -0.4388    Z=              0.0000  Tot=              1.2354
 Quadrupole moment (field-independent basis, Debye-Ang):
   XX=             -8.6085   YY=              0.5418   ZZ=            -14.7112
   XY=             -1.2099   XZ=              0.0000   YZ=              0.0000

 Normal termination of Gaussian 16 at Sat Aug 27 06:04:32 2022.
