 Gaussian 16, Revision A.03,
 Gaussian 16:  ES64L-G16RevA.03 25-Dec-2016

 ------------------
 #p CCSD(T)/cc-pVTZ
 ------------------

 -----------
 H2O_H2O_342
 -----------
 Symbolic Z-matrix:
 Charge =  0 Multiplicity = 1

                         Standard orientation:
 ---------------------------------------------------------------------
 Center     Atomic      Atomic             Coordinates (Angstroms)
 Number     Number       Type             X           Y           Z
 ---------------------------------------------------------------------
      1          8           0        0.051367   -0.942093    0.000000
      2          1           0       -0.750782   -1.509598    0.000000
      3          1           0        0.848343   -1.516840    0.000000
      4          8           0        0.051367    1.005334    0.000000
      5          1           0       -0.102831    1.975761    0.000000
      6          1           0       -0.816602    0.544752    0.000000
 ---------------------------------------------------------------------

 SCF Done:  E(RHF) =  -152.044996559     A.U. after   11 cycles
 E2 =    -0.5374033797D+00 EUMP2 =    -0.15258239993869D+03
 CCSD(T)
 CCSD(T)= -0.15260894400D+03

 The electronic state is 1-A'.
 Alpha  occ. eigenvalues --  -20.54223 -20.51228  -1.34717  -1.28125  -0.72123
 Alpha  occ. eigenvalues --   -0.69043  -0.55802  -0.51256  -0.47265  -0.44969
 Alpha virt. eigenvalues --    0.13736   0.18611   0.19713   0.24560   0.51903
 Alpha virt. eigenvalues --    0.56603   0.60073   0.64145   0.72430   0.75878
 Alpha virt. eigenvalues --    0.80264   0.82150   0.84017   0.84137   0.88225

 Mulliken charges:
               1
     1  O   -0.404894
     2  H    0.194928
     3  H    0.224922
     4  O   -0.426613
     5  H    0.167298
     6  H    0.244359
 Sum of Mulliken charges =  -0.00000

 Dipole moment (field-independent basis, Debye):
    X=             -1.4623    Y=             -1.3475    Z=              0.0000  Tot=              1.9884
 Quadrupole moment (field-independent basis, Debye-Ang):
   XX=             -9.5730   YY=             -6.4619   ZZ=            -14.6816
   XY=             -1.2325   XZ=              0.0000   YZ=              0.0000

 Normal termination of Gaussian 16 at Fri Aug 26 15:28:43 2022.
