 Gaussian 16, Revision A.03,
 Gaussian 16:  ES64L-G16RevA.03 25-Dec-2016

 ------------------
 #p CCSD(T)/cc-pVTZ
 ------------------

 ------------
 H2O_H2O_2183
 ------------
 Symbolic Z-matrix:
 Charge =  0 Multiplicity = 1

                         Standard orientation:
 ---------------------------------------------------------------------
 Center     Atomic      Atomic             Coordinates (Angstroms)
 Number     Number       Type             X           Y           Z
 ---------------------------------------------------------------------
      1          8           0        0.028566   -1.952070    0.000000
      2          1           0       -0.771721   -2.522199    0.000000
      3          1           0        0.827420   -2.524205    0.000000
      4          8           0        0.028566    1.967302    0.000000
      5          1           0        0.436572    2.861191    0.000000
      6          1           0       -0.949329    2.063358    0.000000
 ---------------------------------------------------------------------

 SCF Done:  E(RHF) =  -152.105440029     A.U. after   10 cycles
 E2 =    -0.5263164889D+00 EUMP2 =    -0.15263175651810D+03
 CCSD(T)
 CCSD(T)= -0.15265899393D+03

 The electronic state is 1-A'.
 Alpha  occ. eigenvalues --  -20.54738 -20.54497  -1.32021  -1.31775  -0.69438
 Alpha  occ. eigenvalues --   -0.69182  -0.55458  -0.55004  -0.49123  -0.48874
 Alpha virt. eigenvalues --    0.14020   0.15738   0.20501   0.21285   0.53807
 Alpha virt. eigenvalues --    0.55807   0.57851   0.58181   0.62964   0.75028
 Alpha virt. eigenvalues --    0.79378   0.80248   0.80341   0.81114   0.82624

 Mulliken charges:
               1
     1  O   -0.495113
     2  H    0.245310
     3  H    0.250074
     4  O   -0.494967
     5  H    0.244301
     6  H    0.250395
 Sum of Mulliken charges =   0.00000

 Dipole moment (field-independent basis, Debye):
    X=             -0.9637    Y=             -0.2771    Z=              0.0000  Tot=              1.0028
 Quadrupole moment (field-independent basis, Debye-Ang):
   XX=             -8.3427   YY=              2.9824   ZZ=            -14.7102
   XY=             -1.1852   XZ=              0.0000   YZ=              0.0000

 Normal termination of Gaussian 16 at Sat Aug 27 09:05:01 2022.
