 Gaussian 16, Revision A.03,
 Gaussian 16:  ES64L-G16RevA.03 25-Dec-2016

 ------------------
 #p CCSD(T)/cc-pVTZ
 ------------------

 -----------
 H2O_H2O_766
 -----------
 Symbolic Z-matrix:
 Charge =  0 Multiplicity = 1

                         Standard orientation:
 ---------------------------------------------------------------------
 Center     Atomic      Atomic             Coordinates (Angstroms)
 Number     Number       Type             X           Y           Z
 ---------------------------------------------------------------------
      1          8           0        0.049562   -1.171645    0.000000
      2          1           0       -0.752030   -1.739936    0.000000
      3          1           0        0.847102   -1.745610    0.000000
      4          8           0        0.049562    1.228406    0.000000
      5          1           0       -0.041796    2.206752    0.000000
      6          1           0       -0.846276    0.824700    0.000000
 ---------------------------------------------------------------------

 SCF Done:  E(RHF) =  -152.094616792     A.U. after   11 cycles
 E2 =    -0.5300981982D+00 EUMP2 =    -0.15262471499005D+03
 CCSD(T)
 CCSD(T)= -0.15265184165D+03

 The electronic state is 1-A'.
 Alpha  occ. eigenvalues --  -20.54785 -20.52632  -1.32667  -1.29849  -0.70037
 Alpha  occ. eigenvalues --   -0.67968  -0.56332  -0.51761  -0.49792  -0.46799
 Alpha virt. eigenvalues --    0.13771   0.17708   0.19985   0.23933   0.52817
 Alpha virt. eigenvalues --    0.57413   0.58911   0.60618   0.71166   0.74966
 Alpha virt. eigenvalues --    0.78142   0.81814   0.83104   0.84988   0.86819

 Mulliken charges:
               1
     1  O   -0.464274
     2  H    0.226333
     3  H    0.245316
     4  O   -0.463871
     5  H    0.207946
     6  H    0.248550
 Sum of Mulliken charges =  -0.00000

 Dipole moment (field-independent basis, Debye):
    X=             -1.5300    Y=             -1.1344    Z=              0.0000  Tot=              1.9047
 Quadrupole moment (field-independent basis, Debye-Ang):
   XX=             -9.4294   YY=             -4.0808   ZZ=            -14.7238
   XY=             -1.4694   XZ=              0.0000   YZ=              0.0000

 Normal termination of Gaussian 16 at Fri Aug 26 19:47:52 2022.
