 Gaussian 16, Revision A.03,
 Gaussian 16:  ES64L-G16RevA.03 25-Dec-2016

 ------------------
 #p CCSD(T)/cc-pVTZ
 ------------------

 -----------
 H2O_H2O_203
 -----------
 Symbolic Z-matrix:
 Charge =  0 Multiplicity = 1

                         Standard orientation:
 ---------------------------------------------------------------------
 Center     Atomic      Atomic             Coordinates (Angstroms)
 Number     Number       Type             X           Y           Z
 ---------------------------------------------------------------------
      1          8           0        0.011143   -0.908786    0.000000
      2          1           0       -0.789029   -1.479075    0.000000
      3          1           0        0.810112   -1.480761    0.000000
      4          8           0        0.011143    0.910958    0.000000
      5          1           0        0.684683    1.626395    0.000000
      6          1           0       -0.884060    1.316071    0.000000
 ---------------------------------------------------------------------

 SCF Done:  E(RHF) =  -152.005511167     A.U. after   11 cycles
 E2 =    -0.5409569855D+00 EUMP2 =    -0.15254646815214D+03
 CCSD(T)
 CCSD(T)= -0.15257255951D+03

 The electronic state is 1-A'.
 Alpha  occ. eigenvalues --  -20.51355 -20.51292  -1.33449  -1.27649  -0.69293
 Alpha  occ. eigenvalues --   -0.66173  -0.63667  -0.50356  -0.43952  -0.39141
 Alpha virt. eigenvalues --    0.14632   0.18952   0.20232   0.23023   0.50702
 Alpha virt. eigenvalues --    0.58981   0.59180   0.66889   0.68601   0.78917
 Alpha virt. eigenvalues --    0.80014   0.83723   0.84313   0.86429   0.87728

 Mulliken charges:
               1
     1  O   -0.400355
     2  H    0.195493
     3  H    0.204545
     4  O   -0.393135
     5  H    0.180093
     6  H    0.213360
 Sum of Mulliken charges =  -0.00000

 Dipole moment (field-independent basis, Debye):
    X=             -0.3185    Y=             -0.0517    Z=              0.0000  Tot=              0.3226
 Quadrupole moment (field-independent basis, Debye-Ang):
   XX=             -8.3507   YY=             -7.1621   ZZ=            -14.7560
   XY=             -0.1134   XZ=              0.0000   YZ=              0.0000

 Normal termination of Gaussian 16 at Fri Aug 26 13:59:11 2022.
