 Gaussian 16, Revision A.03,
 Gaussian 16:  ES64L-G16RevA.03 25-Dec-2016

 ------------------
 #p CCSD(T)/cc-pVTZ
 ------------------

 ------------
 H2O_H2O_1705
 ------------
 Symbolic Z-matrix:
 Charge =  0 Multiplicity = 1

                         Standard orientation:
 ---------------------------------------------------------------------
 Center     Atomic      Atomic             Coordinates (Angstroms)
 Number     Number       Type             X           Y           Z
 ---------------------------------------------------------------------
      1          8           0        0.018361   -1.704447    0.000000
      2          1           0       -0.781738   -2.274838    0.000000
      3          1           0        0.817403   -2.276319    0.000000
      4          8           0        0.018361    1.710475    0.000000
      5          1           0        0.592653    2.507779    0.000000
      6          1           0       -0.922098    1.995153    0.000000
 ---------------------------------------------------------------------

 SCF Done:  E(RHF) =  -152.103933511     A.U. after   10 cycles
 E2 =    -0.5267538961D+00 EUMP2 =    -0.15263068740713D+03
 CCSD(T)
 CCSD(T)= -0.15265794256D+03

 The electronic state is 1-A'.
 Alpha  occ. eigenvalues --  -20.54323 -20.54200  -1.31614  -1.31466  -0.69038
 Alpha  occ. eigenvalues --   -0.68890  -0.55375  -0.54191  -0.48747  -0.48517
 Alpha virt. eigenvalues --    0.14193   0.16222   0.20553   0.21559   0.52992
 Alpha virt. eigenvalues --    0.57346   0.58077   0.58480   0.62215   0.76286
 Alpha virt. eigenvalues --    0.78780   0.79001   0.80144   0.81464   0.84378

 Mulliken charges:
               1
     1  O   -0.483773
     2  H    0.239841
     3  H    0.244178
     4  O   -0.483645
     5  H    0.239269
     6  H    0.244130
 Sum of Mulliken charges =  -0.00000

 Dipole moment (field-independent basis, Debye):
    X=             -0.6114    Y=             -0.1123    Z=              0.0000  Tot=              0.6217
 Quadrupole moment (field-independent basis, Debye-Ang):
   XX=             -8.0704   YY=              1.2471   ZZ=            -14.7093
   XY=             -0.5558   XZ=              0.0000   YZ=              0.0000

 Normal termination of Gaussian 16 at Sat Aug 27 06:19:14 2022.
