 Gaussian 16, Revision A.03,
 Gaussian 16:  ES64L-G16RevA.03 25-Dec-2016

 ------------------
 #p CCSD(T)/cc-pVTZ
 ------------------

 ------------
 H2O_H2O_2950
 ------------
 Symbolic Z-matrix:
 Charge =  0 Multiplicity = 1

                         Standard orientation:
 ---------------------------------------------------------------------
 Center     Atomic      Atomic             Coordinates (Angstroms)
 Number     Number       Type             X           Y           Z
 ---------------------------------------------------------------------
      1          8           0        0.000000   -0.000000    2.372516
      2          1           0        0.000000    0.799571    2.943648
      3          1           0       -0.000000   -0.799571    2.943648
      4          8           0        0.000000   -0.000000   -2.372516
      5          1           0       -0.000000   -0.799571   -2.943648
      6          1           0        0.000000    0.799571   -2.943648
 ---------------------------------------------------------------------

 SCF Done:  E(RHF) =  -152.105945541     A.U. after   10 cycles
 E2 =    -0.5260597016D+00 EUMP2 =    -0.15263200524297D+03
 CCSD(T)
 CCSD(T)= -0.15265925280D+03

 The electronic state is 1-AG.
 Alpha  occ. eigenvalues --  -20.54845 -20.54845  -1.32138  -1.32136  -0.69549
 Alpha  occ. eigenvalues --   -0.69547  -0.55542  -0.55482  -0.49241  -0.49235
 Alpha virt. eigenvalues --    0.14409   0.15000   0.20618   0.20798   0.54842
 Alpha virt. eigenvalues --    0.55213   0.57774   0.57864   0.66712   0.70786
 Alpha virt. eigenvalues --    0.79590   0.79682   0.81051   0.81143   0.82522

 Mulliken charges:
               1
     1  O   -0.500237
     2  H    0.250118
     3  H    0.250118
     4  O   -0.500237
     5  H    0.250118
     6  H    0.250118
 Sum of Mulliken charges =  -0.00000

 Dipole moment (field-independent basis, Debye):
    X=             -0.0000    Y=              0.0000    Z=              0.0000  Tot=              0.0000
 Quadrupole moment (field-independent basis, Debye-Ang):
   XX=            -14.7097   YY=             -7.8184   ZZ=              6.9008
   XY=              0.0000   XZ=              0.0000   YZ=             -0.0000

 MP4DQ=-152.6411212\MP4SDQ=-152.6441902\CCSD=-152.6435983\CCSD(T)=-152.
 Normal termination of Gaussian 16 at Fri Aug 26 17:44:39 2022.
