 Gaussian 16, Revision A.03,
 Gaussian 16:  ES64L-G16RevA.03 25-Dec-2016

 ------------------
 #p CCSD(T)/cc-pVTZ
 ------------------

 ------------
 H2O_H2O_2469
 ------------
 Symbolic Z-matrix:
 Charge =  0 Multiplicity = 1

                         Standard orientation:
 ---------------------------------------------------------------------
 Center     Atomic      Atomic             Coordinates (Angstroms)
 Number     Number       Type             X           Y           Z
 ---------------------------------------------------------------------
      1          8           0        0.054168   -2.064632    0.000000
      2          1           0       -0.746665   -2.633993    0.000000
      3          1           0        0.852473   -2.637533    0.000000
      4          8           0        0.054168    2.141902    0.000000
      5          1           0       -0.227558    3.083250    0.000000
      6          1           0       -0.744936    1.570116    0.000000
 ---------------------------------------------------------------------

 SCF Done:  E(RHF) =  -152.107558416     A.U. after   10 cycles
 E2 =    -0.5261011374D+00 EUMP2 =    -0.15263365955393D+03
 CCSD(T)
 CCSD(T)= -0.15266085299D+03

 The electronic state is 1-A'.
 Alpha  occ. eigenvalues --  -20.55637 -20.54513  -1.32920  -1.31804  -0.70330
 Alpha  occ. eigenvalues --   -0.69181  -0.56357  -0.55243  -0.50033  -0.48923
 Alpha virt. eigenvalues --    0.13316   0.15730   0.20035   0.21888   0.54053
 Alpha virt. eigenvalues --    0.54628   0.57193   0.58271   0.65888   0.73448
 Alpha virt. eigenvalues --    0.78811   0.79608   0.79974   0.82180   0.82280

 Mulliken charges:
               1
     1  O   -0.505444
     2  H    0.249797
     3  H    0.257046
     4  O   -0.507885
     5  H    0.246825
     6  H    0.259661
 Sum of Mulliken charges =  -0.00000

 Dipole moment (field-independent basis, Debye):
    X=             -1.8367    Y=             -1.4004    Z=              0.0000  Tot=              2.3097
 Quadrupole moment (field-independent basis, Debye-Ang):
   XX=             -9.6487   YY=              0.8148   ZZ=            -14.7142
   XY=             -3.5625   XZ=              0.0000   YZ=              0.0000

 Normal termination of Gaussian 16 at Sat Aug 27 10:43:49 2022.
