 Gaussian 16, Revision A.03,
 Gaussian 16:  ES64L-G16RevA.03 25-Dec-2016

 ------------------
 #p CCSD(T)/cc-pVTZ
 ------------------

 -----------
 H2O_H2O_788
 -----------
 Symbolic Z-matrix:
 Charge =  0 Multiplicity = 1

                         Standard orientation:
 ---------------------------------------------------------------------
 Center     Atomic      Atomic             Coordinates (Angstroms)
 Number     Number       Type             X           Y           Z
 ---------------------------------------------------------------------
      1          8           0        0.042999   -1.194778    0.000000
      2          1           0       -0.758307   -1.763473    0.000000
      3          1           0        0.840827   -1.768341    0.000000
      4          8           0        0.042999    1.233428    0.000000
      5          1           0        0.143769    2.210849    0.000000
      6          1           0       -0.914274    1.011765    0.000000
 ---------------------------------------------------------------------

 SCF Done:  E(RHF) =  -152.094217850     A.U. after   11 cycles
 E2 =    -0.5297111354D+00 EUMP2 =    -0.15262392898527D+03
 CCSD(T)
 CCSD(T)= -0.15265112203D+03

 The electronic state is 1-A'.
 Alpha  occ. eigenvalues --  -20.54185 -20.52863  -1.32007  -1.30046  -0.69356
 Alpha  occ. eigenvalues --   -0.67851  -0.56719  -0.51134  -0.49205  -0.46933
 Alpha virt. eigenvalues --    0.14041   0.17505   0.20197   0.23325   0.53212
 Alpha virt. eigenvalues --    0.57880   0.58186   0.60903   0.70788   0.75660
 Alpha virt. eigenvalues --    0.77838   0.79841   0.83375   0.85564   0.86795

 Mulliken charges:
               1
     1  O   -0.467412
     2  H    0.225870
     3  H    0.243969
     4  O   -0.454613
     5  H    0.208567
     6  H    0.243619
 Sum of Mulliken charges =  -0.00000

 Dipole moment (field-independent basis, Debye):
    X=             -1.3321    Y=             -0.7600    Z=              0.0000  Tot=              1.5336
 Quadrupole moment (field-independent basis, Debye-Ang):
   XX=             -9.0818   YY=             -3.6112   ZZ=            -14.7253
   XY=             -1.0545   XZ=              0.0000   YZ=              0.0000

 Normal termination of Gaussian 16 at Fri Aug 26 19:59:59 2022.
