 Gaussian 16, Revision A.03,
 Gaussian 16:  ES64L-G16RevA.03 25-Dec-2016

 ------------------
 #p CCSD(T)/cc-pVTZ
 ------------------

 ------------
 H2O_H2O_1475
 ------------
 Symbolic Z-matrix:
 Charge =  0 Multiplicity = 1

                         Standard orientation:
 ---------------------------------------------------------------------
 Center     Atomic      Atomic             Coordinates (Angstroms)
 Number     Number       Type             X           Y           Z
 ---------------------------------------------------------------------
      1          8           0        0.000000   -0.000000    1.588058
      2          1           0        0.000000    0.799571    2.159190
      3          1           0       -0.000000   -0.799571    2.159190
      4          8           0        0.000000   -0.000000   -1.588058
      5          1           0       -0.000000   -0.799571   -2.159190
      6          1           0        0.000000    0.799571   -2.159190
 ---------------------------------------------------------------------

 SCF Done:  E(RHF) =  -152.102479219     A.U. after   10 cycles
 E2 =    -0.5270811875D+00 EUMP2 =    -0.15262956040643D+03
 CCSD(T)
 CCSD(T)= -0.15265684336D+03

 The electronic state is 1-AG.
 Alpha  occ. eigenvalues --  -20.54004 -20.54004  -1.31367  -1.31225  -0.68784
 Alpha  occ. eigenvalues --   -0.68673  -0.55454  -0.53494  -0.48542  -0.48216
 Alpha virt. eigenvalues --    0.14351   0.16494   0.20582   0.21690   0.52237
 Alpha virt. eigenvalues --    0.58191   0.58585   0.59184   0.63474   0.76053
 Alpha virt. eigenvalues --    0.78261   0.78282   0.79568   0.82197   0.86031

 Mulliken charges:
               1
     1  O   -0.476491
     2  H    0.238246
     3  H    0.238246
     4  O   -0.476491
     5  H    0.238246
     6  H    0.238246
 Sum of Mulliken charges =  -0.00000

 Dipole moment (field-independent basis, Debye):
    X=             -0.0000    Y=              0.0000    Z=             -0.0000  Tot=              0.0000
 Quadrupole moment (field-independent basis, Debye-Ang):
   XX=            -14.7091   YY=             -7.8820   ZZ=              0.3516
   XY=              0.0000   XZ=              0.0000   YZ=             -0.0000

 2\MP4DQ=-152.6385153\MP4SDQ=-152.6416485\CCSD=-152.6410311\CCSD(T)=-15
 Normal termination of Gaussian 16 at Sat Aug 27 04:58:19 2022.
