 Gaussian 16, Revision A.03,
 Gaussian 16:  ES64L-G16RevA.03 25-Dec-2016

 ------------------
 #p CCSD(T)/cc-pVTZ
 ------------------

 ------------
 H2O_H2O_1627
 ------------
 Symbolic Z-matrix:
 Charge =  0 Multiplicity = 1

                         Standard orientation:
 ---------------------------------------------------------------------
 Center     Atomic      Atomic             Coordinates (Angstroms)
 Number     Number       Type             X           Y           Z
 ---------------------------------------------------------------------
      1          8           0        0.007455   -1.667305    0.000000
      2          1           0       -0.792336   -2.238130    0.000000
      3          1           0        0.806806   -2.238745    0.000000
      4          8           0        0.007455    1.668277    0.000000
      5          1           0        0.725896    2.338612    0.000000
      6          1           0       -0.859646    2.130491    0.000000
 ---------------------------------------------------------------------

 SCF Done:  E(RHF) =  -152.103364869     A.U. after   10 cycles
 E2 =    -0.5268547915D+00 EUMP2 =    -0.15263021966068D+03
 CCSD(T)
 CCSD(T)= -0.15265748731D+03

 The electronic state is 1-A'.
 Alpha  occ. eigenvalues --  -20.54166 -20.54146  -1.31486  -1.31391  -0.68907
 Alpha  occ. eigenvalues --   -0.68828  -0.55368  -0.53938  -0.48642  -0.48412
 Alpha virt. eigenvalues --    0.14287   0.16300   0.20589   0.21565   0.52803
 Alpha virt. eigenvalues --    0.58094   0.58261   0.58530   0.62050   0.76060
 Alpha virt. eigenvalues --    0.78654   0.78818   0.79897   0.81717   0.84961

 Mulliken charges:
               1
     1  O   -0.480853
     2  H    0.239508
     3  H    0.241385
     4  O   -0.480796
     5  H    0.239418
     6  H    0.241337
 Sum of Mulliken charges =  -0.00000

 Dipole moment (field-independent basis, Debye):
    X=             -0.2476    Y=             -0.0182    Z=              0.0000  Tot=              0.2483
 Quadrupole moment (field-independent basis, Debye-Ang):
   XX=             -7.9032   YY=              1.0304   ZZ=            -14.7088
   XY=             -0.2044   XZ=              0.0000   YZ=              0.0000

 8374\MP4DQ=-152.6392054\MP4SDQ=-152.642325\CCSD=-152.641712\CCSD(T)=-1
 Normal termination of Gaussian 16 at Sat Aug 27 05:51:46 2022.
