 Gaussian 16, Revision A.03,
 Gaussian 16:  ES64L-G16RevA.03 25-Dec-2016

 ------------------
 #p CCSD(T)/cc-pVTZ
 ------------------

 ------------
 H2O_H2O_2635
 ------------
 Symbolic Z-matrix:
 Charge =  0 Multiplicity = 1

                         Standard orientation:
 ---------------------------------------------------------------------
 Center     Atomic      Atomic             Coordinates (Angstroms)
 Number     Number       Type             X           Y           Z
 ---------------------------------------------------------------------
      1          8           0        0.034784   -2.186901    0.000000
      2          1           0       -0.765563   -2.756944    0.000000
      3          1           0        0.833577   -2.759120    0.000000
      4          8           0        0.034784    2.210410    0.000000
      5          1           0        0.322723    3.149876    0.000000
      6          1           0       -0.947287    2.178108    0.000000
 ---------------------------------------------------------------------

 SCF Done:  E(RHF) =  -152.106138030     A.U. after   10 cycles
 E2 =    -0.5261034378D+00 EUMP2 =    -0.15263224146729D+03
 CCSD(T)
 CCSD(T)= -0.15265947868D+03

 The electronic state is 1-A'.
 Alpha  occ. eigenvalues --  -20.54990 -20.54700  -1.32280  -1.31986  -0.69692
 Alpha  occ. eigenvalues --   -0.69388  -0.55670  -0.55359  -0.49383  -0.49091
 Alpha virt. eigenvalues --    0.14053   0.15332   0.20448   0.21067   0.54389
 Alpha virt. eigenvalues --    0.55303   0.57677   0.57976   0.65441   0.72509
 Alpha virt. eigenvalues --    0.79441   0.79829   0.80781   0.81319   0.82559

 Mulliken charges:
               1
     1  O   -0.500967
     2  H    0.248383
     3  H    0.252712
     4  O   -0.500554
     5  H    0.247267
     6  H    0.253159
 Sum of Mulliken charges =  -0.00000

 Dipole moment (field-independent basis, Debye):
    X=             -1.1823    Y=             -0.4203    Z=              0.0000  Tot=              1.2548
 Quadrupole moment (field-independent basis, Debye-Ang):
   XX=             -8.5765   YY=              4.4167   ZZ=            -14.7105
   XY=             -1.8119   XZ=              0.0000   YZ=              0.0000

 Normal termination of Gaussian 16 at Fri Aug 26 14:34:37 2022.
