 Gaussian 16, Revision A.03,
 Gaussian 16:  ES64L-G16RevA.03 25-Dec-2016

 ------------------
 #p CCSD(T)/cc-pVTZ
 ------------------

 ------------
 H2O_H2O_4755
 ------------
 Symbolic Z-matrix:
 Charge =  0 Multiplicity = 1

                         Standard orientation:
 ---------------------------------------------------------------------
 Center     Atomic      Atomic             Coordinates (Angstroms)
 Number     Number       Type             X           Y           Z
 ---------------------------------------------------------------------
      1          8           0        0.018360   -3.326539    0.000000
      2          1           0       -0.781482   -3.897291    0.000000
      3          1           0        0.817660   -3.898051    0.000000
      4          8           0        0.018360    3.332584    0.000000
      5          1           0        0.592292    4.130147    0.000000
      6          1           0       -0.922227    3.616838    0.000000
 ---------------------------------------------------------------------

 SCF Done:  E(RHF) =  -152.106951281     A.U. after   10 cycles
 E2 =    -0.5259153267D+00 EUMP2 =    -0.15263286660742D+03
 CCSD(T)
 CCSD(T)= -0.15266009669D+03

 The electronic state is 1-A'.
 Alpha  occ. eigenvalues --  -20.55263 -20.55232  -1.32559  -1.32528  -0.69966
 Alpha  occ. eigenvalues --   -0.69934  -0.55986  -0.55954  -0.49667  -0.49636
 Alpha virt. eigenvalues --    0.14375   0.14409   0.20427   0.20460   0.54602
 Alpha virt. eigenvalues --    0.54636   0.57479   0.57511   0.68237   0.68274
 Alpha virt. eigenvalues --    0.79212   0.79243   0.80653   0.80687   0.82579

 Mulliken charges:
               1
     1  O   -0.506170
     2  H    0.252726
     3  H    0.253443
     4  O   -0.506142
     5  H    0.252553
     6  H    0.253588
 Sum of Mulliken charges =  -0.00000

 Dipole moment (field-independent basis, Debye):
    X=             -0.6313    Y=             -0.1053    Z=              0.0000  Tot=              0.6400
 Quadrupole moment (field-independent basis, Debye-Ang):
   XX=             -8.0136   YY=             14.1007   ZZ=            -14.7109
   XY=             -1.5591   XZ=              0.0000   YZ=              0.0000

 Normal termination of Gaussian 16 at Sat Aug 27 09:09:43 2022.
