 Gaussian 16, Revision A.03,
 Gaussian 16:  ES64L-G16RevA.03 25-Dec-2016

 ------------------
 #p CCSD(T)/cc-pVTZ
 ------------------

 ------------
 H2O_H2O_3218
 ------------
 Symbolic Z-matrix:
 Charge =  0 Multiplicity = 1

                         Standard orientation:
 ---------------------------------------------------------------------
 Center     Atomic      Atomic             Coordinates (Angstroms)
 Number     Number       Type             X           Y           Z
 ---------------------------------------------------------------------
      1          8           0        0.052830   -2.467283    0.000000
      2          1           0       -0.747777   -3.036963    0.000000
      3          1           0        0.851363   -3.039866    0.000000
      4          8           0        0.052830    2.537605    0.000000
      5          1           0       -0.167106    3.495277    0.000000
      6          1           0       -0.781753    2.018975    0.000000
 ---------------------------------------------------------------------

 SCF Done:  E(RHF) =  -152.107308414     A.U. after   10 cycles
 E2 =    -0.5259432016D+00 EUMP2 =    -0.15263325161585D+03
 CCSD(T)
 CCSD(T)= -0.15266046875D+03

 The electronic state is 1-A'.
 Alpha  occ. eigenvalues --  -20.55534 -20.54857  -1.32830  -1.32152  -0.70237
 Alpha  occ. eigenvalues --   -0.69543  -0.56270  -0.55590  -0.49940  -0.49266
 Alpha virt. eigenvalues --    0.13805   0.15039   0.20152   0.21038   0.54249
 Alpha virt. eigenvalues --    0.54950   0.57240   0.57845   0.67114   0.69770
 Alpha virt. eigenvalues --    0.78943   0.79600   0.80240   0.80810   0.82767

 Mulliken charges:
               1
     1  O   -0.508021
     2  H    0.251799
     3  H    0.256368
     4  O   -0.507619
     5  H    0.249701
     6  H    0.257771
 Sum of Mulliken charges =   0.00000

 Dipole moment (field-independent basis, Debye):
    X=             -1.8064    Y=             -1.2455    Z=              0.0000  Tot=              2.1941
 Quadrupole moment (field-independent basis, Debye-Ang):
   XX=             -9.5589   YY=              3.4722   ZZ=            -14.7124
   XY=             -4.0700   XZ=              0.0000   YZ=              0.0000

 Normal termination of Gaussian 16 at Fri Aug 26 20:27:44 2022.
