 Gaussian 16, Revision A.03,
 Gaussian 16:  ES64L-G16RevA.03 25-Dec-2016

 ------------------
 #p CCSD(T)/cc-pVTZ
 ------------------

 ------------
 H2O_H2O_4662
 ------------
 Symbolic Z-matrix:
 Charge =  0 Multiplicity = 1

                         Standard orientation:
 ---------------------------------------------------------------------
 Center     Atomic      Atomic             Coordinates (Angstroms)
 Number     Number       Type             X           Y           Z
 ---------------------------------------------------------------------
      1          8           0        0.040403   -3.258515    0.000000
      2          1           0       -0.759774   -3.828798    0.000000
      3          1           0        0.839367   -3.830495    0.000000
      4          8           0        0.040403    3.291885    0.000000
      5          1           0        0.202963    4.260947    0.000000
      6          1           0       -0.929002    3.131383    0.000000
 ---------------------------------------------------------------------

 SCF Done:  E(RHF) =  -152.107115716     A.U. after   10 cycles
 E2 =    -0.5259026294D+00 EUMP2 =    -0.15263301834526D+03
 CCSD(T)
 CCSD(T)= -0.15266024483D+03

 The electronic state is 1-A'.
 Alpha  occ. eigenvalues --  -20.55386 -20.55207  -1.32684  -1.32504  -0.70090
 Alpha  occ. eigenvalues --   -0.69907  -0.56118  -0.55938  -0.49793  -0.49614
 Alpha virt. eigenvalues --    0.14265   0.14446   0.20325   0.20514   0.54475
 Alpha virt. eigenvalues --    0.54667   0.57368   0.57547   0.68092   0.68279
 Alpha virt. eigenvalues --    0.79086   0.79263   0.80523   0.80717   0.82449

 Mulliken charges:
               1
     1  O   -0.507151
     2  H    0.252753
     3  H    0.254398
     4  O   -0.507022
     5  H    0.252206
     6  H    0.254816
 Sum of Mulliken charges =  -0.00000

 Dipole moment (field-independent basis, Debye):
    X=             -1.3891    Y=             -0.5820    Z=              0.0000  Tot=              1.5061
 Quadrupole moment (field-independent basis, Debye-Ang):
   XX=             -8.8299   YY=             11.3226   ZZ=            -14.7113
   XY=             -3.7045   XZ=              0.0000   YZ=              0.0000

 Normal termination of Gaussian 16 at Sat Aug 27 08:37:02 2022.
