 Gaussian 16, Revision A.03,
 Gaussian 16:  ES64L-G16RevA.03 25-Dec-2016

 ------------------
 #p CCSD(T)/cc-pVTZ
 ------------------

 ------------
 H2O_H2O_2303
 ------------
 Symbolic Z-matrix:
 Charge =  0 Multiplicity = 1

                         Standard orientation:
 ---------------------------------------------------------------------
 Center     Atomic      Atomic             Coordinates (Angstroms)
 Number     Number       Type             X           Y           Z
 ---------------------------------------------------------------------
      1          8           0        0.011143   -2.025636    0.000000
      2          1           0       -0.788698   -2.596390    0.000000
      3          1           0        0.810443   -2.597146    0.000000
      4          8           0        0.011143    2.027820    0.000000
      5          1           0        0.684267    2.743649    0.000000
      6          1           0       -0.884296    2.432413    0.000000
 ---------------------------------------------------------------------

 SCF Done:  E(RHF) =  -152.105233385     A.U. after   10 cycles
 E2 =    -0.5262635992D+00 EUMP2 =    -0.15263149698389D+03
 CCSD(T)
 CCSD(T)= -0.15265874562D+03

 The electronic state is 1-A'.
 Alpha  occ. eigenvalues --  -20.54614 -20.54582  -1.31899  -1.31865  -0.69316
 Alpha  occ. eigenvalues --   -0.69280  -0.55371  -0.55045  -0.49006  -0.48953
 Alpha virt. eigenvalues --    0.14211   0.15563   0.20622   0.21092   0.54399
 Alpha virt. eigenvalues --    0.56048   0.57883   0.58128   0.62772   0.74383
 Alpha virt. eigenvalues --    0.79550   0.80217   0.80858   0.81328   0.81938

 Mulliken charges:
               1
     1  O   -0.494987
     2  H    0.246654
     3  H    0.248359
     4  O   -0.494916
     5  H    0.246417
     6  H    0.248473
 Sum of Mulliken charges =  -0.00000

 Dipole moment (field-independent basis, Debye):
    X=             -0.3769    Y=             -0.0395    Z=              0.0000  Tot=              0.3790
 Quadrupole moment (field-independent basis, Debye-Ang):
   XX=             -7.9112   YY=              3.9976   ZZ=            -14.7095
   XY=             -0.4419   XZ=              0.0000   YZ=              0.0000

 Normal termination of Gaussian 16 at Sat Aug 27 09:45:26 2022.
