 Gaussian 16, Revision A.03,
 Gaussian 16:  ES64L-G16RevA.03 25-Dec-2016

 ------------------
 #p CCSD(T)/cc-pVTZ
 ------------------

 ------------
 H2O_H2O_4364
 ------------
 Symbolic Z-matrix:
 Charge =  0 Multiplicity = 1

                         Standard orientation:
 ---------------------------------------------------------------------
 Center     Atomic      Atomic             Coordinates (Angstroms)
 Number     Number       Type             X           Y           Z
 ---------------------------------------------------------------------
      1          8           0        0.045339   -3.092878    0.000000
      2          1           0       -0.754947   -3.663008    0.000000
      3          1           0        0.844194   -3.665011    0.000000
      4          8           0        0.045339    3.137454    0.000000
      5          1           0        0.080207    4.119437    0.000000
      6          1           0       -0.894877    2.851972    0.000000
 ---------------------------------------------------------------------

 SCF Done:  E(RHF) =  -152.107149155     A.U. after   10 cycles
 E2 =    -0.5259038747D+00 EUMP2 =    -0.15263305302937D+03
 CCSD(T)
 CCSD(T)= -0.15266027853D+03

 The electronic state is 1-A'.
 Alpha  occ. eigenvalues --  -20.55421 -20.55155  -1.32718  -1.32451  -0.70125
 Alpha  occ. eigenvalues --   -0.69853  -0.56154  -0.55886  -0.49828  -0.49562
 Alpha virt. eigenvalues --    0.14226   0.14507   0.20294   0.20578   0.54439
 Alpha virt. eigenvalues --    0.54724   0.57335   0.57603   0.68039   0.68344
 Alpha virt. eigenvalues --    0.79052   0.79314   0.80488   0.80775   0.82416

 Mulliken charges:
               1
     1  O   -0.507359
     2  H    0.252618
     3  H    0.254741
     4  O   -0.507163
     5  H    0.251837
     6  H    0.255325
 Sum of Mulliken charges =  -0.00000

 Dipole moment (field-independent basis, Debye):
    X=             -1.5578    Y=             -0.7789    Z=              0.0000  Tot=              1.7416
 Quadrupole moment (field-independent basis, Debye-Ang):
   XX=             -9.0968   YY=              9.2584   ZZ=            -14.7114
   XY=             -4.0697   XZ=              0.0000   YZ=              0.0000

 Normal termination of Gaussian 16 at Sat Aug 27 06:53:52 2022.
