 Gaussian 16, Revision A.03,
 Gaussian 16:  ES64L-G16RevA.03 25-Dec-2016

 ------------------
 #p CCSD(T)/cc-pVTZ
 ------------------

 -----------
 H2O_H2O_254
 -----------
 Symbolic Z-matrix:
 Charge =  0 Multiplicity = 1

                         Standard orientation:
 ---------------------------------------------------------------------
 Center     Atomic      Atomic             Coordinates (Angstroms)
 Number     Number       Type             X           Y           Z
 ---------------------------------------------------------------------
      1          8           0        0.014785   -0.934465    0.000000
      2          1           0       -0.785562   -1.504510    0.000000
      3          1           0        0.813579   -1.506683    0.000000
      4          8           0        0.014785    0.938317    0.000000
      5          1           0        0.640322    1.696083    0.000000
      6          1           0       -0.904893    1.284294    0.000000
 ---------------------------------------------------------------------

 SCF Done:  E(RHF) =  -152.022052334     A.U. after   11 cycles
 E2 =    -0.5389256199D+00 EUMP2 =    -0.15256097795442D+03
 CCSD(T)
 CCSD(T)= -0.15258734430D+03

 The electronic state is 1-A'.
 Alpha  occ. eigenvalues --  -20.51549 -20.51434  -1.32945  -1.27912  -0.69104
 Alpha  occ. eigenvalues --   -0.66343  -0.62621  -0.49962  -0.44264  -0.40743
 Alpha virt. eigenvalues --    0.14625   0.18732   0.20300   0.23027   0.50910
 Alpha virt. eigenvalues --    0.58871   0.59111   0.66493   0.69038   0.78586
 Alpha virt. eigenvalues --    0.79588   0.83465   0.84265   0.86474   0.87712

 Mulliken charges:
               1
     1  O   -0.412988
     2  H    0.200692
     3  H    0.211548
     4  O   -0.401337
     5  H    0.181936
     6  H    0.220150
 Sum of Mulliken charges =   0.00000

 Dipole moment (field-independent basis, Debye):
    X=             -0.4240    Y=             -0.0877    Z=              0.0000  Tot=              0.4330
 Quadrupole moment (field-independent basis, Debye-Ang):
   XX=             -8.3536   YY=             -6.7090   ZZ=            -14.7518
   XY=             -0.1465   XZ=              0.0000   YZ=              0.0000

 Normal termination of Gaussian 16 at Fri Aug 26 14:33:43 2022.
