 Gaussian 16, Revision A.03,
 Gaussian 16:  ES64L-G16RevA.03 25-Dec-2016

 ------------------
 #p CCSD(T)/cc-pVTZ
 ------------------

 ------------
 H2O_H2O_3643
 ------------
 Symbolic Z-matrix:
 Charge =  0 Multiplicity = 1

                         Standard orientation:
 ---------------------------------------------------------------------
 Center     Atomic      Atomic             Coordinates (Angstroms)
 Number     Number       Type             X           Y           Z
 ---------------------------------------------------------------------
      1          8           0        0.052824   -2.693306    0.000000
      2          1           0       -0.747696   -3.263106    0.000000
      3          1           0        0.851443   -3.265768    0.000000
      4          8           0        0.052824    2.763644    0.000000
      5          1           0       -0.167256    3.721282    0.000000
      6          1           0       -0.781680    2.244887    0.000000
 ---------------------------------------------------------------------

 SCF Done:  E(RHF) =  -152.107325266     A.U. after   10 cycles
 E2 =    -0.5259102163D+00 EUMP2 =    -0.15263323548190D+03
 CCSD(T)
 CCSD(T)= -0.15266045548D+03

 The electronic state is 1-A'.
 Alpha  occ. eigenvalues --  -20.55542 -20.54984  -1.32840  -1.32280  -0.70247
 Alpha  occ. eigenvalues --   -0.69675  -0.56283  -0.55720  -0.49951  -0.49393
 Alpha virt. eigenvalues --    0.13989   0.14783   0.20175   0.20834   0.54295
 Alpha virt. eigenvalues --    0.54890   0.57226   0.57767   0.67585   0.68860
 Alpha virt. eigenvalues --    0.78931   0.79476   0.80345   0.80813   0.82537

 Mulliken charges:
               1
     1  O   -0.508397
     2  H    0.252428
     3  H    0.256000
     4  O   -0.507959
     5  H    0.250755
     6  H    0.257173
 Sum of Mulliken charges =  -0.00000

 Dipole moment (field-independent basis, Debye):
    X=             -1.8107    Y=             -1.2376    Z=              0.0000  Tot=              2.1932
 Quadrupole moment (field-independent basis, Debye-Ang):
   XX=             -9.5589   YY=              4.7288   ZZ=            -14.7121
   XY=             -4.4747   XZ=              0.0000   YZ=              0.0000

 Normal termination of Gaussian 16 at Sat Aug 27 02:09:39 2022.
