 Gaussian 16, Revision A.03,
 Gaussian 16:  ES64L-G16RevA.03 25-Dec-2016

 ------------------
 #p CCSD(T)/cc-pVTZ
 ------------------

 ------------
 H2O_H2O_3497
 ------------
 Symbolic Z-matrix:
 Charge =  0 Multiplicity = 1

                         Standard orientation:
 ---------------------------------------------------------------------
 Center     Atomic      Atomic             Coordinates (Angstroms)
 Number     Number       Type             X           Y           Z
 ---------------------------------------------------------------------
      1          8           0        0.056716   -2.597906    0.000000
      2          1           0       -0.743905   -3.167565    0.000000
      3          1           0        0.855234   -3.170509    0.000000
      4          8           0        0.056716    2.697014    0.000000
      5          1           0       -0.403567    3.565142    0.000000
      6          1           0       -0.615216    1.980067    0.000000
 ---------------------------------------------------------------------

 SCF Done:  E(RHF) =  -152.107740180     A.U. after   10 cycles
 E2 =    -0.5258904215D+00 EUMP2 =    -0.15263363060102D+03
 CCSD(T)
 CCSD(T)= -0.15266083965D+03

 The electronic state is 1-A'.
 Alpha  occ. eigenvalues --  -20.55758 -20.54913  -1.33057  -1.32212  -0.70462
 Alpha  occ. eigenvalues --   -0.69604  -0.56518  -0.55665  -0.50170  -0.49329
 Alpha virt. eigenvalues --    0.13684   0.14949   0.20015   0.21025   0.54068
 Alpha virt. eigenvalues --    0.54898   0.57045   0.57814   0.67140   0.69143
 Alpha virt. eigenvalues --    0.78715   0.79534   0.80064   0.80484   0.82714

 Mulliken charges:
               1
     1  O   -0.510612
     2  H    0.253370
     3  H    0.257374
     4  O   -0.510083
     5  H    0.250854
     6  H    0.259097
 Sum of Mulliken charges =  -0.00000

 Dipole moment (field-independent basis, Debye):
    X=             -1.9429    Y=             -1.7496    Z=              0.0000  Tot=              2.6146
 Quadrupole moment (field-independent basis, Debye-Ang):
   XX=             -9.8268   YY=              1.8435   ZZ=            -14.7132
   XY=             -5.1606   XZ=              0.0000   YZ=              0.0000

 Normal termination of Gaussian 16 at Fri Aug 26 22:49:37 2022.
