 Gaussian 16, Revision A.03,
 Gaussian 16:  ES64L-G16RevA.03 25-Dec-2016

 ------------------
 #p CCSD(T)/cc-pVTZ
 ------------------

 -----------
 H2O_H2O_654
 -----------
 Symbolic Z-matrix:
 Charge =  0 Multiplicity = 1

                         Standard orientation:
 ---------------------------------------------------------------------
 Center     Atomic      Atomic             Coordinates (Angstroms)
 Number     Number       Type             X           Y           Z
 ---------------------------------------------------------------------
      1          8           0        0.014784   -1.147196    0.000000
      2          1           0       -0.785419   -1.717442    0.000000
      3          1           0        0.813722   -1.719213    0.000000
      4          8           0        0.014784    1.151055    0.000000
      5          1           0        0.640131    1.908979    0.000000
      6          1           0       -0.904981    1.496801    0.000000
 ---------------------------------------------------------------------

 SCF Done:  E(RHF) =  -152.083033103     A.U. after   11 cycles
 E2 =    -0.5307748977D+00 EUMP2 =    -0.15261380800060D+03
 CCSD(T)
 CCSD(T)= -0.15264101934D+03

 The electronic state is 1-A'.
 Alpha  occ. eigenvalues --  -20.52734 -20.52615  -1.31177  -1.29614  -0.68315
 Alpha  occ. eigenvalues --   -0.67305  -0.58118  -0.48492  -0.48193  -0.46262
 Alpha virt. eigenvalues --    0.14536   0.17802   0.20546   0.22600   0.50642
 Alpha virt. eigenvalues --    0.58911   0.58989   0.64176   0.71722   0.76795
 Alpha virt. eigenvalues --    0.77512   0.80971   0.84199   0.86576   0.86910

 Mulliken charges:
               1
     1  O   -0.453777
     2  H    0.222592
     3  H    0.230190
     4  O   -0.446952
     5  H    0.216343
     6  H    0.231604
 Sum of Mulliken charges =  -0.00000

 Dipole moment (field-independent basis, Debye):
    X=             -0.4516    Y=             -0.0764    Z=              0.0000  Tot=              0.4580
 Quadrupole moment (field-independent basis, Debye-Ang):
   XX=             -8.1641   YY=             -3.9397   ZZ=            -14.7352
   XY=             -0.1853   XZ=              0.0000   YZ=              0.0000

 Normal termination of Gaussian 16 at Fri Aug 26 18:43:23 2022.
