 Gaussian 16, Revision A.03,
 Gaussian 16:  ES64L-G16RevA.03 25-Dec-2016

 ------------------
 #p CCSD(T)/cc-pVTZ
 ------------------

 ------------
 H2O_H2O_1858
 ------------
 Symbolic Z-matrix:
 Charge =  0 Multiplicity = 1

                         Standard orientation:
 ---------------------------------------------------------------------
 Center     Atomic      Atomic             Coordinates (Angstroms)
 Number     Number       Type             X           Y           Z
 ---------------------------------------------------------------------
      1          8           0        0.028567   -1.779227    0.000000
      2          1           0       -0.771789   -2.349258    0.000000
      3          1           0        0.827351   -2.351458    0.000000
      4          8           0        0.028567    1.794452    0.000000
      5          1           0        0.436681    2.688292    0.000000
      6          1           0       -0.949317    1.890626    0.000000
 ---------------------------------------------------------------------

 SCF Done:  E(RHF) =  -152.104814560     A.U. after   10 cycles
 E2 =    -0.5265773773D+00 EUMP2 =    -0.15263139193678D+03
 CCSD(T)
 CCSD(T)= -0.15265862971D+03

 The electronic state is 1-A'.
 Alpha  occ. eigenvalues --  -20.54586 -20.54295  -1.31865  -1.31565  -0.69288
 Alpha  occ. eigenvalues --   -0.68974  -0.55427  -0.54584  -0.48974  -0.48652
 Alpha virt. eigenvalues --    0.14032   0.16084   0.20483   0.21547   0.53190
 Alpha virt. eigenvalues --    0.56259   0.57961   0.58397   0.62553   0.76285
 Alpha virt. eigenvalues --    0.78988   0.79283   0.80569   0.81007   0.83673

 Mulliken charges:
               1
     1  O   -0.488900
     2  H    0.241716
     3  H    0.247715
     4  O   -0.489049
     5  H    0.240516
     6  H    0.248003
 Sum of Mulliken charges =  -0.00000

 Dipole moment (field-independent basis, Debye):
    X=             -0.9556    Y=             -0.2816    Z=              0.0000  Tot=              0.9963
 Quadrupole moment (field-independent basis, Debye-Ang):
   XX=             -8.3557   YY=              1.6322   ZZ=            -14.7101
   XY=             -1.0209   XZ=              0.0000   YZ=              0.0000

 Normal termination of Gaussian 16 at Sat Aug 27 07:12:34 2022.
