 Gaussian 16, Revision A.03,
 Gaussian 16:  ES64L-G16RevA.03 25-Dec-2016

 ------------------
 #p CCSD(T)/cc-pVTZ
 ------------------

 ------------
 H2O_H2O_4533
 ------------
 Symbolic Z-matrix:
 Charge =  0 Multiplicity = 1

                         Standard orientation:
 ---------------------------------------------------------------------
 Center     Atomic      Atomic             Coordinates (Angstroms)
 Number     Number       Type             X           Y           Z
 ---------------------------------------------------------------------
      1          8           0        0.028562   -3.201871    0.000000
      2          1           0       -0.771446   -3.772390    0.000000
      3          1           0        0.827696   -3.773615    0.000000
      4          8           0        0.028562    3.217131    0.000000
      5          1           0        0.436131    4.111219    0.000000
      6          1           0       -0.949380    3.312709    0.000000
 ---------------------------------------------------------------------

 SCF Done:  E(RHF) =  -152.106957076     A.U. after   10 cycles
 E2 =    -0.5259174515D+00 EUMP2 =    -0.15263287452716D+03
 CCSD(T)
 CCSD(T)= -0.15266010433D+03

 The electronic state is 1-A'.
 Alpha  occ. eigenvalues --  -20.55281 -20.55196  -1.32578  -1.32492  -0.69985
 Alpha  occ. eigenvalues --   -0.69897  -0.56004  -0.55919  -0.49686  -0.49600
 Alpha virt. eigenvalues --    0.14356   0.14446   0.20409   0.20499   0.54583
 Alpha virt. eigenvalues --    0.54676   0.57461   0.57547   0.68214   0.68313
 Alpha virt. eigenvalues --    0.79193   0.79278   0.80634   0.80727   0.82561

 Mulliken charges:
               1
     1  O   -0.506210
     2  H    0.252486
     3  H    0.253724
     4  O   -0.506134
     5  H    0.252152
     6  H    0.253982
 Sum of Mulliken charges =  -0.00000

 Dipole moment (field-independent basis, Debye):
    X=             -0.9816    Y=             -0.2662    Z=              0.0000  Tot=              1.0171
 Quadrupole moment (field-independent basis, Debye-Ang):
   XX=             -8.3159   YY=             12.4200   ZZ=            -14.7109
   XY=             -2.3915   XZ=              0.0000   YZ=              0.0000

 Normal termination of Gaussian 16 at Sat Aug 27 07:51:51 2022.
