 Gaussian 16, Revision A.03,
 Gaussian 16:  ES64L-G16RevA.03 25-Dec-2016

 ------------------
 #p CCSD(T)/cc-pVTZ
 ------------------

 ------------
 H2O_H2O_2508
 ------------
 Symbolic Z-matrix:
 Charge =  0 Multiplicity = 1

                         Standard orientation:
 ---------------------------------------------------------------------
 Center     Atomic      Atomic             Coordinates (Angstroms)
 Number     Number       Type             X           Y           Z
 ---------------------------------------------------------------------
      1          8           0        0.028565   -2.124914    0.000000
      2          1           0       -0.771664   -2.695123    0.000000
      3          1           0        0.827477   -2.696967    0.000000
      4          8           0        0.028565    2.140151    0.000000
      5          1           0        0.436480    3.034083    0.000000
      6          1           0       -0.949340    2.236108    0.000000
 ---------------------------------------------------------------------

 SCF Done:  E(RHF) =  -152.105827266     A.U. after   10 cycles
 E2 =    -0.5261563513D+00 EUMP2 =    -0.15263198361776D+03
 CCSD(T)
 CCSD(T)= -0.15265922485D+03

 The electronic state is 1-A'.
 Alpha  occ. eigenvalues --  -20.54857 -20.54657  -1.32144  -1.31942  -0.69558
 Alpha  occ. eigenvalues --   -0.69347  -0.55539  -0.55273  -0.49246  -0.49044
 Alpha virt. eigenvalues --    0.14106   0.15416   0.20513   0.21075   0.54367
 Alpha virt. eigenvalues --    0.55499   0.57767   0.58024   0.64579   0.73251
 Alpha virt. eigenvalues --    0.79510   0.79940   0.80902   0.81171   0.82368

 Mulliken charges:
               1
     1  O   -0.498962
     2  H    0.247612
     3  H    0.251459
     4  O   -0.498609
     5  H    0.246759
     6  H    0.251741
 Sum of Mulliken charges =  -0.00000

 Dipole moment (field-independent basis, Debye):
    X=             -0.9693    Y=             -0.2733    Z=              0.0000  Tot=              1.0071
 Quadrupole moment (field-independent basis, Debye-Ang):
   XX=             -8.3342   YY=              4.3083   ZZ=            -14.7102
   XY=             -1.3505   XZ=              0.0000   YZ=              0.0000

 Normal termination of Gaussian 16 at Fri Aug 26 13:07:11 2022.
