 Gaussian 16, Revision A.03,
 Gaussian 16:  ES64L-G16RevA.03 25-Dec-2016

 ------------------
 #p CCSD(T)/cc-pVTZ
 ------------------

 ------------
 H2O_H2O_2726
 ------------
 Symbolic Z-matrix:
 Charge =  0 Multiplicity = 1

                         Standard orientation:
 ---------------------------------------------------------------------
 Center     Atomic      Atomic             Coordinates (Angstroms)
 Number     Number       Type             X           Y           Z
 ---------------------------------------------------------------------
      1          8           0        0.003735   -2.252721    0.000000
      2          1           0       -0.795917   -2.823739    0.000000
      3          1           0        0.803225   -2.823967    0.000000
      4          8           0        0.003735    2.252964    0.000000
      5          1           0        0.764330    2.875059    0.000000
      6          1           0       -0.831404    2.770698    0.000000
 ---------------------------------------------------------------------

 SCF Done:  E(RHF) =  -152.105723449     A.U. after   10 cycles
 E2 =    -0.5261078766D+00 EUMP2 =    -0.15263183132532D+03
 CCSD(T)
 CCSD(T)= -0.15265908083D+03

 The electronic state is 1-A'.
 Alpha  occ. eigenvalues --  -20.54768 -20.54765  -1.32059  -1.32055  -0.69472
 Alpha  occ. eigenvalues --   -0.69467  -0.55474  -0.55362  -0.49163  -0.49150
 Alpha virt. eigenvalues --    0.14349   0.15171   0.20630   0.20881   0.54786
 Alpha virt. eigenvalues --    0.55428   0.57813   0.57943   0.65568   0.71970
 Alpha virt. eigenvalues --    0.79620   0.79811   0.81178   0.81184   0.82223

 Mulliken charges:
               1
     1  O   -0.498825
     2  H    0.249196
     3  H    0.249629
     4  O   -0.498817
     5  H    0.249142
     6  H    0.249674
 Sum of Mulliken charges =  -0.00000

 Dipole moment (field-independent basis, Debye):
    X=             -0.1271    Y=             -0.0043    Z=              0.0000  Tot=              0.1272
 Quadrupole moment (field-independent basis, Debye-Ang):
   XX=             -7.8315   YY=              5.9163   ZZ=            -14.7095
   XY=             -0.1741   XZ=              0.0000   YZ=              0.0000

 Normal termination of Gaussian 16 at Fri Aug 26 15:30:30 2022.
