 Gaussian 16, Revision A.03,
 Gaussian 16:  ES64L-G16RevA.03 25-Dec-2016

 ------------------
 #p CCSD(T)/cc-pVTZ
 ------------------

 ------------
 H2O_H2O_1141
 ------------
 Symbolic Z-matrix:
 Charge =  0 Multiplicity = 1

                         Standard orientation:
 ---------------------------------------------------------------------
 Center     Atomic      Atomic             Coordinates (Angstroms)
 Number     Number       Type             X           Y           Z
 ---------------------------------------------------------------------
      1          8           0        0.049548   -1.371057    0.000000
      2          1           0       -0.751757   -1.939754    0.000000
      3          1           0        0.847378   -1.944619    0.000000
      4          8           0        0.049548    1.427869    0.000000
      5          1           0       -0.042305    2.406168    0.000000
      6          1           0       -0.846086    1.023709    0.000000
 ---------------------------------------------------------------------

 SCF Done:  E(RHF) =  -152.103752503     A.U. after   10 cycles
 E2 =    -0.5279502182D+00 EUMP2 =    -0.15263170272092D+03
 CCSD(T)
 CCSD(T)= -0.15265888673D+03

 The electronic state is 1-A'.
 Alpha  occ. eigenvalues --  -20.55130 -20.53350  -1.32522  -1.30599  -0.69941
 Alpha  occ. eigenvalues --   -0.68118  -0.56110  -0.53481  -0.49651  -0.47666
 Alpha virt. eigenvalues --    0.13706   0.17154   0.20025   0.23441   0.53626
 Alpha virt. eigenvalues --    0.57482   0.57755   0.58355   0.69338   0.75839
 Alpha virt. eigenvalues --    0.76001   0.77286   0.81367   0.82697   0.85077

 Mulliken charges:
               1
     1  O   -0.478978
     2  H    0.234490
     3  H    0.250870
     4  O   -0.482139
     5  H    0.225118
     6  H    0.250639
 Sum of Mulliken charges =  -0.00000

 Dipole moment (field-independent basis, Debye):
    X=             -1.5917    Y=             -1.1064    Z=              0.0000  Tot=              1.9384
 Quadrupole moment (field-independent basis, Debye-Ang):
   XX=             -9.3957   YY=             -2.5361   ZZ=            -14.7213
   XY=             -1.7870   XZ=              0.0000   YZ=              0.0000

 Normal termination of Gaussian 16 at Sat Aug 27 02:26:40 2022.
