 Gaussian 16, Revision A.03,
 Gaussian 16:  ES64L-G16RevA.03 25-Dec-2016

 ------------------
 #p CCSD(T)/cc-pVTZ
 ------------------

 ------------
 H2O_H2O_4812
 ------------
 Symbolic Z-matrix:
 Charge =  0 Multiplicity = 1

                         Standard orientation:
 ---------------------------------------------------------------------
 Center     Atomic      Atomic             Coordinates (Angstroms)
 Number     Number       Type             X           Y           Z
 ---------------------------------------------------------------------
      1          8           0        0.040402   -3.338289    0.000000
      2          1           0       -0.759760   -3.908592    0.000000
      3          1           0        0.839381   -3.910249    0.000000
      4          8           0        0.040402    3.371661    0.000000
      5          1           0        0.202938    4.340728    0.000000
      6          1           0       -0.928998    3.211135    0.000000
 ---------------------------------------------------------------------

 SCF Done:  E(RHF) =  -152.107141513     A.U. after   10 cycles
 E2 =    -0.5258988238D+00 EUMP2 =    -0.15263304033684D+03
 CCSD(T)
 CCSD(T)= -0.15266026637D+03

 The electronic state is 1-A'.
 Alpha  occ. eigenvalues --  -20.55399 -20.55229  -1.32696  -1.32525  -0.70103
 Alpha  occ. eigenvalues --   -0.69929  -0.56131  -0.55960  -0.49806  -0.49635
 Alpha virt. eigenvalues --    0.14256   0.14427   0.20317   0.20495   0.54462
 Alpha virt. eigenvalues --    0.54644   0.57357   0.57528   0.68078   0.68252
 Alpha virt. eigenvalues --    0.79073   0.79242   0.80510   0.80694   0.82435

 Mulliken charges:
               1
     1  O   -0.507301
     2  H    0.252884
     3  H    0.254417
     4  O   -0.507185
     5  H    0.252370
     6  H    0.254815
 Sum of Mulliken charges =  -0.00000

 Dipole moment (field-independent basis, Debye):
    X=             -1.3895    Y=             -0.5817    Z=              0.0000  Tot=              1.5063
 Quadrupole moment (field-independent basis, Debye-Ang):
   XX=             -8.8297   YY=             11.8665   ZZ=            -14.7113
   XY=             -3.8146   XZ=              0.0000   YZ=              0.0000

 Normal termination of Gaussian 16 at Sat Aug 27 09:28:11 2022.
