 Gaussian 16, Revision A.03,
 Gaussian 16:  ES64L-G16RevA.03 25-Dec-2016

 ------------------
 #p CCSD(T)/cc-pVTZ
 ------------------

 ------------
 H2O_H2O_3350
 ------------
 Symbolic Z-matrix:
 Charge =  0 Multiplicity = 1

                         Standard orientation:
 ---------------------------------------------------------------------
 Center     Atomic      Atomic             Coordinates (Angstroms)
 Number     Number       Type             X           Y           Z
 ---------------------------------------------------------------------
      1          8           0        0.000000   -0.000000    2.585251
      2          1           0        0.000000    0.799571    3.156383
      3          1           0       -0.000000   -0.799571    3.156383
      4          8           0        0.000000   -0.000000   -2.585251
      5          1           0       -0.000000   -0.799571   -3.156383
      6          1           0        0.000000    0.799571   -3.156383
 ---------------------------------------------------------------------

 SCF Done:  E(RHF) =  -152.106274512     A.U. after   10 cycles
 E2 =    -0.5260038090D+00 EUMP2 =    -0.15263227832051D+03
 CCSD(T)
 CCSD(T)= -0.15265952103D+03

 The electronic state is 1-AG.
 Alpha  occ. eigenvalues --  -20.54965 -20.54965  -1.32259  -1.32259  -0.69669
 Alpha  occ. eigenvalues --   -0.69668  -0.55660  -0.55643  -0.49363  -0.49361
 Alpha virt. eigenvalues --    0.14469   0.14763   0.20586   0.20682   0.54839
 Alpha virt. eigenvalues --    0.54971   0.57703   0.57749   0.67856   0.69395
 Alpha virt. eigenvalues --    0.79503   0.79525   0.80933   0.81004   0.82765

 Mulliken charges:
               1
     1  O   -0.502195
     2  H    0.251098
     3  H    0.251098
     4  O   -0.502195
     5  H    0.251098
     6  H    0.251098
 Sum of Mulliken charges =  -0.00000

 Dipole moment (field-independent basis, Debye):
    X=             -0.0000    Y=              0.0000    Z=              0.0000  Tot=              0.0000
 Quadrupole moment (field-independent basis, Debye-Ang):
   XX=            -14.7100   YY=             -7.8124   ZZ=              8.6249
   XY=              0.0000   XZ=              0.0000   YZ=             -0.0000

 1\MP4DQ=-152.6413997\MP4SDQ=-152.6444651\CCSD=-152.6438748\CCSD(T)=-15
 Normal termination of Gaussian 16 at Fri Aug 26 21:35:59 2022.
