 Gaussian 16, Revision A.03,
 Gaussian 16:  ES64L-G16RevA.03 25-Dec-2016

 ------------------
 #p CCSD(T)/cc-pVTZ
 ------------------

 -----------
 H2O_H2O_122
 -----------
 Symbolic Z-matrix:
 Charge =  0 Multiplicity = 1

                         Standard orientation:
 ---------------------------------------------------------------------
 Center     Atomic      Atomic             Coordinates (Angstroms)
 Number     Number       Type             X           Y           Z
 ---------------------------------------------------------------------
      1          8           0        0.056908   -0.803188    0.000000
      2          1           0       -0.745916   -1.369739    0.000000
      3          1           0        0.853200   -1.378882    0.000000
      4          8           0        0.056908    0.901855    0.000000
      5          1           0       -0.400007    1.771761    0.000000
      6          1           0       -0.617799    0.187518    0.000000
 ---------------------------------------------------------------------

 SCF Done:  E(RHF) =  -151.922517228     A.U. after   11 cycles
 E2 =    -0.5496588298D+00 EUMP2 =    -0.15247217605799D+03
 CCSD(T)
 CCSD(T)= -0.15249665410D+03

 The electronic state is 1-A'.
 Alpha  occ. eigenvalues --  -20.56647 -20.47318  -1.42393  -1.25485  -0.79665
 Alpha  occ. eigenvalues --   -0.73162  -0.55964  -0.50446  -0.42649  -0.42400
 Alpha virt. eigenvalues --    0.12716   0.17985   0.20574   0.26526   0.49105
 Alpha virt. eigenvalues --    0.53338   0.62933   0.69619   0.73521   0.75431
 Alpha virt. eigenvalues --    0.77631   0.79222   0.84509   0.85141   0.88869

 Mulliken charges:
               1
     1  O   -0.281546
     2  H    0.163496
     3  H    0.215467
     4  O   -0.500745
     5  H    0.133261
     6  H    0.270068
 Sum of Mulliken charges =  -0.00000

 Dipole moment (field-independent basis, Debye):
    X=             -1.4777    Y=             -2.5978    Z=              0.0000  Tot=              2.9887
 Quadrupole moment (field-independent basis, Debye-Ang):
   XX=             -9.8352   YY=             -8.8553   ZZ=            -14.5330
   XY=             -1.6615   XZ=              0.0000   YZ=              0.0000

 Normal termination of Gaussian 16 at Fri Aug 26 12:58:11 2022.
