 Gaussian 16, Revision A.03,
 Gaussian 16:  ES64L-G16RevA.03 25-Dec-2016

 ------------------
 #p CCSD(T)/cc-pVTZ
 ------------------

 ------------
 H2O_H2O_3996
 ------------
 Symbolic Z-matrix:
 Charge =  0 Multiplicity = 1

                         Standard orientation:
 ---------------------------------------------------------------------
 Center     Atomic      Atomic             Coordinates (Angstroms)
 Number     Number       Type             X           Y           Z
 ---------------------------------------------------------------------
      1          8           0        0.056092   -2.867817    0.000000
      2          1           0       -0.744423   -3.437625    0.000000
      3          1           0        0.854717   -3.440272    0.000000
      4          8           0        0.056092    2.959574    0.000000
      5          1           0       -0.346594    3.855871    0.000000
      6          1           0       -0.661168    2.287974    0.000000
 ---------------------------------------------------------------------

 SCF Done:  E(RHF) =  -152.107569017     A.U. after   10 cycles
 E2 =    -0.5258767597D+00 EUMP2 =    -0.15263344577624D+03
 CCSD(T)
 CCSD(T)= -0.15266066155D+03

 The electronic state is 1-A'.
 Alpha  occ. eigenvalues --  -20.55684 -20.55052  -1.32983  -1.32350  -0.70389
 Alpha  occ. eigenvalues --   -0.69747  -0.56438  -0.55800  -0.50096  -0.49465
 Alpha virt. eigenvalues --    0.13934   0.14684   0.20081   0.20784   0.54165
 Alpha virt. eigenvalues --    0.54820   0.57102   0.57725   0.67591   0.68542
 Alpha virt. eigenvalues --    0.78786   0.79404   0.80209   0.80777   0.82313

 Mulliken charges:
               1
     1  O   -0.509854
     2  H    0.253414
     3  H    0.256454
     4  O   -0.509412
     5  H    0.251649
     6  H    0.257748
 Sum of Mulliken charges =  -0.00000

 Dipole moment (field-independent basis, Debye):
    X=             -1.9256    Y=             -1.6094    Z=              0.0000  Tot=              2.5096
 Quadrupole moment (field-independent basis, Debye-Ang):
   XX=             -9.7837   YY=              3.7663   ZZ=            -14.7125
   XY=             -5.4829   XZ=              0.0000   YZ=              0.0000

 50121\MP4DQ=-152.6425689\MP4SDQ=-152.645623\CCSD=-152.6450363\CCSD(T)=
 Normal termination of Gaussian 16 at Sat Aug 27 04:47:44 2022.
