 Gaussian 16, Revision A.03,
 Gaussian 16:  ES64L-G16RevA.03 25-Dec-2016

 ------------------
 #p CCSD(T)/cc-pVTZ
 ------------------

 ------------
 H2O_H2O_1208
 ------------
 Symbolic Z-matrix:
 Charge =  0 Multiplicity = 1

                         Standard orientation:
 ---------------------------------------------------------------------
 Center     Atomic      Atomic             Coordinates (Angstroms)
 Number     Number       Type             X           Y           Z
 ---------------------------------------------------------------------
      1          8           0        0.028570   -1.433543    0.000000
      2          1           0       -0.771975   -2.003310    0.000000
      3          1           0        0.827165   -2.006038    0.000000
      4          8           0        0.028570    1.448749    0.000000
      5          1           0        0.436979    2.342454    0.000000
      6          1           0       -0.949282    1.545246    0.000000
 ---------------------------------------------------------------------

 SCF Done:  E(RHF) =  -152.101237621     A.U. after   11 cycles
 E2 =    -0.5276779745D+00 EUMP2 =    -0.15262891559583D+03
 CCSD(T)
 CCSD(T)= -0.15265619242D+03

 The electronic state is 1-A'.
 Alpha  occ. eigenvalues --  -20.54058 -20.53659  -1.31446  -1.30903  -0.68859
 Alpha  occ. eigenvalues --   -0.68354  -0.55857  -0.52799  -0.48633  -0.47874
 Alpha virt. eigenvalues --    0.14228   0.16865   0.20457   0.22224   0.52320
 Alpha virt. eigenvalues --    0.58292   0.58575   0.59673   0.67878   0.76522
 Alpha virt. eigenvalues --    0.77219   0.78081   0.80114   0.82978   0.85936

 Mulliken charges:
               1
     1  O   -0.474331
     2  H    0.232269
     3  H    0.242304
     4  O   -0.468531
     5  H    0.228253
     6  H    0.240037
 Sum of Mulliken charges =  -0.00000

 Dipole moment (field-independent basis, Debye):
    X=             -0.9255    Y=             -0.2894    Z=              0.0000  Tot=              0.9697
 Quadrupole moment (field-independent basis, Debye-Ang):
   XX=             -8.4091   YY=             -1.2200   ZZ=            -14.7139
   XY=             -0.6994   XZ=              0.0000   YZ=              0.0000

 Normal termination of Gaussian 16 at Sat Aug 27 02:59:26 2022.
