 Gaussian 16, Revision A.03,
 Gaussian 16:  ES64L-G16RevA.03 25-Dec-2016

 ------------------
 #p CCSD(T)/cc-pVTZ
 ------------------

 -----------
 H2O_H2O_451
 -----------
 Symbolic Z-matrix:
 Charge =  0 Multiplicity = 1

                         Standard orientation:
 ---------------------------------------------------------------------
 Center     Atomic      Atomic             Coordinates (Angstroms)
 Number     Number       Type             X           Y           Z
 ---------------------------------------------------------------------
      1          8           0        0.003735   -1.042794    0.000000
      2          1           0       -0.796012   -1.613679    0.000000
      3          1           0        0.803130   -1.614172    0.000000
      4          8           0        0.003735    1.043036    0.000000
      5          1           0        0.764433    1.665005    0.000000
      6          1           0       -0.831318    1.560908    0.000000
 ---------------------------------------------------------------------

 SCF Done:  E(RHF) =  -152.062032555     A.U. after   11 cycles
 E2 =    -0.5336648008D+00 EUMP2 =    -0.15259569735574D+03
 CCSD(T)
 CCSD(T)= -0.15262267738D+03

 The electronic state is 1-A'.
 Alpha  occ. eigenvalues --  -20.52014 -20.52006  -1.31559  -1.28821  -0.68334
 Alpha  occ. eigenvalues --   -0.66654  -0.60159  -0.48834  -0.45304  -0.44955
 Alpha virt. eigenvalues --    0.14645   0.18293   0.20521   0.22728   0.50176
 Alpha virt. eigenvalues --    0.59123   0.59234   0.65862   0.70607   0.77645
 Alpha virt. eigenvalues --    0.78863   0.82346   0.84466   0.86698   0.87124

 Mulliken charges:
               1
     1  O   -0.436781
     2  H    0.217291
     3  H    0.219409
     4  O   -0.436132
     5  H    0.214938
     6  H    0.221275
 Sum of Mulliken charges =  -0.00000

 Dipole moment (field-independent basis, Debye):
    X=             -0.1107    Y=             -0.0050    Z=              0.0000  Tot=              0.1108
 Quadrupole moment (field-independent basis, Debye-Ang):
   XX=             -8.1251   YY=             -5.2039   ZZ=            -14.7489
   XY=             -0.0355   XZ=              0.0000   YZ=              0.0000

 1439\MP4DQ=-152.6032809\MP4SDQ=-152.6067466\CCSD=-152.6060013\CCSD(T)=
 Normal termination of Gaussian 16 at Fri Aug 26 16:34:49 2022.
