 Gaussian 16, Revision A.03,
 Gaussian 16:  ES64L-G16RevA.03 25-Dec-2016

 ------------------
 #p CCSD(T)/cc-pVTZ
 ------------------

 ------------
 H2O_H2O_4214
 ------------
 Symbolic Z-matrix:
 Charge =  0 Multiplicity = 1

                         Standard orientation:
 ---------------------------------------------------------------------
 Center     Atomic      Atomic             Coordinates (Angstroms)
 Number     Number       Type             X           Y           Z
 ---------------------------------------------------------------------
      1          8           0        0.045340   -3.013104    0.000000
      2          1           0       -0.754965   -3.583208    0.000000
      3          1           0        0.844176   -3.585263    0.000000
      4          8           0        0.045340    3.057677    0.000000
      5          1           0        0.080241    4.039659    0.000000
      6          1           0       -0.894886    2.772226    0.000000
 ---------------------------------------------------------------------

 SCF Done:  E(RHF) =  -152.107122559     A.U. after   10 cycles
 E2 =    -0.5259087429D+00 EUMP2 =    -0.15263303130222D+03
 CCSD(T)
 CCSD(T)= -0.15266025721D+03

 The electronic state is 1-A'.
 Alpha  occ. eigenvalues --  -20.55409 -20.55128  -1.32706  -1.32424  -0.70113
 Alpha  occ. eigenvalues --   -0.69825  -0.56140  -0.55858  -0.49816  -0.49535
 Alpha virt. eigenvalues --    0.14229   0.14537   0.20300   0.20604   0.54450
 Alpha virt. eigenvalues --    0.54753   0.57345   0.57628   0.68036   0.68393
 Alpha virt. eigenvalues --    0.79064   0.79341   0.80500   0.80802   0.82433

 Mulliken charges:
               1
     1  O   -0.507206
     2  H    0.252459
     3  H    0.254748
     4  O   -0.506988
     5  H    0.251621
     6  H    0.255366
 Sum of Mulliken charges =  -0.00000

 Dipole moment (field-independent basis, Debye):
    X=             -1.5571    Y=             -0.7796    Z=              0.0000  Tot=              1.7414
 Quadrupole moment (field-independent basis, Debye-Ang):
   XX=             -9.0970   YY=              8.7445   ZZ=            -14.7114
   XY=             -3.9464   XZ=              0.0000   YZ=              0.0000

 Normal termination of Gaussian 16 at Sat Aug 27 06:03:51 2022.
