 Gaussian 16, Revision A.03,
 Gaussian 16:  ES64L-G16RevA.03 25-Dec-2016

 ------------------
 #p CCSD(T)/cc-pVTZ
 ------------------

 ------------
 H2O_H2O_4736
 ------------
 Symbolic Z-matrix:
 Charge =  0 Multiplicity = 1

                         Standard orientation:
 ---------------------------------------------------------------------
 Center     Atomic      Atomic             Coordinates (Angstroms)
 Number     Number       Type             X           Y           Z
 ---------------------------------------------------------------------
      1          8           0        0.037671   -3.301171    0.000000
      2          1           0       -0.762458   -3.871521    0.000000
      3          1           0        0.836683   -3.873084    0.000000
      4          8           0        0.037671    3.329443    0.000000
      5          1           0        0.263182    4.285817    0.000000
      6          1           0       -0.940148    3.232605    0.000000
 ---------------------------------------------------------------------

 SCF Done:  E(RHF) =  -152.107094191     A.U. after   10 cycles
 E2 =    -0.5259036366D+00 EUMP2 =    -0.15263299782732D+03
 CCSD(T)
 CCSD(T)= -0.15266022482D+03

 The electronic state is 1-A'.
 Alpha  occ. eigenvalues --  -20.55368 -20.55220  -1.32665  -1.32516  -0.70072
 Alpha  occ. eigenvalues --   -0.69920  -0.56098  -0.55950  -0.49774  -0.49626
 Alpha virt. eigenvalues --    0.14282   0.14432   0.20341   0.20496   0.54494
 Alpha virt. eigenvalues --    0.54653   0.57384   0.57533   0.68114   0.68267
 Alpha virt. eigenvalues --    0.79105   0.79251   0.80543   0.80703   0.82468

 Mulliken charges:
               1
     1  O   -0.507021
     2  H    0.252769
     3  H    0.254252
     4  O   -0.506913
     5  H    0.252299
     6  H    0.254614
 Sum of Mulliken charges =  -0.00000

 Dipole moment (field-independent basis, Debye):
    X=             -1.2953    Y=             -0.4929    Z=              0.0000  Tot=              1.3860
 Quadrupole moment (field-independent basis, Debye-Ang):
   XX=             -8.6954   YY=             12.0607   ZZ=            -14.7112
   XY=             -3.4450   XZ=              0.0000   YZ=              0.0000

 Normal termination of Gaussian 16 at Sat Aug 27 09:03:31 2022.
