 Gaussian 16, Revision A.03,
 Gaussian 16:  ES64L-G16RevA.03 25-Dec-2016

 ------------------
 #p CCSD(T)/cc-pVTZ
 ------------------

 ------------
 H2O_H2O_1219
 ------------
 Symbolic Z-matrix:
 Charge =  0 Multiplicity = 1

                         Standard orientation:
 ---------------------------------------------------------------------
 Center     Atomic      Atomic             Coordinates (Angstroms)
 Number     Number       Type             X           Y           Z
 ---------------------------------------------------------------------
      1          8           0        0.054207   -1.399894    0.000000
      2          1           0       -0.747208   -1.968436    0.000000
      3          1           0        0.851926   -1.973611    0.000000
      4          8           0        0.054207    1.477054    0.000000
      5          1           0       -0.226556    2.418689    0.000000
      6          1           0       -0.745481    0.906085    0.000000
 ---------------------------------------------------------------------

 SCF Done:  E(RHF) =  -152.106099298     A.U. after   10 cycles
 E2 =    -0.5277706433D+00 EUMP2 =    -0.15263386994110D+03
 CCSD(T)
 CCSD(T)= -0.15266100346D+03

 The electronic state is 1-A'.
 Alpha  occ. eigenvalues --  -20.55762 -20.53271  -1.33126  -1.30548  -0.70539
 Alpha  occ. eigenvalues --   -0.68099  -0.56403  -0.53889  -0.50240  -0.47653
 Alpha virt. eigenvalues --    0.13407   0.17245   0.19825   0.24150   0.53131
 Alpha virt. eigenvalues --    0.56727   0.57114   0.58709   0.69249   0.75243
 Alpha virt. eigenvalues --    0.75623   0.78010   0.81035   0.82353   0.84612

 Mulliken charges:
               1
     1  O   -0.483575
     2  H    0.238458
     3  H    0.255088
     4  O   -0.496609
     5  H    0.229690
     6  H    0.256947
 Sum of Mulliken charges =  -0.00000

 Dipole moment (field-independent basis, Debye):
    X=             -1.7524    Y=             -1.5156    Z=              0.0000  Tot=              2.3169
 Quadrupole moment (field-independent basis, Debye-Ang):
   XX=             -9.6718   YY=             -2.9556   ZZ=            -14.7237
   XY=             -2.3713   XZ=              0.0000   YZ=              0.0000

 Normal termination of Gaussian 16 at Sat Aug 27 03:06:52 2022.
