 Gaussian 16, Revision A.03,
 Gaussian 16:  ES64L-G16RevA.03 25-Dec-2016

 ------------------
 #p CCSD(T)/cc-pVTZ
 ------------------

 ------------
 H2O_H2O_2748
 ------------
 Symbolic Z-matrix:
 Charge =  0 Multiplicity = 1

                         Standard orientation:
 ---------------------------------------------------------------------
 Center     Atomic      Atomic             Coordinates (Angstroms)
 Number     Number       Type             X           Y           Z
 ---------------------------------------------------------------------
      1          8           0        0.057107   -2.195010    0.000000
      2          1           0       -0.743708   -2.764396    0.000000
      3          1           0        0.855430   -2.767885    0.000000
      4          8           0        0.057107    2.301517    0.000000
      5          1           0       -0.458684    3.137857    0.000000
      6          1           0       -0.566755    1.542370    0.000000
 ---------------------------------------------------------------------

 SCF Done:  E(RHF) =  -152.108267853     A.U. after   10 cycles
 E2 =    -0.5259909924D+00 EUMP2 =    -0.15263425884550D+03
 CCSD(T)
 CCSD(T)= -0.15266144063D+03

 The electronic state is 1-A'.
 Alpha  occ. eigenvalues --  -20.55946 -20.54597  -1.33232  -1.31898  -0.70638
 Alpha  occ. eigenvalues --   -0.69277  -0.56706  -0.55360  -0.50350  -0.49021
 Alpha virt. eigenvalues --    0.13121   0.15579   0.19885   0.21875   0.53925
 Alpha virt. eigenvalues --    0.54819   0.56937   0.58191   0.66584   0.71272
 Alpha virt. eigenvalues --    0.78542   0.79454   0.79833   0.80473   0.82692

 Mulliken charges:
               1
     1  O   -0.509753
     2  H    0.252536
     3  H    0.258621
     4  O   -0.511911
     5  H    0.248913
     6  H    0.261594
 Sum of Mulliken charges =  -0.00000

 Dipole moment (field-independent basis, Debye):
    X=             -1.9445    Y=             -1.9175    Z=              0.0000  Tot=              2.7310
 Quadrupole moment (field-independent basis, Debye-Ang):
   XX=             -9.8524   YY=             -0.5259   ZZ=            -14.7155
   XY=             -4.5567   XZ=              0.0000   YZ=              0.0000

 Normal termination of Gaussian 16 at Fri Aug 26 15:43:41 2022.
