 Gaussian 16, Revision A.03,
 Gaussian 16:  ES64L-G16RevA.03 25-Dec-2016

 ------------------
 #p CCSD(T)/cc-pVTZ
 ------------------

 -----------
 H2O_H2O_636
 -----------
 Symbolic Z-matrix:
 Charge =  0 Multiplicity = 1

                         Standard orientation:
 ---------------------------------------------------------------------
 Center     Atomic      Atomic             Coordinates (Angstroms)
 Number     Number       Type             X           Y           Z
 ---------------------------------------------------------------------
      1          8           0        0.037698   -1.120716    0.000000
      2          1           0       -0.763501   -1.689561    0.000000
      3          1           0        0.835634   -1.694129    0.000000
      4          8           0        0.037698    1.148847    0.000000
      5          1           0        0.265005    2.104795    0.000000
      6          1           0       -0.940302    1.053846    0.000000
 ---------------------------------------------------------------------

 SCF Done:  E(RHF) =  -152.085025453     A.U. after   11 cycles
 E2 =    -0.5310435042D+00 EUMP2 =    -0.15261606895699D+03
 CCSD(T)
 CCSD(T)= -0.15264321611D+03

 The electronic state is 1-A'.
 Alpha  occ. eigenvalues --  -20.53531 -20.52577  -1.31845  -1.29649  -0.69079
 Alpha  occ. eigenvalues --   -0.67624  -0.57576  -0.49215  -0.49081  -0.46398
 Alpha virt. eigenvalues --    0.14241   0.17689   0.20291   0.23212   0.52914
 Alpha virt. eigenvalues --    0.57994   0.58278   0.62353   0.70796   0.76080
 Alpha virt. eigenvalues --    0.78121   0.80877   0.83616   0.85872   0.87607

 Mulliken charges:
               1
     1  O   -0.460412
     2  H    0.220898
     3  H    0.238954
     4  O   -0.438167
     5  H    0.198876
     6  H    0.239852
 Sum of Mulliken charges =  -0.00000

 Dipole moment (field-independent basis, Debye):
    X=             -1.1432    Y=             -0.5572    Z=              0.0000  Tot=              1.2718
 Quadrupole moment (field-independent basis, Debye-Ang):
   XX=             -8.8631   YY=             -4.2399   ZZ=            -14.7292
   XY=             -0.7163   XZ=              0.0000   YZ=              0.0000

 221\MP4DQ=-152.62425\MP4SDQ=-152.6275746\CCSD=-152.6268862\CCSD(T)=-15
 Normal termination of Gaussian 16 at Fri Aug 26 18:32:57 2022.
