 Gaussian 16, Revision A.03,
 Gaussian 16:  ES64L-G16RevA.03 25-Dec-2016

 ------------------
 #p CCSD(T)/cc-pVTZ
 ------------------

 ------------
 H2O_H2O_3651
 ------------
 Symbolic Z-matrix:
 Charge =  0 Multiplicity = 1

                         Standard orientation:
 ---------------------------------------------------------------------
 Center     Atomic      Atomic             Coordinates (Angstroms)
 Number     Number       Type             X           Y           Z
 ---------------------------------------------------------------------
      1          8           0        0.003735   -2.744669    0.000000
      2          1           0       -0.795903   -3.315708    0.000000
      3          1           0        0.803239   -3.315895    0.000000
      4          8           0        0.003735    2.744913    0.000000
      5          1           0        0.764314    3.367028    0.000000
      6          1           0       -0.831417    3.262626    0.000000
 ---------------------------------------------------------------------

 SCF Done:  E(RHF) =  -152.106470082     A.U. after   10 cycles
 E2 =    -0.5259757029D+00 EUMP2 =    -0.15263244578508D+03
 CCSD(T)
 CCSD(T)= -0.15265968502D+03

 The electronic state is 1-A'.
 Alpha  occ. eigenvalues --  -20.55042 -20.55040  -1.32336  -1.32334  -0.69744
 Alpha  occ. eigenvalues --   -0.69742  -0.55741  -0.55735  -0.49441  -0.49439
 Alpha virt. eigenvalues --    0.14478   0.14639   0.20556   0.20614   0.54799
 Alpha virt. eigenvalues --    0.54858   0.57652   0.57679   0.68195   0.68859
 Alpha virt. eigenvalues --    0.79434   0.79441   0.80872   0.80905   0.82783

 Mulliken charges:
               1
     1  O   -0.503342
     2  H    0.251545
     3  H    0.251797
     4  O   -0.503339
     5  H    0.251501
     6  H    0.251837
 Sum of Mulliken charges =  -0.00000

 Dipole moment (field-independent basis, Debye):
    X=             -0.1280    Y=             -0.0043    Z=              0.0000  Tot=              0.1280
 Quadrupole moment (field-independent basis, Debye-Ang):
   XX=             -7.8177   YY=              9.8975   ZZ=            -14.7102
   XY=             -0.2360   XZ=              0.0000   YZ=              0.0000

 Normal termination of Gaussian 16 at Sat Aug 27 02:13:17 2022.
