 Gaussian 16, Revision A.03,
 Gaussian 16:  ES64L-G16RevA.03 25-Dec-2016

 ------------------
 #p CCSD(T)/cc-pVTZ
 ------------------

 ------------
 H2O_H2O_1069
 ------------
 Symbolic Z-matrix:
 Charge =  0 Multiplicity = 1

                         Standard orientation:
 ---------------------------------------------------------------------
 Center     Atomic      Atomic             Coordinates (Angstroms)
 Number     Number       Type             X           Y           Z
 ---------------------------------------------------------------------
      1          8           0        0.054215   -1.320130    0.000000
      2          1           0       -0.747309   -1.888519    0.000000
      3          1           0        0.851824   -1.893998    0.000000
      4          8           0        0.054215    1.397268    0.000000
      5          1           0       -0.226369    2.338957    0.000000
      6          1           0       -0.745582    0.826451    0.000000
 ---------------------------------------------------------------------

 SCF Done:  E(RHF) =  -152.104446425     A.U. after   10 cycles
 E2 =    -0.5283878285D+00 EUMP2 =    -0.15263283425357D+03
 CCSD(T)
 CCSD(T)= -0.15265995145D+03

 The electronic state is 1-A'.
 Alpha  occ. eigenvalues --  -20.55739 -20.52994  -1.33198  -1.30280  -0.70605
 Alpha  occ. eigenvalues --   -0.68013  -0.56322  -0.53557  -0.50305  -0.47363
 Alpha virt. eigenvalues --    0.13419   0.17474   0.19802   0.24388   0.52657
 Alpha virt. eigenvalues --    0.56990   0.58016   0.59130   0.70432   0.74956
 Alpha virt. eigenvalues --    0.75659   0.79802   0.82029   0.82626   0.84559

 Mulliken charges:
               1
     1  O   -0.478761
     2  H    0.236325
     3  H    0.253962
     4  O   -0.493155
     5  H    0.225062
     6  H    0.256566
 Sum of Mulliken charges =  -0.00000

 Dipole moment (field-independent basis, Debye):
    X=             -1.7313    Y=             -1.5362    Z=              0.0000  Tot=              2.3146
 Quadrupole moment (field-independent basis, Debye-Ang):
   XX=             -9.6780   YY=             -3.4708   ZZ=            -14.7247
   XY=             -2.2316   XZ=              0.0000   YZ=              0.0000

 Normal termination of Gaussian 16 at Sat Aug 27 01:50:01 2022.
