 Gaussian 16, Revision A.03,
 Gaussian 16:  ES64L-G16RevA.03 25-Dec-2016

 ------------------
 #p CCSD(T)/cc-pVTZ
 ------------------

 ------------
 H2O_H2O_3296
 ------------
 Symbolic Z-matrix:
 Charge =  0 Multiplicity = 1

                         Standard orientation:
 ---------------------------------------------------------------------
 Center     Atomic      Atomic             Coordinates (Angstroms)
 Number     Number       Type             X           Y           Z
 ---------------------------------------------------------------------
      1          8           0        0.056103   -2.495545    0.000000
      2          1           0       -0.744550   -3.065159    0.000000
      3          1           0        0.854589   -3.068194    0.000000
      4          8           0        0.056103    2.587275    0.000000
      5          1           0       -0.346366    3.483670    0.000000
      6          1           0       -0.661319    1.915850    0.000000
 ---------------------------------------------------------------------

 SCF Done:  E(RHF) =  -152.107674206     A.U. after   10 cycles
 E2 =    -0.5259136890D+00 EUMP2 =    -0.15263358789541D+03
 CCSD(T)
 CCSD(T)= -0.15266079645D+03

 The electronic state is 1-A'.
 Alpha  occ. eigenvalues --  -20.55716 -20.54857  -1.33012  -1.32154  -0.70419
 Alpha  occ. eigenvalues --   -0.69544  -0.56470  -0.55605  -0.50125  -0.49271
 Alpha virt. eigenvalues --    0.13633   0.15059   0.20036   0.21114   0.54091
 Alpha virt. eigenvalues --    0.54913   0.57088   0.57845   0.67012   0.69559
 Alpha virt. eigenvalues --    0.78761   0.79591   0.80024   0.80515   0.82767

 Mulliken charges:
               1
     1  O   -0.509987
     2  H    0.252846
     3  H    0.257358
     4  O   -0.509597
     5  H    0.250254
     6  H    0.259127
 Sum of Mulliken charges =  -0.00000

 Dipole moment (field-independent basis, Debye):
    X=             -1.9196    Y=             -1.6246    Z=              0.0000  Tot=              2.5148
 Quadrupole moment (field-independent basis, Debye-Ang):
   XX=             -9.7827   YY=              1.9847   ZZ=            -14.7132
   XY=             -4.7731   XZ=              0.0000   YZ=              0.0000

 Normal termination of Gaussian 16 at Fri Aug 26 21:08:48 2022.
