 Gaussian 16, Revision A.03,
 Gaussian 16:  ES64L-G16RevA.03 25-Dec-2016

 ------------------
 #p CCSD(T)/cc-pVTZ
 ------------------

 ------------
 H2O_H2O_3098
 ------------
 Symbolic Z-matrix:
 Charge =  0 Multiplicity = 1

                         Standard orientation:
 ---------------------------------------------------------------------
 Center     Atomic      Atomic             Coordinates (Angstroms)
 Number     Number       Type             X           Y           Z
 ---------------------------------------------------------------------
      1          8           0        0.057098   -2.381143    0.000000
      2          1           0       -0.743622   -2.950662    0.000000
      3          1           0        0.855517   -2.953885    0.000000
      4          8           0        0.057098    2.487668    0.000000
      5          1           0       -0.458832    3.323924    0.000000
      6          1           0       -0.566637    1.728419    0.000000
 ---------------------------------------------------------------------

 SCF Done:  E(RHF) =  -152.108028095     A.U. after   10 cycles
 E2 =    -0.5259230947D+00 EUMP2 =    -0.15263395119007D+03
 CCSD(T)
 CCSD(T)= -0.15266114721D+03

 The electronic state is 1-A'.
 Alpha  occ. eigenvalues --  -20.55871 -20.54761  -1.33164  -1.32062  -0.70570
 Alpha  occ. eigenvalues --   -0.69448  -0.56634  -0.55520  -0.50280  -0.49181
 Alpha virt. eigenvalues --    0.13350   0.15264   0.19933   0.21386   0.53946
 Alpha virt. eigenvalues --    0.54875   0.56973   0.57929   0.66736   0.70044
 Alpha virt. eigenvalues --    0.78612   0.79674   0.79680   0.80297   0.82808

 Mulliken charges:
               1
     1  O   -0.510999
     2  H    0.253293
     3  H    0.258275
     4  O   -0.511153
     5  H    0.250039
     6  H    0.260546
 Sum of Mulliken charges =   0.00000

 Dipole moment (field-independent basis, Debye):
    X=             -1.9509    Y=             -1.8972    Z=              0.0000  Tot=              2.7213
 Quadrupole moment (field-independent basis, Debye-Ang):
   XX=             -9.8530   YY=              0.2658   ZZ=            -14.7144
   XY=             -4.9153   XZ=              0.0000   YZ=              0.0000

 Normal termination of Gaussian 16 at Fri Aug 26 19:24:39 2022.
