 Gaussian 16, Revision A.03,
 Gaussian 16:  ES64L-G16RevA.03 25-Dec-2016

 ------------------
 #p CCSD(T)/cc-pVTZ
 ------------------

 ------------
 H2O_H2O_2539
 ------------
 Symbolic Z-matrix:
 Charge =  0 Multiplicity = 1

                         Standard orientation:
 ---------------------------------------------------------------------
 Center     Atomic      Atomic             Coordinates (Angstroms)
 Number     Number       Type             X           Y           Z
 ---------------------------------------------------------------------
      1          8           0        0.045352   -2.122303    0.000000
      2          1           0       -0.755257   -2.691980    0.000000
      3          1           0        0.843882   -2.694888    0.000000
      4          8           0        0.045352    2.166828    0.000000
      5          1           0        0.080777    3.148791    0.000000
      6          1           0       -0.895026    1.881879    0.000000
 ---------------------------------------------------------------------

 SCF Done:  E(RHF) =  -152.106602683     A.U. after   10 cycles
 E2 =    -0.5261084265D+00 EUMP2 =    -0.15263271110956D+03
 CCSD(T)
 CCSD(T)= -0.15265993315D+03

 The electronic state is 1-A'.
 Alpha  occ. eigenvalues --  -20.55218 -20.54622  -1.32506  -1.31908  -0.69918
 Alpha  occ. eigenvalues --   -0.69299  -0.55909  -0.55307  -0.49612  -0.49018
 Alpha virt. eigenvalues --    0.13745   0.15512   0.20278   0.21334   0.54046
 Alpha virt. eigenvalues --    0.55067   0.57515   0.58052   0.65477   0.73283
 Alpha virt. eigenvalues --    0.79217   0.79896   0.80291   0.81712   0.83212

 Mulliken charges:
               1
     1  O   -0.502729
     2  H    0.248590
     3  H    0.254582
     4  O   -0.502789
     5  H    0.246673
     6  H    0.255673
 Sum of Mulliken charges =  -0.00000

 Dipole moment (field-independent basis, Debye):
    X=             -1.5394    Y=             -0.8006    Z=              0.0000  Tot=              1.7352
 Quadrupole moment (field-independent basis, Debye-Ang):
   XX=             -9.1036   YY=              2.9616   ZZ=            -14.7118
   XY=             -2.5791   XZ=              0.0000   YZ=              0.0000

 Normal termination of Gaussian 16 at Fri Aug 26 13:30:34 2022.
