 Gaussian 16, Revision A.03,
 Gaussian 16:  ES64L-G16RevA.03 25-Dec-2016

 ------------------
 #p CCSD(T)/cc-pVTZ
 ------------------

 -----------
 H2O_H2O_805
 -----------
 Symbolic Z-matrix:
 Charge =  0 Multiplicity = 1

                         Standard orientation:
 ---------------------------------------------------------------------
 Center     Atomic      Atomic             Coordinates (Angstroms)
 Number     Number       Type             X           Y           Z
 ---------------------------------------------------------------------
      1          8           0        0.018362   -1.225801    0.000000
      2          1           0       -0.781943   -1.795904    0.000000
      3          1           0        0.817198   -1.797961    0.000000
      4          8           0        0.018362    1.231815    0.000000
      5          1           0        0.592942    2.028913    0.000000
      6          1           0       -0.921994    1.516834    0.000000
 ---------------------------------------------------------------------

 SCF Done:  E(RHF) =  -152.091370852     A.U. after   11 cycles
 E2 =    -0.5294757424D+00 EUMP2 =    -0.15262084659447D+03
 CCSD(T)
 CCSD(T)= -0.15264812395D+03

 The electronic state is 1-A'.
 Alpha  occ. eigenvalues --  -20.53158 -20.52979  -1.31119  -1.30078  -0.68390
 Alpha  occ. eigenvalues --   -0.67678  -0.57147  -0.49895  -0.48417  -0.46827
 Alpha virt. eigenvalues --    0.14460   0.17507   0.20537   0.22484   0.50978
 Alpha virt. eigenvalues --    0.58755   0.58884   0.62956   0.72009   0.76589
 Alpha virt. eigenvalues --    0.76928   0.79880   0.83974   0.86185   0.86423

 Mulliken charges:
               1
     1  O   -0.461128
     2  H    0.225699
     3  H    0.234366
     4  O   -0.453271
     5  H    0.220568
     6  H    0.233767
 Sum of Mulliken charges =   0.00000

 Dipole moment (field-independent basis, Debye):
    X=             -0.5724    Y=             -0.1169    Z=              0.0000  Tot=              0.5842
 Quadrupole moment (field-independent basis, Debye-Ang):
   XX=             -8.1925   YY=             -3.1012   ZZ=            -14.7264
   XY=             -0.2803   XZ=              0.0000   YZ=              0.0000

 Normal termination of Gaussian 16 at Fri Aug 26 20:11:17 2022.
