 Gaussian 16, Revision A.03,
 Gaussian 16:  ES64L-G16RevA.03 25-Dec-2016

 ------------------
 #p CCSD(T)/cc-pVTZ
 ------------------

 ------------
 H2O_H2O_1508
 ------------
 Symbolic Z-matrix:
 Charge =  0 Multiplicity = 1

                         Standard orientation:
 ---------------------------------------------------------------------
 Center     Atomic      Atomic             Coordinates (Angstroms)
 Number     Number       Type             X           Y           Z
 ---------------------------------------------------------------------
      1          8           0        0.028568   -1.593089    0.000000
      2          1           0       -0.771879   -2.162992    0.000000
      3          1           0        0.827261   -2.165448    0.000000
      4          8           0        0.028568    1.608304    0.000000
      5          1           0        0.436825    2.502079    0.000000
      6          1           0       -0.949300    1.704636    0.000000
 ---------------------------------------------------------------------

 SCF Done:  E(RHF) =  -152.103528323     A.U. after   10 cycles
 E2 =    -0.5270264228D+00 EUMP2 =    -0.15263055474543D+03
 CCSD(T)
 CCSD(T)= -0.15265780923D+03

 The electronic state is 1-A'.
 Alpha  occ. eigenvalues --  -20.54350 -20.54003  -1.31650  -1.31263  -0.69076
 Alpha  occ. eigenvalues --   -0.68682  -0.55529  -0.53844  -0.48786  -0.48312
 Alpha virt. eigenvalues --    0.14133   0.16485   0.20464   0.21890   0.52739
 Alpha virt. eigenvalues --    0.57482   0.58118   0.58716   0.64319   0.76937
 Alpha virt. eigenvalues --    0.78166   0.78713   0.79267   0.82030   0.85763

 Mulliken charges:
               1
     1  O   -0.480818
     2  H    0.236779
     3  H    0.244729
     4  O   -0.479480
     5  H    0.234778
     6  H    0.244011
 Sum of Mulliken charges =  -0.00000

 Dipole moment (field-independent basis, Debye):
    X=             -0.9426    Y=             -0.2860    Z=              0.0000  Tot=              0.9850
 Quadrupole moment (field-independent basis, Debye-Ang):
   XX=             -8.3783   YY=              0.1295   ZZ=            -14.7107
   XY=             -0.8462   XZ=              0.0000   YZ=              0.0000

 Normal termination of Gaussian 16 at Sat Aug 27 05:10:52 2022.
