 Gaussian 16, Revision A.03,
 Gaussian 16:  ES64L-G16RevA.03 25-Dec-2016

 ------------------
 #p CCSD(T)/cc-pVTZ
 ------------------

 -----------
 H2O_H2O_286
 -----------
 Symbolic Z-matrix:
 Charge =  0 Multiplicity = 1

                         Standard orientation:
 ---------------------------------------------------------------------
 Center     Atomic      Atomic             Coordinates (Angstroms)
 Number     Number       Type             X           Y           Z
 ---------------------------------------------------------------------
      1          8           0        0.037706   -0.934595    0.000000
      2          1           0       -0.763812   -1.502992    0.000000
      3          1           0        0.835320   -1.508456    0.000000
      4          8           0        0.037706    0.962684    0.000000
      5          1           0        0.265549    1.918504    0.000000
      6          1           0       -0.940347    0.868231    0.000000
 ---------------------------------------------------------------------

 SCF Done:  E(RHF) =  -152.035124336     A.U. after   11 cycles
 E2 =    -0.5378534523D+00 EUMP2 =    -0.15257297778805D+03
 CCSD(T)
 CCSD(T)= -0.15259949047D+03

 The electronic state is 1-A'.
 Alpha  occ. eigenvalues --  -20.52606 -20.51653  -1.33531  -1.28118  -0.70335
 Alpha  occ. eigenvalues --   -0.67701  -0.59635  -0.50401  -0.44691  -0.43465
 Alpha virt. eigenvalues --    0.14292   0.18405   0.20080   0.23547   0.53352
 Alpha virt. eigenvalues --    0.57018   0.58526   0.64410   0.71597   0.77263
 Alpha virt. eigenvalues --    0.79751   0.82152   0.83396   0.85364   0.88422

 Mulliken charges:
               1
     1  O   -0.421224
     2  H    0.199585
     3  H    0.219899
     4  O   -0.391784
     5  H    0.160919
     6  H    0.232605
 Sum of Mulliken charges =  -0.00000

 Dipole moment (field-independent basis, Debye):
    X=             -1.0685    Y=             -0.5959    Z=              0.0000  Tot=              1.2235
 Quadrupole moment (field-independent basis, Debye-Ang):
   XX=             -8.9539   YY=             -6.4908   ZZ=            -14.7175
   XY=             -0.5449   XZ=              0.0000   YZ=              0.0000

 Normal termination of Gaussian 16 at Fri Aug 26 14:52:17 2022.
