 Gaussian 16, Revision A.03,
 Gaussian 16:  ES64L-G16RevA.03 25-Dec-2016

 ------------------
 #p CCSD(T)/cc-pVTZ
 ------------------

 ------------
 H2O_H2O_1941
 ------------
 Symbolic Z-matrix:
 Charge =  0 Multiplicity = 1

                         Standard orientation:
 ---------------------------------------------------------------------
 Center     Atomic      Atomic             Coordinates (Angstroms)
 Number     Number       Type             X           Y           Z
 ---------------------------------------------------------------------
      1          8           0        0.049528   -1.796489    0.000000
      2          1           0       -0.751373   -2.365754    0.000000
      3          1           0        0.847764   -2.369485    0.000000
      4          8           0        0.049528    1.853372    0.000000
      5          1           0       -0.043019    2.831605    0.000000
      6          1           0       -0.845819    1.448577    0.000000
 ---------------------------------------------------------------------

 SCF Done:  E(RHF) =  -152.106722416     A.U. after   10 cycles
 E2 =    -0.5264444466D+00 EUMP2 =    -0.15263316686264D+03
 CCSD(T)
 CCSD(T)= -0.15266035850D+03

 The electronic state is 1-A'.
 Alpha  occ. eigenvalues --  -20.55335 -20.54227  -1.32610  -1.31500  -0.70026
 Alpha  occ. eigenvalues --   -0.68877  -0.56016  -0.54868  -0.49720  -0.48616
 Alpha virt. eigenvalues --    0.13509   0.16193   0.20127   0.22277   0.53722
 Alpha virt. eigenvalues --    0.54674   0.57426   0.58539   0.64438   0.76172
 Alpha virt. eigenvalues --    0.78628   0.78685   0.80179   0.80690   0.84998

 Mulliken charges:
               1
     1  O   -0.496394
     2  H    0.244586
     3  H    0.254114
     4  O   -0.500313
     5  H    0.241552
     6  H    0.256456
 Sum of Mulliken charges =  -0.00000

 Dipole moment (field-independent basis, Debye):
    X=             -1.6589    Y=             -1.0535    Z=              0.0000  Tot=              1.9651
 Quadrupole moment (field-independent basis, Debye-Ang):
   XX=             -9.3578   YY=              0.2981   ZZ=            -14.7142
   XY=             -2.4783   XZ=              0.0000   YZ=              0.0000

 Normal termination of Gaussian 16 at Sat Aug 27 07:40:47 2022.
