 Gaussian 16, Revision A.03,
 Gaussian 16:  ES64L-G16RevA.03 25-Dec-2016

 ------------------
 #p CCSD(T)/cc-pVTZ
 ------------------

 ------------
 H2O_H2O_2813
 ------------
 Symbolic Z-matrix:
 Charge =  0 Multiplicity = 1

                         Standard orientation:
 ---------------------------------------------------------------------
 Center     Atomic      Atomic             Coordinates (Angstroms)
 Number     Number       Type             X           Y           Z
 ---------------------------------------------------------------------
      1          8           0        0.042971   -2.271682    0.000000
      2          1           0       -0.757520   -2.841524    0.000000
      3          1           0        0.841620   -2.844104    0.000000
      4          8           0        0.042971    2.310456    0.000000
      5          1           0        0.142343    3.288019    0.000000
      6          1           0       -0.913984    2.087423    0.000000
 ---------------------------------------------------------------------

 SCF Done:  E(RHF) =  -152.106591442     A.U. after   10 cycles
 E2 =    -0.5260399622D+00 EUMP2 =    -0.15263263140387D+03
 CCSD(T)
 CCSD(T)= -0.15265986115D+03

 The electronic state is 1-A'.
 Alpha  occ. eigenvalues --  -20.55194 -20.54751  -1.32487  -1.32040  -0.69897
 Alpha  occ. eigenvalues --   -0.69435  -0.55892  -0.55445  -0.49592  -0.49149
 Alpha virt. eigenvalues --    0.13949   0.15236   0.20337   0.21076   0.54375
 Alpha virt. eigenvalues --    0.55102   0.57522   0.57925   0.66332   0.71511
 Alpha virt. eigenvalues --    0.79274   0.79732   0.80549   0.81426   0.82890

 Mulliken charges:
               1
     1  O   -0.503701
     2  H    0.249532
     3  H    0.254328
     4  O   -0.503305
     5  H    0.248010
     6  H    0.255136
 Sum of Mulliken charges =   0.00000

 Dipole moment (field-independent basis, Debye):
    X=             -1.4638    Y=             -0.6908    Z=              0.0000  Tot=              1.6186
 Quadrupole moment (field-independent basis, Debye-Ang):
   XX=             -8.9704   YY=              4.2544   ZZ=            -14.7112
   XY=             -2.5779   XZ=              0.0000   YZ=              0.0000

 Normal termination of Gaussian 16 at Fri Aug 26 16:25:05 2022.
