 Gaussian 16, Revision A.03,
 Gaussian 16:  ES64L-G16RevA.03 25-Dec-2016

 ------------------
 #p CCSD(T)/cc-pVTZ
 ------------------

 ------------
 H2O_H2O_2571
 ------------
 Symbolic Z-matrix:
 Charge =  0 Multiplicity = 1

                         Standard orientation:
 ---------------------------------------------------------------------
 Center     Atomic      Atomic             Coordinates (Angstroms)
 Number     Number       Type             X           Y           Z
 ---------------------------------------------------------------------
      1          8           0        0.056118   -2.109984    0.000000
      2          1           0       -0.744728   -2.679326    0.000000
      3          1           0        0.854410   -2.682903    0.000000
      4          8           0        0.056118    2.201675    0.000000
      5          1           0       -0.346046    3.098207    0.000000
      6          1           0       -0.661532    1.530493    0.000000
 ---------------------------------------------------------------------

 SCF Done:  E(RHF) =  -152.107967447     A.U. after   10 cycles
 E2 =    -0.5260533846D+00 EUMP2 =    -0.15263402083151D+03
 CCSD(T)
 CCSD(T)= -0.15266120621D+03

 The electronic state is 1-A'.
 Alpha  occ. eigenvalues --  -20.55810 -20.54535  -1.33093  -1.31830  -0.70501
 Alpha  occ. eigenvalues --   -0.69207  -0.56550  -0.55283  -0.50209  -0.48952
 Alpha virt. eigenvalues --    0.13192   0.15691   0.19951   0.21965   0.54040
 Alpha virt. eigenvalues --    0.54686   0.57054   0.58272   0.66277   0.72503
 Alpha virt. eigenvalues --    0.78664   0.79521   0.79919   0.81267   0.82434

 Mulliken charges:
               1
     1  O   -0.507460
     2  H    0.251070
     3  H    0.257948
     4  O   -0.510232
     5  H    0.247749
     6  H    0.260926
 Sum of Mulliken charges =   0.00000

 Dipole moment (field-independent basis, Debye):
    X=             -1.9061    Y=             -1.6588    Z=              0.0000  Tot=              2.5268
 Quadrupole moment (field-independent basis, Debye-Ang):
   XX=             -9.7823   YY=              0.1354   ZZ=            -14.7150
   XY=             -4.0435   XZ=              0.0000   YZ=              0.0000

 Normal termination of Gaussian 16 at Fri Aug 26 13:51:44 2022.
