 Gaussian 16, Revision A.03,
 Gaussian 16:  ES64L-G16RevA.03 25-Dec-2016

 ------------------
 #p CCSD(T)/cc-pVTZ
 ------------------

 -----------
 H2O_H2O_740
 -----------
 Symbolic Z-matrix:
 Charge =  0 Multiplicity = 1

                         Standard orientation:
 ---------------------------------------------------------------------
 Center     Atomic      Atomic             Coordinates (Angstroms)
 Number     Number       Type             X           Y           Z
 ---------------------------------------------------------------------
      1          8           0        0.047575   -1.161783    0.000000
      2          1           0       -0.753958   -1.730158    0.000000
      3          1           0        0.845174   -1.735665    0.000000
      4          8           0        0.047575    1.212221    0.000000
      5          1           0        0.020297    2.194445    0.000000
      6          1           0       -0.872713    0.867873    0.000000
 ---------------------------------------------------------------------

 SCF Done:  E(RHF) =  -152.092992284     A.U. after   11 cycles
 E2 =    -0.5302339726D+00 EUMP2 =    -0.15262322625632D+03
 CCSD(T)
 CCSD(T)= -0.15265036638D+03

 The electronic state is 1-A'.
 Alpha  occ. eigenvalues --  -20.54517 -20.52652  -1.32458  -1.29842  -0.69812
 Alpha  occ. eigenvalues --   -0.67919  -0.56536  -0.51296  -0.49606  -0.46757
 Alpha virt. eigenvalues --    0.13875   0.17679   0.20055   0.23740   0.53009
 Alpha virt. eigenvalues --    0.57568   0.58613   0.60890   0.71115   0.75191
 Alpha virt. eigenvalues --    0.78334   0.81289   0.83198   0.85179   0.87583

 Mulliken charges:
               1
     1  O   -0.463890
     2  H    0.225151
     3  H    0.244107
     4  O   -0.457625
     5  H    0.205661
     6  H    0.246595
 Sum of Mulliken charges =  -0.00000

 Dipole moment (field-independent basis, Debye):
    X=             -1.4635    Y=             -1.0035    Z=              0.0000  Tot=              1.7745
 Quadrupole moment (field-independent basis, Debye-Ang):
   XX=             -9.3242   YY=             -4.0630   ZZ=            -14.7245
   XY=             -1.2979   XZ=              0.0000   YZ=              0.0000

 Normal termination of Gaussian 16 at Fri Aug 26 19:35:04 2022.
