 Gaussian 16, Revision A.03,
 Gaussian 16:  ES64L-G16RevA.03 25-Dec-2016

 ------------------
 #p CCSD(T)/cc-pVTZ
 ------------------

 ------------
 H2O_H2O_2113
 ------------
 Symbolic Z-matrix:
 Charge =  0 Multiplicity = 1

                         Standard orientation:
 ---------------------------------------------------------------------
 Center     Atomic      Atomic             Coordinates (Angstroms)
 Number     Number       Type             X           Y           Z
 ---------------------------------------------------------------------
      1          8           0        0.042977   -1.899411    0.000000
      2          1           0       -0.757692   -2.469002    0.000000
      3          1           0        0.841447   -2.472082    0.000000
      4          8           0        0.042977    1.938157    0.000000
      5          1           0        0.142655    2.915690    0.000000
      6          1           0       -0.914047    1.715424    0.000000
 ---------------------------------------------------------------------

 SCF Done:  E(RHF) =  -152.106143785     A.U. after   10 cycles
 E2 =    -0.5263312679D+00 EUMP2 =    -0.15263247505324D+03
 CCSD(T)
 CCSD(T)= -0.15265969038D+03

 The electronic state is 1-A'.
 Alpha  occ. eigenvalues --  -20.55063 -20.54403  -1.32343  -1.31678  -0.69759
 Alpha  occ. eigenvalues --   -0.69068  -0.55745  -0.55009  -0.49449  -0.48787
 Alpha virt. eigenvalues --    0.13710   0.15918   0.20294   0.21670   0.53443
 Alpha virt. eigenvalues --    0.55177   0.57640   0.58326   0.63982   0.75678
 Alpha virt. eigenvalues --    0.79081   0.79524   0.80394   0.81108   0.83728

 Mulliken charges:
               1
     1  O   -0.497159
     2  H    0.245317
     3  H    0.252819
     4  O   -0.498177
     5  H    0.243216
     6  H    0.253984
 Sum of Mulliken charges =  -0.00000

 Dipole moment (field-independent basis, Debye):
    X=             -1.4468    Y=             -0.7090    Z=              0.0000  Tot=              1.6112
 Quadrupole moment (field-independent basis, Debye-Ang):
   XX=             -8.9810   YY=              1.7268   ZZ=            -14.7120
   XY=             -2.0405   XZ=              0.0000   YZ=              0.0000

 Normal termination of Gaussian 16 at Sat Aug 27 08:39:49 2022.
