 Gaussian 16, Revision A.03,
 Gaussian 16:  ES64L-G16RevA.03 25-Dec-2016

 ------------------
 #p CCSD(T)/cc-pVTZ
 ------------------

 ------------
 H2O_H2O_3963
 ------------
 Symbolic Z-matrix:
 Charge =  0 Multiplicity = 1

                         Standard orientation:
 ---------------------------------------------------------------------
 Center     Atomic      Atomic             Coordinates (Angstroms)
 Number     Number       Type             X           Y           Z
 ---------------------------------------------------------------------
      1          8           0        0.042965   -2.883279    0.000000
      2          1           0       -0.757333   -3.453392    0.000000
      3          1           0        0.841808   -3.455429    0.000000
      4          8           0        0.042965    2.922081    0.000000
      5          1           0        0.142004    3.899680    0.000000
      6          1           0       -0.913914    2.698723    0.000000
 ---------------------------------------------------------------------

 SCF Done:  E(RHF) =  -152.107012434     A.U. after   10 cycles
 E2 =    -0.5259234140D+00 EUMP2 =    -0.15263293584821D+03
 CCSD(T)
 CCSD(T)= -0.15266016379D+03

 The electronic state is 1-A'.
 Alpha  occ. eigenvalues --  -20.55350 -20.55083  -1.32647  -1.32378  -0.70054
 Alpha  occ. eigenvalues --   -0.69779  -0.56076  -0.55807  -0.49756  -0.49487
 Alpha virt. eigenvalues --    0.14259   0.14590   0.20339   0.20639   0.54507
 Alpha virt. eigenvalues --    0.54802   0.57394   0.57665   0.68047   0.68518
 Alpha virt. eigenvalues --    0.79123   0.79387   0.80561   0.80848   0.82504

 Mulliken charges:
               1
     1  O   -0.506562
     2  H    0.252045
     3  H    0.254518
     4  O   -0.506320
     5  H    0.251200
     6  H    0.255118
 Sum of Mulliken charges =  -0.00000

 Dipole moment (field-independent basis, Debye):
    X=             -1.4743    Y=             -0.6798    Z=              0.0000  Tot=              1.6235
 Quadrupole moment (field-independent basis, Debye-Ang):
   XX=             -8.9654   YY=              8.3501   ZZ=            -14.7112
   XY=             -3.4674   XZ=              0.0000   YZ=              0.0000

 Normal termination of Gaussian 16 at Sat Aug 27 04:36:10 2022.
