 Gaussian 16, Revision A.03,
 Gaussian 16:  ES64L-G16RevA.03 25-Dec-2016

 ------------------
 #p CCSD(T)/cc-pVTZ
 ------------------

 ------------
 H2O_H2O_4066
 ------------
 Symbolic Z-matrix:
 Charge =  0 Multiplicity = 1

                         Standard orientation:
 ---------------------------------------------------------------------
 Center     Atomic      Atomic             Coordinates (Angstroms)
 Number     Number       Type             X           Y           Z
 ---------------------------------------------------------------------
      1          8           0        0.049503   -2.926596    0.000000
      2          1           0       -0.750891   -3.496575    0.000000
      3          1           0        0.848250   -3.498879    0.000000
      4          8           0        0.049503    2.983566    0.000000
      5          1           0       -0.043917    3.961717    0.000000
      6          1           0       -0.845483    2.577973    0.000000
 ---------------------------------------------------------------------

 SCF Done:  E(RHF) =  -152.107215777     A.U. after   10 cycles
 E2 =    -0.5259041286D+00 EUMP2 =    -0.15263311990577D+03
 CCSD(T)
 CCSD(T)= -0.15266034357D+03

 The electronic state is 1-A'.
 Alpha  occ. eigenvalues --  -20.55472 -20.55092  -1.32770  -1.32388  -0.70177
 Alpha  occ. eigenvalues --   -0.69787  -0.56208  -0.55825  -0.49880  -0.49500
 Alpha virt. eigenvalues --    0.14155   0.14594   0.20246   0.20666   0.54383
 Alpha virt. eigenvalues --    0.54792   0.57288   0.57670   0.67920   0.68463
 Alpha virt. eigenvalues --    0.79000   0.79374   0.80433   0.80831   0.82387

 Mulliken charges:
               1
     1  O   -0.507766
     2  H    0.252543
     3  H    0.255226
     4  O   -0.507479
     5  H    0.251438
     6  H    0.256038
 Sum of Mulliken charges =   0.00000

 Dipole moment (field-independent basis, Debye):
    X=             -1.6995    Y=             -0.9978    Z=              0.0000  Tot=              1.9707
 Quadrupole moment (field-independent basis, Debye-Ang):
   XX=             -9.3455   YY=              7.1751   ZZ=            -14.7117
   XY=             -4.3667   XZ=              0.0000   YZ=              0.0000

 Normal termination of Gaussian 16 at Sat Aug 27 05:11:44 2022.
