 Gaussian 16, Revision A.03,
 Gaussian 16:  ES64L-G16RevA.03 25-Dec-2016

 ------------------
 #p CCSD(T)/cc-pVTZ
 ------------------

 -----------
 H2O_H2O_184
 -----------
 Symbolic Z-matrix:
 Charge =  0 Multiplicity = 1

                         Standard orientation:
 ---------------------------------------------------------------------
 Center     Atomic      Atomic             Coordinates (Angstroms)
 Number     Number       Type             X           Y           Z
 ---------------------------------------------------------------------
      1          8           0        0.031760   -0.886317    0.000000
      2          1           0       -0.769549   -1.455009    0.000000
      3          1           0        0.829585   -1.459884    0.000000
      4          8           0        0.031760    0.905374    0.000000
      5          1           0        0.382075    1.823407    0.000000
      6          1           0       -0.950265    0.939030    0.000000
 ---------------------------------------------------------------------

 SCF Done:  E(RHF) =  -152.002935172     A.U. after   11 cycles
 E2 =    -0.5416154810D+00 EUMP2 =    -0.15254455065256D+03
 CCSD(T)
 CCSD(T)= -0.15257055855D+03

 The electronic state is 1-A'.
 Alpha  occ. eigenvalues --  -20.52026 -20.51431  -1.34382  -1.27556  -0.70659
 Alpha  occ. eigenvalues --   -0.67671  -0.61375  -0.51042  -0.44018  -0.39996
 Alpha virt. eigenvalues --    0.14371   0.18747   0.20031   0.23440   0.53065
 Alpha virt. eigenvalues --    0.56896   0.58742   0.65261   0.71080   0.78091
 Alpha virt. eigenvalues --    0.79527   0.82758   0.83515   0.85491   0.88521

 Mulliken charges:
               1
     1  O   -0.401514
     2  H    0.190091
     3  H    0.210148
     4  O   -0.373424
     5  H    0.147412
     6  H    0.227288
 Sum of Mulliken charges =  -0.00000

 Dipole moment (field-independent basis, Debye):
    X=             -0.8877    Y=             -0.4333    Z=              0.0000  Tot=              0.9878
 Quadrupole moment (field-independent basis, Debye-Ang):
   XX=             -8.7892   YY=             -7.3464   ZZ=            -14.7215
   XY=             -0.3934   XZ=              0.0000   YZ=              0.0000

 Normal termination of Gaussian 16 at Fri Aug 26 13:45:08 2022.
