 Gaussian 16, Revision A.03,
 Gaussian 16:  ES64L-G16RevA.03 25-Dec-2016

 ------------------
 #p CCSD(T)/cc-pVTZ
 ------------------

 ------------
 H2O_H2O_2768
 ------------
 Symbolic Z-matrix:
 Charge =  0 Multiplicity = 1

                         Standard orientation:
 ---------------------------------------------------------------------
 Center     Atomic      Atomic             Coordinates (Angstroms)
 Number     Number       Type             X           Y           Z
 ---------------------------------------------------------------------
      1          8           0        0.052836   -2.227968    0.000000
      2          1           0       -0.747879   -2.797494    0.000000
      3          1           0        0.851259   -2.800703    0.000000
      4          8           0        0.052836    2.298270    0.000000
      5          1           0       -0.166916    3.255983    0.000000
      6          1           0       -0.781846    1.779799    0.000000
 ---------------------------------------------------------------------

 SCF Done:  E(RHF) =  -152.107314642     A.U. after   10 cycles
 E2 =    -0.5260165771D+00 EUMP2 =    -0.15263333121943D+03
 CCSD(T)
 CCSD(T)= -0.15266054029D+03

 The electronic state is 1-A'.
 Alpha  occ. eigenvalues --  -20.55535 -20.54681  -1.32825  -1.31973  -0.70234
 Alpha  occ. eigenvalues --   -0.69358  -0.56260  -0.55407  -0.49936  -0.49088
 Alpha virt. eigenvalues --    0.13540   0.15409   0.20114   0.21401   0.54106
 Alpha virt. eigenvalues --    0.54872   0.57261   0.58003   0.66375   0.71778
 Alpha virt. eigenvalues --    0.78943   0.79781   0.79983   0.81297   0.82747

 Mulliken charges:
               1
     1  O   -0.506739
     2  H    0.250670
     3  H    0.256638
     4  O   -0.507162
     5  H    0.248140
     6  H    0.258453
 Sum of Mulliken charges =  -0.00000

 Dipole moment (field-independent basis, Debye):
    X=             -1.7991    Y=             -1.2591    Z=              0.0000  Tot=              2.1959
 Quadrupole moment (field-independent basis, Debye-Ang):
   XX=             -9.5595   YY=              2.1382   ZZ=            -14.7130
   XY=             -3.6433   XZ=              0.0000   YZ=              0.0000

 Normal termination of Gaussian 16 at Fri Aug 26 15:56:30 2022.
