 Gaussian 16, Revision A.03,
 Gaussian 16:  ES64L-G16RevA.03 25-Dec-2016

 ------------------
 #p CCSD(T)/cc-pVTZ
 ------------------

 ------------
 H2O_H2O_1110
 ------------
 Symbolic Z-matrix:
 Charge =  0 Multiplicity = 1

                         Standard orientation:
 ---------------------------------------------------------------------
 Center     Atomic      Atomic             Coordinates (Angstroms)
 Number     Number       Type             X           Y           Z
 ---------------------------------------------------------------------
      1          8           0        0.034794   -1.375879    0.000000
      2          1           0       -0.766007   -1.945285    0.000000
      3          1           0        0.833131   -1.948734    0.000000
      4          8           0        0.034794    1.399333    0.000000
      5          1           0        0.323480    2.338571    0.000000
      6          1           0       -0.947303    1.367813    0.000000
 ---------------------------------------------------------------------

 SCF Done:  E(RHF) =  -152.100691173     A.U. after   11 cycles
 E2 =    -0.5279946949D+00 EUMP2 =    -0.15262868586755D+03
 CCSD(T)
 CCSD(T)= -0.15265594796D+03

 The electronic state is 1-A'.
 Alpha  occ. eigenvalues --  -20.54162 -20.53500  -1.31588  -1.30738  -0.68997
 Alpha  occ. eigenvalues --   -0.68208  -0.56051  -0.52562  -0.48775  -0.47708
 Alpha virt. eigenvalues --    0.14154   0.17003   0.20377   0.22529   0.52766
 Alpha virt. eigenvalues --    0.58197   0.58487   0.59765   0.68867   0.76560
 Alpha virt. eigenvalues --    0.76772   0.77405   0.81502   0.83164   0.85826

 Mulliken charges:
               1
     1  O   -0.474067
     2  H    0.231044
     3  H    0.243650
     4  O   -0.465915
     5  H    0.223996
     6  H    0.241292
 Sum of Mulliken charges =  -0.00000

 Dipole moment (field-independent basis, Debye):
    X=             -1.1171    Y=             -0.4499    Z=              0.0000  Tot=              1.2043
 Quadrupole moment (field-independent basis, Debye-Ang):
   XX=             -8.6596   YY=             -1.8323   ZZ=            -14.7169
   XY=             -0.8804   XZ=              0.0000   YZ=              0.0000

 Normal termination of Gaussian 16 at Sat Aug 27 02:12:42 2022.
