 Gaussian 16, Revision A.03,
 Gaussian 16:  ES64L-G16RevA.03 25-Dec-2016

 ------------------
 #p CCSD(T)/cc-pVTZ
 ------------------

 ------------
 H2O_H2O_4318
 ------------
 Symbolic Z-matrix:
 Charge =  0 Multiplicity = 1

                         Standard orientation:
 ---------------------------------------------------------------------
 Center     Atomic      Atomic             Coordinates (Angstroms)
 Number     Number       Type             X           Y           Z
 ---------------------------------------------------------------------
      1          8           0        0.052818   -3.052285    0.000000
      2          1           0       -0.747593   -3.622240    0.000000
      3          1           0        0.851547   -3.624592    0.000000
      4          8           0        0.052818    3.122643    0.000000
      5          1           0       -0.167448    4.080238    0.000000
      6          1           0       -0.781587    2.603725    0.000000
 ---------------------------------------------------------------------

 SCF Done:  E(RHF) =  -152.107362823     A.U. after   10 cycles
 E2 =    -0.5258864444D+00 EUMP2 =    -0.15263324926692D+03
 CCSD(T)
 CCSD(T)= -0.15266047011D+03

 The electronic state is 1-A'.
 Alpha  occ. eigenvalues --  -20.55560 -20.55132  -1.32859  -1.32429  -0.70265
 Alpha  occ. eigenvalues --   -0.69829  -0.56304  -0.55873  -0.49970  -0.49542
 Alpha virt. eigenvalues --    0.14095   0.14552   0.20182   0.20644   0.54295
 Alpha virt. eigenvalues --    0.54747   0.57211   0.57640   0.67855   0.68361
 Alpha virt. eigenvalues --    0.78910   0.79331   0.80341   0.80792   0.82282

 Mulliken charges:
               1
     1  O   -0.508630
     2  H    0.253071
     3  H    0.255560
     4  O   -0.508351
     5  H    0.251902
     6  H    0.256447
 Sum of Mulliken charges =  -0.00000

 Dipole moment (field-independent basis, Debye):
    X=             -1.8147    Y=             -1.2304    Z=              0.0000  Tot=              2.1925
 Quadrupole moment (field-independent basis, Debye-Ang):
   XX=             -9.5593   YY=              6.7184   ZZ=            -14.7120
   XY=             -5.1204   XZ=              0.0000   YZ=              0.0000

 Normal termination of Gaussian 16 at Sat Aug 27 06:38:30 2022.
