 Gaussian 16, Revision A.03,
 Gaussian 16:  ES64L-G16RevA.03 25-Dec-2016

 ------------------
 #p CCSD(T)/cc-pVTZ
 ------------------

 ------------
 H2O_H2O_4275
 ------------
 Symbolic Z-matrix:
 Charge =  0 Multiplicity = 1

                         Standard orientation:
 ---------------------------------------------------------------------
 Center     Atomic      Atomic             Coordinates (Angstroms)
 Number     Number       Type             X           Y           Z
 ---------------------------------------------------------------------
      1          8           0        0.000000   -0.000000    3.077200
      2          1           0        0.000000    0.799571    3.648332
      3          1           0       -0.000000   -0.799571    3.648332
      4          8           0        0.000000   -0.000000   -3.077200
      5          1           0       -0.000000   -0.799571   -3.648332
      6          1           0        0.000000    0.799571   -3.648332
 ---------------------------------------------------------------------

 SCF Done:  E(RHF) =  -152.106758875     A.U. after   10 cycles
 E2 =    -0.5259374209D+00 EUMP2 =    -0.15263269629634D+03
 CCSD(T)
 CCSD(T)= -0.15265993014D+03

 The electronic state is 1-AG.
 Alpha  occ. eigenvalues --  -20.55162 -20.55162  -1.32458  -1.32458  -0.69865
 Alpha  occ. eigenvalues --   -0.69865  -0.55875  -0.55875  -0.49565  -0.49565
 Alpha virt. eigenvalues --    0.14443   0.14479   0.20494   0.20510   0.54700
 Alpha virt. eigenvalues --    0.54709   0.57562   0.57570   0.68320   0.68411
 Alpha virt. eigenvalues --    0.79314   0.79314   0.80758   0.80760   0.82689

 Mulliken charges:
               1
     1  O   -0.505035
     2  H    0.252518
     3  H    0.252518
     4  O   -0.505035
     5  H    0.252518
     6  H    0.252518
 Sum of Mulliken charges =  -0.00000

 Dipole moment (field-independent basis, Debye):
    X=             -0.0000    Y=              0.0000    Z=              0.0000  Tot=              0.0000
 Quadrupole moment (field-independent basis, Debye-Ang):
   XX=            -14.7106   YY=             -7.8039   ZZ=             12.5826
   XY=              0.0000   XZ=              0.0000   YZ=             -0.0000

 3\MP4DQ=-152.641822\MP4SDQ=-152.6448826\CCSD=-152.6442941\CCSD(T)=-152
 Normal termination of Gaussian 16 at Sat Aug 27 06:23:33 2022.
