 Gaussian 16, Revision A.03,
 Gaussian 16:  ES64L-G16RevA.03 25-Dec-2016

 ------------------
 #p CCSD(T)/cc-pVTZ
 ------------------

 ------------
 H2O_H2O_2640
 ------------
 Symbolic Z-matrix:
 Charge =  0 Multiplicity = 1

                         Standard orientation:
 ---------------------------------------------------------------------
 Center     Atomic      Atomic             Coordinates (Angstroms)
 Number     Number       Type             X           Y           Z
 ---------------------------------------------------------------------
      1          8           0        0.047535   -2.172193    0.000000
      2          1           0       -0.753097   -2.741837    0.000000
      3          1           0        0.846042   -2.744812    0.000000
      4          8           0        0.047535    2.222782    0.000000
      5          1           0        0.018701    3.204962    0.000000
      6          1           0       -0.872207    1.876978    0.000000
 ---------------------------------------------------------------------

 SCF Done:  E(RHF) =  -152.106799850     A.U. after   10 cycles
 E2 =    -0.5260697097D+00 EUMP2 =    -0.15263286955996D+03
 CCSD(T)
 CCSD(T)= -0.15266008946D+03

 The electronic state is 1-A'.
 Alpha  occ. eigenvalues --  -20.55303 -20.54659  -1.32593  -1.31946  -0.70003
 Alpha  occ. eigenvalues --   -0.69336  -0.56004  -0.55358  -0.49700  -0.49058
 Alpha virt. eigenvalues --    0.13715   0.15443   0.20240   0.21312   0.54122
 Alpha virt. eigenvalues --    0.55003   0.57447   0.58015   0.65901   0.72635
 Alpha virt. eigenvalues --    0.79156   0.79832   0.80254   0.81739   0.83180

 Mulliken charges:
               1
     1  O   -0.504070
     2  H    0.249303
     3  H    0.255189
     4  O   -0.504130
     5  H    0.247272
     6  H    0.256436
 Sum of Mulliken charges =  -0.00000

 Dipole moment (field-independent basis, Debye):
    X=             -1.6159    Y=             -0.9073    Z=              0.0000  Tot=              1.8531
 Quadrupole moment (field-independent basis, Debye-Ang):
   XX=             -9.2287   YY=              2.9654   ZZ=            -14.7120
   XY=             -2.8784   XZ=              0.0000   YZ=              0.0000

 Normal termination of Gaussian 16 at Fri Aug 26 14:38:07 2022.
