 Gaussian 16, Revision A.03,
 Gaussian 16:  ES64L-G16RevA.03 25-Dec-2016

 ------------------
 #p CCSD(T)/cc-pVTZ
 ------------------

 ------------
 H2O_H2O_1259
 ------------
 Symbolic Z-matrix:
 Charge =  0 Multiplicity = 1

                         Standard orientation:
 ---------------------------------------------------------------------
 Center     Atomic      Atomic             Coordinates (Angstroms)
 Number     Number       Type             X           Y           Z
 ---------------------------------------------------------------------
      1          8           0        0.031748   -1.458002    0.000000
      2          1           0       -0.768884   -2.027645    0.000000
      3          1           0        0.830255   -2.030621    0.000000
      4          8           0        0.031748    1.477135    0.000000
      5          1           0        0.380973    2.395583    0.000000
      6          1           0       -0.950316    1.509623    0.000000
 ---------------------------------------------------------------------

 SCF Done:  E(RHF) =  -152.102050416     A.U. after   11 cycles
 E2 =    -0.5275424560D+00 EUMP2 =    -0.15262959287208D+03
 CCSD(T)
 CCSD(T)= -0.15265685783D+03

 The electronic state is 1-A'.
 Alpha  occ. eigenvalues --  -20.54212 -20.53716  -1.31568  -1.30965  -0.68988
 Alpha  occ. eigenvalues --   -0.68403  -0.55794  -0.53102  -0.48735  -0.47968
 Alpha virt. eigenvalues --    0.14163   0.16803   0.20422   0.22248   0.52635
 Alpha virt. eigenvalues --    0.58198   0.58368   0.59234   0.67157   0.76507
 Alpha virt. eigenvalues --    0.77321   0.78016   0.80037   0.82799   0.85829

 Mulliken charges:
               1
     1  O   -0.476299
     2  H    0.233185
     3  H    0.243748
     4  O   -0.471205
     5  H    0.228791
     6  H    0.241780
 Sum of Mulliken charges =  -0.00000

 Dipole moment (field-independent basis, Debye):
    X=             -1.0317    Y=             -0.3638    Z=              0.0000  Tot=              1.0940
 Quadrupole moment (field-independent basis, Debye-Ang):
   XX=             -8.5192   YY=             -1.0685   ZZ=            -14.7136
   XY=             -0.8421   XZ=              0.0000   YZ=              0.0000

 Normal termination of Gaussian 16 at Sat Aug 27 03:26:07 2022.
