 Gaussian 16, Revision A.03,
 Gaussian 16:  ES64L-G16RevA.03 25-Dec-2016

 ------------------
 #p CCSD(T)/cc-pVTZ
 ------------------

 ------------
 H2O_H2O_4612
 ------------
 Symbolic Z-matrix:
 Charge =  0 Multiplicity = 1

                         Standard orientation:
 ---------------------------------------------------------------------
 Center     Atomic      Atomic             Coordinates (Angstroms)
 Number     Number       Type             X           Y           Z
 ---------------------------------------------------------------------
      1          8           0        0.040403   -3.231923    0.000000
      2          1           0       -0.759779   -3.802199    0.000000
      3          1           0        0.839362   -3.803911    0.000000
      4          8           0        0.040403    3.265293    0.000000
      5          1           0        0.202971    4.234353    0.000000
      6          1           0       -0.929003    3.104800    0.000000
 ---------------------------------------------------------------------

 SCF Done:  E(RHF) =  -152.107106651     A.U. after   10 cycles
 E2 =    -0.5259039607D+00 EUMP2 =    -0.15263301061184D+03
 CCSD(T)
 CCSD(T)= -0.15266023725D+03

 The electronic state is 1-A'.
 Alpha  occ. eigenvalues --  -20.55382 -20.55200  -1.32679  -1.32496  -0.70086
 Alpha  occ. eigenvalues --   -0.69899  -0.56113  -0.55930  -0.49789  -0.49606
 Alpha virt. eigenvalues --    0.14268   0.14454   0.20328   0.20520   0.54479
 Alpha virt. eigenvalues --    0.54675   0.57371   0.57554   0.68096   0.68289
 Alpha virt. eigenvalues --    0.79091   0.79271   0.80528   0.80725   0.82454

 Mulliken charges:
               1
     1  O   -0.507098
     2  H    0.252707
     3  H    0.254391
     4  O   -0.506964
     5  H    0.252148
     6  H    0.254816
 Sum of Mulliken charges =  -0.00000

 Dipole moment (field-independent basis, Debye):
    X=             -1.3889    Y=             -0.5821    Z=              0.0000  Tot=              1.5060
 Quadrupole moment (field-independent basis, Debye-Ang):
   XX=             -8.8300   YY=             11.1412   ZZ=            -14.7113
   XY=             -3.6678   XZ=              0.0000   YZ=              0.0000

 Normal termination of Gaussian 16 at Sat Aug 27 08:20:06 2022.
