 Gaussian 16, Revision A.03,
 Gaussian 16:  ES64L-G16RevA.03 25-Dec-2016

 ------------------
 #p CCSD(T)/cc-pVTZ
 ------------------

 ------------
 H2O_H2O_2563
 ------------
 Symbolic Z-matrix:
 Charge =  0 Multiplicity = 1

                         Standard orientation:
 ---------------------------------------------------------------------
 Center     Atomic      Atomic             Coordinates (Angstroms)
 Number     Number       Type             X           Y           Z
 ---------------------------------------------------------------------
      1          8           0        0.042973   -2.138728    0.000000
      2          1           0       -0.757575   -2.708490    0.000000
      3          1           0        0.841565   -2.711229    0.000000
      4          8           0        0.042973    2.177492    0.000000
      5          1           0        0.142442    3.155046    0.000000
      6          1           0       -0.914004    1.954555    0.000000
 ---------------------------------------------------------------------

 SCF Done:  E(RHF) =  -152.106462995     A.U. after   10 cycles
 E2 =    -0.5261070492D+00 EUMP2 =    -0.15263257004433D+03
 CCSD(T)
 CCSD(T)= -0.15265979662D+03

 The electronic state is 1-A'.
 Alpha  occ. eigenvalues --  -20.55152 -20.54644  -1.32441  -1.31930  -0.69852
 Alpha  occ. eigenvalues --   -0.69323  -0.55839  -0.55322  -0.49546  -0.49039
 Alpha virt. eigenvalues --    0.13829   0.15464   0.20323   0.21252   0.54121
 Alpha virt. eigenvalues --    0.55143   0.57564   0.58025   0.65445   0.73086
 Alpha virt. eigenvalues --    0.79283   0.79877   0.80433   0.81588   0.82992

 Mulliken charges:
               1
     1  O   -0.502256
     2  H    0.248493
     3  H    0.254094
     4  O   -0.502088
     5  H    0.246787
     6  H    0.254970
 Sum of Mulliken charges =  -0.00000

 Dipole moment (field-independent basis, Debye):
    X=             -1.4592    Y=             -0.6959    Z=              0.0000  Tot=              1.6167
 Quadrupole moment (field-independent basis, Debye-Ang):
   XX=             -8.9729   YY=              3.3573   ZZ=            -14.7114
   XY=             -2.3857   XZ=              0.0000   YZ=              0.0000

 Normal termination of Gaussian 16 at Fri Aug 26 13:46:22 2022.
