 Gaussian 16, Revision A.03,
 Gaussian 16:  ES64L-G16RevA.03 25-Dec-2016

 ------------------
 #p CCSD(T)/cc-pVTZ
 ------------------

 -----------
 H2O_H2O_408
 -----------
 Symbolic Z-matrix:
 Charge =  0 Multiplicity = 1

                         Standard orientation:
 ---------------------------------------------------------------------
 Center     Atomic      Atomic             Coordinates (Angstroms)
 Number     Number       Type             X           Y           Z
 ---------------------------------------------------------------------
      1          8           0        0.028575   -1.008095    0.000000
      2          1           0       -0.772376   -1.577290    0.000000
      3          1           0        0.826761   -1.581161    0.000000
      4          8           0        0.028575    1.023261    0.000000
      5          1           0        0.437623    1.916673    0.000000
      6          1           0       -0.949208    1.120457    0.000000
 ---------------------------------------------------------------------

 SCF Done:  E(RHF) =  -152.058288220     A.U. after   11 cycles
 E2 =    -0.5345658629D+00 EUMP2 =    -0.15259285408308D+03
 CCSD(T)
 CCSD(T)= -0.15261972129D+03

 The electronic state is 1-A'.
 Alpha  occ. eigenvalues --  -20.52454 -20.51966  -1.32189  -1.28722  -0.69039
 Alpha  occ. eigenvalues --   -0.67060  -0.59784  -0.49368  -0.45258  -0.45084
 Alpha virt. eigenvalues --    0.14478   0.18146   0.20338   0.23144   0.52166
 Alpha virt. eigenvalues --    0.58159   0.58694   0.64565   0.70329   0.77290
 Alpha virt. eigenvalues --    0.78588   0.82302   0.83901   0.86222   0.87838

 Mulliken charges:
               1
     1  O   -0.441480
     2  H    0.211096
     3  H    0.227927
     4  O   -0.414089
     5  H    0.183699
     6  H    0.232847
 Sum of Mulliken charges =   0.00000

 Dipole moment (field-independent basis, Debye):
    X=             -0.8347    Y=             -0.3139    Z=              0.0000  Tot=              0.8918
 Quadrupole moment (field-independent basis, Debye-Ang):
   XX=             -8.5874   YY=             -5.5456   ZZ=            -14.7376
   XY=             -0.3608   XZ=              0.0000   YZ=              0.0000

 Normal termination of Gaussian 16 at Fri Aug 26 16:11:10 2022.
