 Gaussian 16, Revision A.03,
 Gaussian 16:  ES64L-G16RevA.03 25-Dec-2016

 ------------------
 #p CCSD(T)/cc-pVTZ
 ------------------

 -----------
 H2O_H2O_535
 -----------
 Symbolic Z-matrix:
 Charge =  0 Multiplicity = 1

                         Standard orientation:
 ---------------------------------------------------------------------
 Center     Atomic      Atomic             Coordinates (Angstroms)
 Number     Number       Type             X           Y           Z
 ---------------------------------------------------------------------
      1          8           0        0.034801   -1.070095    0.000000
      2          1           0       -0.766347   -1.639013    0.000000
      3          1           0        0.832789   -1.643437    0.000000
      4          8           0        0.034801    1.093507    0.000000
      5          1           0        0.324060    2.032568    0.000000
      6          1           0       -0.947314    1.062585    0.000000
 ---------------------------------------------------------------------

 SCF Done:  E(RHF) =  -152.075923733     A.U. after   11 cycles
 E2 =    -0.5323172963D+00 EUMP2 =    -0.15260824102883D+03
 CCSD(T)
 CCSD(T)= -0.15263530472D+03

 The electronic state is 1-A'.
 Alpha  occ. eigenvalues --  -20.53118 -20.52331  -1.31934  -1.29287  -0.69051
 Alpha  occ. eigenvalues --   -0.67433  -0.58335  -0.49161  -0.47685  -0.45951
 Alpha virt. eigenvalues --    0.14338   0.17856   0.20313   0.23203   0.52718
 Alpha virt. eigenvalues --    0.57979   0.58420   0.63237   0.70739   0.76477
 Alpha virt. eigenvalues --    0.78366   0.81463   0.83714   0.85999   0.87748

 Mulliken charges:
               1
     1  O   -0.453906
     2  H    0.217051
     3  H    0.235069
     4  O   -0.427206
     5  H    0.191510
     6  H    0.237482
 Sum of Mulliken charges =  -0.00000

 Dipole moment (field-independent basis, Debye):
    X=             -1.0383    Y=             -0.4693    Z=              0.0000  Tot=              1.1394
 Quadrupole moment (field-independent basis, Debye-Ang):
   XX=             -8.7673   YY=             -4.7743   ZZ=            -14.7320
   XY=             -0.5644   XZ=              0.0000   YZ=              0.0000

 241939\MP4DQ=-152.6161481\MP4SDQ=-152.6195346\CCSD=-152.61882\CCSD(T)=
 Normal termination of Gaussian 16 at Fri Aug 26 17:25:25 2022.
