 Gaussian 16, Revision A.03,
 Gaussian 16:  ES64L-G16RevA.03 25-Dec-2016

 ------------------
 #p CCSD(T)/cc-pVTZ
 ------------------

 ------------
 H2O_H2O_2261
 ------------
 Symbolic Z-matrix:
 Charge =  0 Multiplicity = 1

                         Standard orientation:
 ---------------------------------------------------------------------
 Center     Atomic      Atomic             Coordinates (Angstroms)
 Number     Number       Type             X           Y           Z
 ---------------------------------------------------------------------
      1          8           0        0.037680   -1.984901    0.000000
      2          1           0       -0.762816   -2.554736    0.000000
      3          1           0        0.836324   -2.557329    0.000000
      4          8           0        0.037680    2.013125    0.000000
      5          1           0        0.263807    2.969354    0.000000
      6          1           0       -0.940201    1.916917    0.000000
 ---------------------------------------------------------------------

 SCF Done:  E(RHF) =  -152.105939668     A.U. after   10 cycles
 E2 =    -0.5262527088D+00 EUMP2 =    -0.15263219237686D+03
 CCSD(T)
 CCSD(T)= -0.15265942044D+03

 The electronic state is 1-A'.
 Alpha  occ. eigenvalues --  -20.54948 -20.54514  -1.32231  -1.31793  -0.69646
 Alpha  occ. eigenvalues --   -0.69190  -0.55629  -0.55117  -0.49334  -0.48898
 Alpha virt. eigenvalues --    0.13863   0.15716   0.20392   0.21376   0.53729
 Alpha virt. eigenvalues --    0.55404   0.57721   0.58167   0.63935   0.74827
 Alpha virt. eigenvalues --    0.79307   0.80189   0.80189   0.81195   0.82957

 Mulliken charges:
               1
     1  O   -0.497976
     2  H    0.246233
     3  H    0.252206
     4  O   -0.498002
     5  H    0.244687
     6  H    0.252852
 Sum of Mulliken charges =  -0.00000

 Dipole moment (field-independent basis, Debye):
    X=             -1.2730    Y=             -0.5122    Z=              0.0000  Tot=              1.3721
 Quadrupole moment (field-independent basis, Debye-Ang):
   XX=             -8.7136   YY=              2.7497   ZZ=            -14.7110
   XY=             -1.7660   XZ=              0.0000   YZ=              0.0000

 Normal termination of Gaussian 16 at Sat Aug 27 09:31:07 2022.
