 Gaussian 16, Revision A.03,
 Gaussian 16:  ES64L-G16RevA.03 25-Dec-2016

 ------------------
 #p CCSD(T)/cc-pVTZ
 ------------------

 ------------
 H2O_H2O_2109
 ------------
 Symbolic Z-matrix:
 Charge =  0 Multiplicity = 1

                         Standard orientation:
 ---------------------------------------------------------------------
 Center     Atomic      Atomic             Coordinates (Angstroms)
 Number     Number       Type             X           Y           Z
 ---------------------------------------------------------------------
      1          8           0        0.031744   -1.910048    0.000000
      2          1           0       -0.768639   -2.480042    0.000000
      3          1           0        0.830502   -2.482317    0.000000
      4          8           0        0.031744    1.929209    0.000000
      5          1           0        0.380567    2.847810    0.000000
      6          1           0       -0.950334    1.961267    0.000000
 ---------------------------------------------------------------------

 SCF Done:  E(RHF) =  -152.105458076     A.U. after   10 cycles
 E2 =    -0.5263607516D+00 EUMP2 =    -0.15263181882719D+03
 CCSD(T)
 CCSD(T)= -0.15265905198D+03

 The electronic state is 1-A'.
 Alpha  occ. eigenvalues --  -20.54766 -20.54447  -1.32047  -1.31723  -0.69465
 Alpha  occ. eigenvalues --   -0.69127  -0.55487  -0.54946  -0.49150  -0.48823
 Alpha virt. eigenvalues --    0.13961   0.15832   0.20462   0.21387   0.53571
 Alpha virt. eigenvalues --    0.55750   0.57843   0.58234   0.62982   0.75428
 Alpha virt. eigenvalues --    0.79281   0.79957   0.80453   0.81036   0.82913

 Mulliken charges:
               1
     1  O   -0.494462
     2  H    0.244653
     3  H    0.250226
     4  O   -0.494483
     5  H    0.243407
     6  H    0.250658
 Sum of Mulliken charges =   0.00000

 Dipole moment (field-independent basis, Debye):
    X=             -1.0690    Y=             -0.3500    Z=              0.0000  Tot=              1.1249
 Quadrupole moment (field-independent basis, Debye-Ang):
   XX=             -8.4634   YY=              2.5272   ZZ=            -14.7104
   XY=             -1.3136   XZ=              0.0000   YZ=              0.0000

 Normal termination of Gaussian 16 at Sat Aug 27 08:38:23 2022.
