 Gaussian 16, Revision A.03,
 Gaussian 16:  ES64L-G16RevA.03 25-Dec-2016

 ------------------
 #p CCSD(T)/cc-pVTZ
 ------------------

 ------------
 H2O_H2O_1113
 ------------
 Symbolic Z-matrix:
 Charge =  0 Multiplicity = 1

                         Standard orientation:
 ---------------------------------------------------------------------
 Center     Atomic      Atomic             Coordinates (Angstroms)
 Number     Number       Type             X           Y           Z
 ---------------------------------------------------------------------
      1          8           0        0.042992   -1.367608    0.000000
      2          1           0       -0.758099   -1.936607    0.000000
      3          1           0        0.841038   -1.940869    0.000000
      4          8           0        0.042992    1.406290    0.000000
      5          1           0        0.143391    2.383749    0.000000
      6          1           0       -0.914197    1.184265    0.000000
 ---------------------------------------------------------------------

 SCF Done:  E(RHF) =  -152.101979132     A.U. after   11 cycles
 E2 =    -0.5280030620D+00 EUMP2 =    -0.15262998219398D+03
 CCSD(T)
 CCSD(T)= -0.15265720942D+03

 The electronic state is 1-A'.
 Alpha  occ. eigenvalues --  -20.54588 -20.53437  -1.31995  -1.30677  -0.69412
 Alpha  occ. eigenvalues --   -0.68160  -0.56059  -0.52980  -0.49149  -0.47698
 Alpha virt. eigenvalues --    0.13959   0.17057   0.20216   0.22921   0.53509
 Alpha virt. eigenvalues --    0.57875   0.58177   0.58845   0.68981   0.76355
 Alpha virt. eigenvalues --    0.76433   0.76900   0.81715   0.82974   0.85494

 Mulliken charges:
               1
     1  O   -0.476278
     2  H    0.232152
     3  H    0.247051
     4  O   -0.471613
     5  H    0.223157
     6  H    0.245531
 Sum of Mulliken charges =   0.00000

 Dipole moment (field-independent basis, Debye):
    X=             -1.3787    Y=             -0.7470    Z=              0.0000  Tot=              1.5681
 Quadrupole moment (field-independent basis, Debye-Ang):
   XX=             -9.0402   YY=             -2.1540   ZZ=            -14.7190
   XY=             -1.2891   XZ=              0.0000   YZ=              0.0000

 Normal termination of Gaussian 16 at Sat Aug 27 02:14:08 2022.
