 Gaussian 16, Revision A.03,
 Gaussian 16:  ES64L-G16RevA.03 25-Dec-2016

 ------------------
 #p CCSD(T)/cc-pVTZ
 ------------------

 ------------
 H2O_H2O_1032
 ------------
 Symbolic Z-matrix:
 Charge =  0 Multiplicity = 1

                         Standard orientation:
 ---------------------------------------------------------------------
 Center     Atomic      Atomic             Coordinates (Angstroms)
 Number     Number       Type             X           Y           Z
 ---------------------------------------------------------------------
      1          8           0        0.025270   -1.342377    0.000000
      2          1           0       -0.775221   -1.912218    0.000000
      3          1           0        0.823919   -1.914797    0.000000
      4          8           0        0.025270    1.354075    0.000000
      5          1           0        0.491174    2.219199    0.000000
      6          1           0       -0.944192    1.514230    0.000000
 ---------------------------------------------------------------------

 SCF Done:  E(RHF) =  -152.098380176     A.U. after   11 cycles
 E2 =    -0.5282716915D+00 EUMP2 =    -0.15262665186781D+03
 CCSD(T)
 CCSD(T)= -0.15265394307D+03

 The electronic state is 1-A'.
 Alpha  occ. eigenvalues --  -20.53733 -20.53406  -1.31270  -1.30614  -0.68647
 Alpha  occ. eigenvalues --   -0.68115  -0.56240  -0.51796  -0.48509  -0.47500
 Alpha virt. eigenvalues --    0.14324   0.17114   0.20488   0.22353   0.51798
 Alpha virt. eigenvalues --    0.58470   0.58744   0.61007   0.70272   0.76639
 Alpha virt. eigenvalues --    0.76779   0.78265   0.81563   0.83472   0.86126

 Mulliken charges:
               1
     1  O   -0.469533
     2  H    0.229427
     3  H    0.239596
     4  O   -0.461274
     5  H    0.224656
     6  H    0.237129
 Sum of Mulliken charges =  -0.00000

 Dipole moment (field-independent basis, Debye):
    X=             -0.8070    Y=             -0.2242    Z=              0.0000  Tot=              0.8376
 Quadrupole moment (field-independent basis, Debye-Ang):
   XX=             -8.3273   YY=             -1.9978   ZZ=            -14.7175
   XY=             -0.5180   XZ=              0.0000   YZ=              0.0000

 Normal termination of Gaussian 16 at Sat Aug 27 01:32:59 2022.
