 Gaussian 16, Revision A.03,
 Gaussian 16:  ES64L-G16RevA.03 25-Dec-2016

 ------------------
 #p CCSD(T)/cc-pVTZ
 ------------------

 ------------
 H2O_H2O_1462
 ------------
 Symbolic Z-matrix:
 Charge =  0 Multiplicity = 1

                         Standard orientation:
 ---------------------------------------------------------------------
 Center     Atomic      Atomic             Coordinates (Angstroms)
 Number     Number       Type             X           Y           Z
 ---------------------------------------------------------------------
      1          8           0        0.040422   -1.556687    0.000000
      2          1           0       -0.760409   -2.126050    0.000000
      3          1           0        0.838729   -2.129584    0.000000
      4          8           0        0.040422    1.589964    0.000000
      5          1           0        0.204094    2.558839    0.000000
      6          1           0       -0.929167    1.430575    0.000000
 ---------------------------------------------------------------------

 SCF Done:  E(RHF) =  -152.104372661     A.U. after   10 cycles
 E2 =    -0.5270971239D+00 EUMP2 =    -0.15263146978503D+03
 CCSD(T)
 CCSD(T)= -0.15265869588D+03

 The electronic state is 1-A'.
 Alpha  occ. eigenvalues --  -20.54710 -20.53898  -1.32008  -1.31153  -0.69434
 Alpha  occ. eigenvalues --   -0.68557  -0.55708  -0.53996  -0.49130  -0.48231
 Alpha virt. eigenvalues --    0.13925   0.16606   0.20295   0.22323   0.53428
 Alpha virt. eigenvalues --    0.56644   0.57874   0.58692   0.65270   0.76600
 Alpha virt. eigenvalues --    0.77773   0.78238   0.79339   0.82081   0.85472

 Mulliken charges:
               1
     1  O   -0.482998
     2  H    0.236930
     3  H    0.248061
     4  O   -0.482628
     5  H    0.232654
     6  H    0.247982
 Sum of Mulliken charges =   0.00000

 Dipole moment (field-independent basis, Debye):
    X=             -1.3282    Y=             -0.6293    Z=              0.0000  Tot=              1.4698
 Quadrupole moment (field-independent basis, Debye-Ang):
   XX=             -8.8800   YY=             -0.5669   ZZ=            -14.7136
   XY=             -1.3876   XZ=              0.0000   YZ=              0.0000

 Normal termination of Gaussian 16 at Sat Aug 27 04:53:59 2022.
