 Gaussian 16, Revision A.03,
 Gaussian 16:  ES64L-G16RevA.03 25-Dec-2016

 ------------------
 #p CCSD(T)/cc-pVTZ
 ------------------

 ------------
 H2O_H2O_2267
 ------------
 Symbolic Z-matrix:
 Charge =  0 Multiplicity = 1

                         Standard orientation:
 ---------------------------------------------------------------------
 Center     Atomic      Atomic             Coordinates (Angstroms)
 Number     Number       Type             X           Y           Z
 ---------------------------------------------------------------------
      1          8           0        0.051293   -1.965754    0.000000
      2          1           0       -0.749536   -2.535119    0.000000
      3          1           0        0.849602   -2.538650    0.000000
      4          8           0        0.051293    2.029233    0.000000
      5          1           0       -0.105157    2.999300    0.000000
      6          1           0       -0.815604    1.566637    0.000000
 ---------------------------------------------------------------------

 SCF Done:  E(RHF) =  -152.107109677     A.U. after   10 cycles
 E2 =    -0.5262064389D+00 EUMP2 =    -0.15263331611616D+03
 CCSD(T)
 CCSD(T)= -0.15266051368D+03

 The electronic state is 1-A'.
 Alpha  occ. eigenvalues --  -20.55454 -20.54430  -1.32734  -1.31713  -0.70146
 Alpha  occ. eigenvalues --   -0.69092  -0.56149  -0.55129  -0.49845  -0.48830
 Alpha virt. eigenvalues --    0.13425   0.15875   0.20112   0.21938   0.53868
 Alpha virt. eigenvalues --    0.54659   0.57339   0.58356   0.65145   0.74809
 Alpha virt. eigenvalues --    0.78897   0.79473   0.80157   0.81579   0.83888

 Mulliken charges:
               1
     1  O   -0.502110
     2  H    0.247841
     3  H    0.255768
     4  O   -0.504663
     5  H    0.245095
     6  H    0.258068
 Sum of Mulliken charges =  -0.00000

 Dipole moment (field-independent basis, Debye):
    X=             -1.7325    Y=             -1.1578    Z=              0.0000  Tot=              2.0838
 Quadrupole moment (field-independent basis, Debye-Ang):
   XX=             -9.4622   YY=              1.0221   ZZ=            -14.7137
   XY=             -2.9691   XZ=              0.0000   YZ=              0.0000

 Normal termination of Gaussian 16 at Sat Aug 27 09:33:07 2022.
