 Gaussian 16, Revision A.03,
 Gaussian 16:  ES64L-G16RevA.03 25-Dec-2016

 ------------------
 #p CCSD(T)/cc-pVTZ
 ------------------

 ------------
 H2O_H2O_2856
 ------------
 Symbolic Z-matrix:
 Charge =  0 Multiplicity = 1

                         Standard orientation:
 ---------------------------------------------------------------------
 Center     Atomic      Atomic             Coordinates (Angstroms)
 Number     Number       Type             X           Y           Z
 ---------------------------------------------------------------------
      1          8           0        0.021860   -2.314629    0.000000
      2          1           0       -0.778174   -2.885113    0.000000
      3          1           0        0.820967   -2.886410    0.000000
      4          8           0        0.021860    2.323289    0.000000
      5          1           0        0.542681    3.156507    0.000000
      6          1           0       -0.935230    2.545740    0.000000
 ---------------------------------------------------------------------

 SCF Done:  E(RHF) =  -152.106013006     A.U. after   10 cycles
 E2 =    -0.5260678001D+00 EUMP2 =    -0.15263208080597D+03
 CCSD(T)
 CCSD(T)= -0.15265932562D+03

 The electronic state is 1-A'.
 Alpha  occ. eigenvalues --  -20.54897 -20.54803  -1.32189  -1.32094  -0.69600
 Alpha  occ. eigenvalues --   -0.69501  -0.55578  -0.55459  -0.49291  -0.49196
 Alpha virt. eigenvalues --    0.14304   0.15092   0.20565   0.20866   0.54732
 Alpha virt. eigenvalues --    0.55258   0.57741   0.57894   0.66313   0.71223
 Alpha virt. eigenvalues --    0.79551   0.79709   0.80994   0.81188   0.82480

 Mulliken charges:
               1
     1  O   -0.500604
     2  H    0.249135
     3  H    0.251486
     4  O   -0.500392
     5  H    0.248666
     6  H    0.251709
 Sum of Mulliken charges =  -0.00000

 Dipole moment (field-independent basis, Debye):
    X=             -0.7449    Y=             -0.1537    Z=              0.0000  Tot=              0.7606
 Quadrupole moment (field-independent basis, Debye-Ang):
   XX=             -8.1177   YY=              6.0543   ZZ=            -14.7099
   XY=             -1.1251   XZ=              0.0000   YZ=              0.0000

 Normal termination of Gaussian 16 at Fri Aug 26 16:49:11 2022.
