 Gaussian 16, Revision A.03,
 Gaussian 16:  ES64L-G16RevA.03 25-Dec-2016

 ------------------
 #p CCSD(T)/cc-pVTZ
 ------------------

 -----------
 H2O_H2O_360
 -----------
 Symbolic Z-matrix:
 Charge =  0 Multiplicity = 1

                         Standard orientation:
 ---------------------------------------------------------------------
 Center     Atomic      Atomic             Coordinates (Angstroms)
 Number     Number       Type             X           Y           Z
 ---------------------------------------------------------------------
      1          8           0        0.034804   -0.977033    0.000000
      2          1           0       -0.766492   -1.545742    0.000000
      3          1           0        0.832642   -1.550583    0.000000
      4          8           0        0.034804    1.000427    0.000000
      5          1           0        0.324308    1.939413    0.000000
      6          1           0       -0.947319    0.969762    0.000000
 ---------------------------------------------------------------------

 SCF Done:  E(RHF) =  -152.051061827     A.U. after   11 cycles
 E2 =    -0.5357203571D+00 EUMP2 =    -0.15258678218440D+03
 CCSD(T)
 CCSD(T)= -0.15261352842D+03

 The electronic state is 1-A'.
 Alpha  occ. eigenvalues --  -20.52629 -20.51850  -1.32750  -1.28510  -0.69619
 Alpha  occ. eigenvalues --   -0.67366  -0.59568  -0.49812  -0.45076  -0.44723
 Alpha virt. eigenvalues --    0.14366   0.18217   0.20207   0.23379   0.52985
 Alpha virt. eigenvalues --    0.57484   0.58530   0.64213   0.70999   0.77143
 Alpha virt. eigenvalues --    0.79178   0.82126   0.83619   0.85791   0.88169

 Mulliken charges:
               1
     1  O   -0.435724
     2  H    0.207136
     3  H    0.226166
     4  O   -0.404241
     5  H    0.172919
     6  H    0.233744
 Sum of Mulliken charges =  -0.00000

 Dipole moment (field-independent basis, Debye):
    X=             -1.0040    Y=             -0.4866    Z=              0.0000  Tot=              1.1157
 Quadrupole moment (field-independent basis, Debye-Ang):
   XX=             -8.8180   YY=             -5.9156   ZZ=            -14.7287
   XY=             -0.4910   XZ=              0.0000   YZ=              0.0000

 021428\MP4DQ=-152.5939082\MP4SDQ=-152.5974535\CCSD=-152.59666\CCSD(T)=
 Normal termination of Gaussian 16 at Fri Aug 26 15:38:55 2022.
