 Gaussian 16, Revision A.03,
 Gaussian 16:  ES64L-G16RevA.03 25-Dec-2016

 ------------------
 #p CCSD(T)/cc-pVTZ
 ------------------

 ------------
 H2O_H2O_4685
 ------------
 Symbolic Z-matrix:
 Charge =  0 Multiplicity = 1

                         Standard orientation:
 ---------------------------------------------------------------------
 Center     Atomic      Atomic             Coordinates (Angstroms)
 Number     Number       Type             X           Y           Z
 ---------------------------------------------------------------------
      1          8           0        0.034779   -3.277149    0.000000
      2          1           0       -0.765311   -3.847553    0.000000
      3          1           0        0.833830   -3.849008    0.000000
      4          8           0        0.034779    3.300690    0.000000
      5          1           0        0.322294    4.240287    0.000000
      6          1           0       -0.947277    3.267945    0.000000
 ---------------------------------------------------------------------

 SCF Done:  E(RHF) =  -152.107051751     A.U. after   10 cycles
 E2 =    -0.5259077529D+00 EUMP2 =    -0.15263295950387D+03
 CCSD(T)
 CCSD(T)= -0.15266018738D+03

 The electronic state is 1-A'.
 Alpha  occ. eigenvalues --  -20.55340 -20.55215  -1.32637  -1.32511  -0.70044
 Alpha  occ. eigenvalues --   -0.69915  -0.56068  -0.55942  -0.49746  -0.49620
 Alpha virt. eigenvalues --    0.14306   0.14434   0.20364   0.20495   0.54523
 Alpha virt. eigenvalues --    0.54657   0.57409   0.57535   0.68147   0.68278
 Alpha virt. eigenvalues --    0.79133   0.79257   0.80572   0.80708   0.82498

 Mulliken charges:
               1
     1  O   -0.506770
     2  H    0.252683
     3  H    0.254086
     4  O   -0.506673
     5  H    0.252262
     6  H    0.254411
 Sum of Mulliken charges =  -0.00000

 Dipole moment (field-independent basis, Debye):
    X=             -1.1957    Y=             -0.4105    Z=              0.0000  Tot=              1.2642
 Quadrupole moment (field-independent basis, Debye-Ang):
   XX=             -8.5635   YY=             12.2954   ZZ=            -14.7111
   XY=             -3.0972   XZ=              0.0000   YZ=              0.0000

 Normal termination of Gaussian 16 at Sat Aug 27 08:44:49 2022.
