 Gaussian 16, Revision A.03,
 Gaussian 16:  ES64L-G16RevA.03 25-Dec-2016

 ------------------
 #p CCSD(T)/cc-pVTZ
 ------------------

 ------------
 H2O_H2O_4708
 ------------
 Symbolic Z-matrix:
 Charge =  0 Multiplicity = 1

                         Standard orientation:
 ---------------------------------------------------------------------
 Center     Atomic      Atomic             Coordinates (Angstroms)
 Number     Number       Type             X           Y           Z
 ---------------------------------------------------------------------
      1          8           0        0.028562   -3.294942    0.000000
      2          1           0       -0.771434   -3.865478    0.000000
      3          1           0        0.827708   -3.866669    0.000000
      4          8           0        0.028562    3.310202    0.000000
      5          1           0        0.436112    4.204300    0.000000
      6          1           0       -0.949382    3.405760    0.000000
 ---------------------------------------------------------------------

 SCF Done:  E(RHF) =  -152.107000496     A.U. after   10 cycles
 E2 =    -0.5259117892D+00 EUMP2 =    -0.15263291228495D+03
 CCSD(T)
 CCSD(T)= -0.15266014128D+03

 The electronic state is 1-A'.
 Alpha  occ. eigenvalues --  -20.55302 -20.55222  -1.32599  -1.32518  -0.70005
 Alpha  occ. eigenvalues --   -0.69923  -0.56027  -0.55947  -0.49707  -0.49626
 Alpha virt. eigenvalues --    0.14341   0.14423   0.20395   0.20479   0.54562
 Alpha virt. eigenvalues --    0.54649   0.57444   0.57524   0.68192   0.68277
 Alpha virt. eigenvalues --    0.79172   0.79252   0.80612   0.80700   0.82538

 Mulliken charges:
               1
     1  O   -0.506464
     2  H    0.252662
     3  H    0.253802
     4  O   -0.506398
     5  H    0.252350
     6  H    0.254047
 Sum of Mulliken charges =  -0.00000

 Dipole moment (field-independent basis, Debye):
    X=             -0.9820    Y=             -0.2660    Z=              0.0000  Tot=              1.0174
 Quadrupole moment (field-independent basis, Debye-Ang):
   XX=             -8.3153   YY=             13.1141   ZZ=            -14.7110
   XY=             -2.4822   XZ=              0.0000   YZ=              0.0000

 Normal termination of Gaussian 16 at Sat Aug 27 08:52:29 2022.
