 Gaussian 16, Revision A.03,
 Gaussian 16:  ES64L-G16RevA.03 25-Dec-2016

 ------------------
 #p CCSD(T)/cc-pVTZ
 ------------------

 ------------
 H2O_H2O_1214
 ------------
 Symbolic Z-matrix:
 Charge =  0 Multiplicity = 1

                         Standard orientation:
 ---------------------------------------------------------------------
 Center     Atomic      Atomic             Coordinates (Angstroms)
 Number     Number       Type             X           Y           Z
 ---------------------------------------------------------------------
      1          8           0        0.045371   -1.417662    0.000000
      2          1           0       -0.755744   -1.986626    0.000000
      3          1           0        0.843392   -1.990958    0.000000
      4          8           0        0.045371    1.462106    0.000000
      5          1           0        0.081670    2.444038    0.000000
      6          1           0       -0.895260    1.177994    0.000000
 ---------------------------------------------------------------------

 SCF Done:  E(RHF) =  -152.103522939     A.U. after   10 cycles
 E2 =    -0.5276825471D+00 EUMP2 =    -0.15263120548640D+03
 CCSD(T)
 CCSD(T)= -0.15265841837D+03

 The electronic state is 1-A'.
 Alpha  occ. eigenvalues --  -20.54828 -20.53547  -1.32183  -1.30792  -0.69606
 Alpha  occ. eigenvalues --   -0.68243  -0.55974  -0.53480  -0.49318  -0.47851
 Alpha virt. eigenvalues --    0.13859   0.16964   0.20161   0.22950   0.53755
 Alpha virt. eigenvalues --    0.57635   0.57734   0.58392   0.68070   0.75942
 Alpha virt. eigenvalues --    0.76654   0.76901   0.80876   0.82684   0.85338

 Mulliken charges:
               1
     1  O   -0.479127
     2  H    0.234218
     3  H    0.248709
     4  O   -0.478280
     5  H    0.226454
     6  H    0.248026
 Sum of Mulliken charges =  -0.00000

 Dipole moment (field-independent basis, Debye):
    X=             -1.4663    Y=             -0.8558    Z=              0.0000  Tot=              1.6978
 Quadrupole moment (field-independent basis, Debye-Ang):
   XX=             -9.1556   YY=             -1.8883   ZZ=            -14.7182
   XY=             -1.5192   XZ=              0.0000   YZ=              0.0000

 Normal termination of Gaussian 16 at Sat Aug 27 03:04:26 2022.
