 Gaussian 16, Revision A.03,
 Gaussian 16:  ES64L-G16RevA.03 25-Dec-2016

 ------------------
 #p CCSD(T)/cc-pVTZ
 ------------------

 ------------
 H2O_H2O_2386
 ------------
 Symbolic Z-matrix:
 Charge =  0 Multiplicity = 1

                         Standard orientation:
 ---------------------------------------------------------------------
 Center     Atomic      Atomic             Coordinates (Angstroms)
 Number     Number       Type             X           Y           Z
 ---------------------------------------------------------------------
      1          8           0        0.037680   -2.051379    0.000000
      2          1           0       -0.762787   -2.621255    0.000000
      3          1           0        0.836353   -2.623765    0.000000
      4          8           0        0.037680    2.079607    0.000000
      5          1           0        0.263757    3.035847    0.000000
      6          1           0       -0.940197    1.983347    0.000000
 ---------------------------------------------------------------------

 SCF Done:  E(RHF) =  -152.106055875     A.U. after   10 cycles
 E2 =    -0.5261894468D+00 EUMP2 =    -0.15263224532215D+03
 CCSD(T)
 CCSD(T)= -0.15265947599D+03

 The electronic state is 1-A'.
 Alpha  occ. eigenvalues --  -20.54982 -20.54578  -1.32267  -1.31860  -0.69681
 Alpha  occ. eigenvalues --   -0.69258  -0.55660  -0.55210  -0.49370  -0.48966
 Alpha virt. eigenvalues --    0.13896   0.15590   0.20398   0.21277   0.53961
 Alpha virt. eigenvalues --    0.55354   0.57693   0.58093   0.64428   0.74111
 Alpha virt. eigenvalues --    0.79362   0.80038   0.80457   0.81273   0.82803

 Mulliken charges:
               1
     1  O   -0.499447
     2  H    0.247141
     3  H    0.252643
     4  O   -0.499262
     5  H    0.245684
     6  H    0.253241
 Sum of Mulliken charges =  -0.00000

 Dipole moment (field-independent basis, Debye):
    X=             -1.2759    Y=             -0.5095    Z=              0.0000  Tot=              1.3739
 Quadrupole moment (field-independent basis, Debye-Ang):
   XX=             -8.7109   YY=              3.2282   ZZ=            -14.7109
   XY=             -1.8500   XZ=              0.0000   YZ=              0.0000

 Normal termination of Gaussian 16 at Sat Aug 27 10:16:24 2022.
