 Gaussian 16, Revision A.03,
 Gaussian 16:  ES64L-G16RevA.03 25-Dec-2016

 ------------------
 #p CCSD(T)/cc-pVTZ
 ------------------

 -----------
 H2O_H2O_497
 -----------
 Symbolic Z-matrix:
 Charge =  0 Multiplicity = 1

                         Standard orientation:
 ---------------------------------------------------------------------
 Center     Atomic      Atomic             Coordinates (Angstroms)
 Number     Number       Type             X           Y           Z
 ---------------------------------------------------------------------
      1          8           0        0.056854   -1.002562    0.000000
      2          1           0       -0.745355   -1.569983    0.000000
      3          1           0        0.853770   -1.577393    0.000000
      4          8           0        0.056854    1.101353    0.000000
      5          1           0       -0.401003    1.970762    0.000000
      6          1           0       -0.617078    0.386285    0.000000
 ---------------------------------------------------------------------

 SCF Done:  E(RHF) =  -152.066653171     A.U. after   11 cycles
 E2 =    -0.5355725598D+00 EUMP2 =    -0.15260222573102D+03
 CCSD(T)
 CCSD(T)= -0.15262864509D+03

 The electronic state is 1-A'.
 Alpha  occ. eigenvalues --  -20.56496 -20.50170  -1.36033  -1.27918  -0.73510
 Alpha  occ. eigenvalues --   -0.70007  -0.52867  -0.52479  -0.51599  -0.44876
 Alpha virt. eigenvalues --    0.12987   0.18795   0.19325   0.26658   0.49894
 Alpha virt. eigenvalues --    0.55208   0.61971   0.65436   0.72095   0.74420
 Alpha virt. eigenvalues --    0.78021   0.81218   0.83706   0.85065   0.87480

 Mulliken charges:
               1
     1  O   -0.400950
     2  H    0.209400
     3  H    0.240308
     4  O   -0.502269
     5  H    0.192607
     6  H    0.260905
 Sum of Mulliken charges =  -0.00000

 Dipole moment (field-independent basis, Debye):
    X=             -1.6756    Y=             -2.2766    Z=              0.0000  Tot=              2.8268
 Quadrupole moment (field-independent basis, Debye-Ang):
   XX=             -9.8271   YY=             -6.4769   ZZ=            -14.6676
   XY=             -2.1346   XZ=              0.0000   YZ=              0.0000

 Normal termination of Gaussian 16 at Fri Aug 26 17:01:20 2022.
