 Gaussian 16, Revision A.03,
 Gaussian 16:  ES64L-G16RevA.03 25-Dec-2016

 ------------------
 #p CCSD(T)/cc-pVTZ
 ------------------

 ------------
 H2O_H2O_1134
 ------------
 Symbolic Z-matrix:
 Charge =  0 Multiplicity = 1

                         Standard orientation:
 ---------------------------------------------------------------------
 Center     Atomic      Atomic             Coordinates (Angstroms)
 Number     Number       Type             X           Y           Z
 ---------------------------------------------------------------------
      1          8           0        0.031749   -1.391526    0.000000
      2          1           0       -0.768934   -1.961098    0.000000
      3          1           0        0.830205   -1.964215    0.000000
      4          8           0        0.031749    1.410653    0.000000
      5          1           0        0.381055    2.329070    0.000000
      6          1           0       -0.950312    1.443227    0.000000
 ---------------------------------------------------------------------

 SCF Done:  E(RHF) =  -152.100657661     A.U. after   11 cycles
 E2 =    -0.5279084833D+00 EUMP2 =    -0.15262856614391D+03
 CCSD(T)
 CCSD(T)= -0.15265583760D+03

 The electronic state is 1-A'.
 Alpha  occ. eigenvalues --  -20.54073 -20.53547  -1.31493  -1.30786  -0.68901
 Alpha  occ. eigenvalues --   -0.68250  -0.56000  -0.52560  -0.48686  -0.47747
 Alpha virt. eigenvalues --    0.14201   0.16965   0.20420   0.22398   0.52499
 Alpha virt. eigenvalues --    0.58268   0.58569   0.59888   0.68708   0.76535
 Alpha virt. eigenvalues --    0.76925   0.77681   0.81044   0.83149   0.85902

 Mulliken charges:
               1
     1  O   -0.473713
     2  H    0.231237
     3  H    0.242755
     4  O   -0.466035
     5  H    0.225456
     6  H    0.240300
 Sum of Mulliken charges =  -0.00000

 Dipole moment (field-independent basis, Debye):
    X=             -1.0220    Y=             -0.3658    Z=              0.0000  Tot=              1.0855
 Quadrupole moment (field-independent basis, Debye-Ang):
   XX=             -8.5346   YY=             -1.6381   ZZ=            -14.7158
   XY=             -0.7749   XZ=              0.0000   YZ=              0.0000

 0856\MP4DQ=-152.6373649\MP4SDQ=-152.6405421\CCSD=-152.6399086\CCSD(T)=
 Normal termination of Gaussian 16 at Sat Aug 27 02:23:25 2022.
