 Gaussian 16, Revision A.03,
 Gaussian 16:  ES64L-G16RevA.03 25-Dec-2016

 ------------------
 #p CCSD(T)/cc-pVTZ
 ------------------

 ------------
 H2O_H2O_2704
 ------------
 Symbolic Z-matrix:
 Charge =  0 Multiplicity = 1

                         Standard orientation:
 ---------------------------------------------------------------------
 Center     Atomic      Atomic             Coordinates (Angstroms)
 Number     Number       Type             X           Y           Z
 ---------------------------------------------------------------------
      1          8           0        0.014783   -2.237452    0.000000
      2          1           0       -0.785112   -2.808130    0.000000
      3          1           0        0.814029   -2.809038    0.000000
      4          8           0        0.014783    2.241328    0.000000
      5          1           0        0.639721    2.999589    0.000000
      6          1           0       -0.905168    2.586577    0.000000
 ---------------------------------------------------------------------

 SCF Done:  E(RHF) =  -152.105772155     A.U. after   10 cycles
 E2 =    -0.5261094312D+00 EUMP2 =    -0.15263188158614D+03
 CCSD(T)
 CCSD(T)= -0.15265912947D+03

 The electronic state is 1-A'.
 Alpha  occ. eigenvalues --  -20.54797 -20.54752  -1.32087  -1.32042  -0.69500
 Alpha  occ. eigenvalues --   -0.69452  -0.55490  -0.55365  -0.49188  -0.49141
 Alpha virt. eigenvalues --    0.14305   0.15201   0.20605   0.20906   0.54725
 Alpha virt. eigenvalues --    0.55428   0.57799   0.57949   0.65476   0.72082
 Alpha virt. eigenvalues --    0.79601   0.79813   0.81132   0.81185   0.82250

 Mulliken charges:
               1
     1  O   -0.499087
     2  H    0.248677
     3  H    0.250422
     4  O   -0.498969
     5  H    0.248391
     6  H    0.250566
 Sum of Mulliken charges =   0.00000

 Dipole moment (field-independent basis, Debye):
    X=             -0.5029    Y=             -0.0690    Z=              0.0000  Tot=              0.5076
 Quadrupole moment (field-independent basis, Debye-Ang):
   XX=             -7.9592   YY=              5.6474   ZZ=            -14.7097
   XY=             -0.6992   XZ=              0.0000   YZ=              0.0000

 Normal termination of Gaussian 16 at Fri Aug 26 15:16:03 2022.
