 Gaussian 16, Revision A.03,
 Gaussian 16:  ES64L-G16RevA.03 25-Dec-2016

 ------------------
 #p CCSD(T)/cc-pVTZ
 ------------------

 -----------
 H2O_H2O_156
 -----------
 Symbolic Z-matrix:
 Charge =  0 Multiplicity = 1

                         Standard orientation:
 ---------------------------------------------------------------------
 Center     Atomic      Atomic             Coordinates (Angstroms)
 Number     Number       Type             X           Y           Z
 ---------------------------------------------------------------------
      1          8           0        0.021865   -0.878701    0.000000
      2          1           0       -0.778921   -1.448128    0.000000
      3          1           0        0.820218   -1.451536    0.000000
      4          8           0        0.021865    0.887303    0.000000
      5          1           0        0.543786    1.719833    0.000000
      6          1           0       -0.934930    1.111017    0.000000
 ---------------------------------------------------------------------

 SCF Done:  E(RHF) =  -151.989779113     A.U. after   11 cycles
 E2 =    -0.5430531775D+00 EUMP2 =    -0.15253283229046D+03
 CCSD(T)
 CCSD(T)= -0.15255861148D+03

 The electronic state is 1-A'.
 Alpha  occ. eigenvalues --  -20.51561 -20.51308  -1.34376  -1.27417  -0.70166
 Alpha  occ. eigenvalues --   -0.67131  -0.63103  -0.51059  -0.43760  -0.38186
 Alpha virt. eigenvalues --    0.14497   0.18983   0.20077   0.23235   0.51820
 Alpha virt. eigenvalues --    0.57920   0.59000   0.66020   0.69578   0.78739
 Alpha virt. eigenvalues --    0.79720   0.83454   0.83881   0.85986   0.88211

 Mulliken charges:
               1
     1  O   -0.394055
     2  H    0.188137
     3  H    0.205302
     4  O   -0.373246
     5  H    0.153677
     6  H    0.220184
 Sum of Mulliken charges =  -0.00000

 Dipole moment (field-independent basis, Debye):
    X=             -0.6170    Y=             -0.2075    Z=              0.0000  Tot=              0.6510
 Quadrupole moment (field-independent basis, Debye-Ang):
   XX=             -8.5595   YY=             -7.6230   ZZ=            -14.7426
   XY=             -0.2506   XZ=              0.0000   YZ=              0.0000

 Normal termination of Gaussian 16 at Fri Aug 26 13:26:23 2022.
