 Gaussian 16, Revision A.03,
 Gaussian 16:  ES64L-G16RevA.03 25-Dec-2016

 ------------------
 #p CCSD(T)/cc-pVTZ
 ------------------

 ------------
 H2O_H2O_3924
 ------------
 Symbolic Z-matrix:
 Charge =  0 Multiplicity = 1

                         Standard orientation:
 ---------------------------------------------------------------------
 Center     Atomic      Atomic             Coordinates (Angstroms)
 Number     Number       Type             X           Y           Z
 ---------------------------------------------------------------------
      1          8           0        0.057211   -2.815833    0.000000
      2          1           0       -0.743336   -3.385596    0.000000
      3          1           0        0.855803   -3.388333    0.000000
      4          8           0        0.057211    2.929864    0.000000
      5          1           0       -0.512552    3.730411    0.000000
      6          1           0       -0.515289    2.131271    0.000000
 ---------------------------------------------------------------------

 SCF Done:  E(RHF) =  -152.107815834     A.U. after   10 cycles
 E2 =    -0.5258589414D+00 EUMP2 =    -0.15263367477546D+03
 CCSD(T)
 CCSD(T)= -0.15266088485D+03

 The electronic state is 1-A'.
 Alpha  occ. eigenvalues --  -20.55823 -20.55017  -1.33123  -1.32318  -0.70528
 Alpha  occ. eigenvalues --   -0.69713  -0.56589  -0.55774  -0.50237  -0.49435
 Alpha virt. eigenvalues --    0.13772   0.14760   0.19976   0.20875   0.54023
 Alpha virt. eigenvalues --    0.54835   0.56982   0.57759   0.67344   0.68634
 Alpha virt. eigenvalues --    0.78646   0.79430   0.80060   0.80631   0.82422

 Mulliken charges:
               1
     1  O   -0.511276
     2  H    0.254123
     3  H    0.257190
     4  O   -0.510694
     5  H    0.251865
     6  H    0.258791
 Sum of Mulliken charges =  -0.00000

 Dipole moment (field-independent basis, Debye):
    X=             -1.9636    Y=             -2.0023    Z=              0.0000  Tot=              2.8045
 Quadrupole moment (field-independent basis, Debye-Ang):
   XX=             -9.8638   YY=              1.3773   ZZ=            -14.7132
   XY=             -5.9125   XZ=              0.0000   YZ=              0.0000

 Normal termination of Gaussian 16 at Sat Aug 27 04:20:10 2022.
