 Gaussian 16, Revision A.03,
 Gaussian 16:  ES64L-G16RevA.03 25-Dec-2016

 ------------------
 #p CCSD(T)/cc-pVTZ
 ------------------

 ------------
 H2O_H2O_4896
 ------------
 Symbolic Z-matrix:
 Charge =  0 Multiplicity = 1

                         Standard orientation:
 ---------------------------------------------------------------------
 Center     Atomic      Atomic             Coordinates (Angstroms)
 Number     Number       Type             X           Y           Z
 ---------------------------------------------------------------------
      1          8           0        0.056081   -3.346456    0.000000
      2          1           0       -0.744301   -3.916451    0.000000
      3          1           0        0.854839   -3.918724    0.000000
      4          8           0        0.056081    3.438239    0.000000
      5          1           0       -0.346814    4.334442    0.000000
      6          1           0       -0.661022    2.766471    0.000000
 ---------------------------------------------------------------------

 SCF Done:  E(RHF) =  -152.107525085     A.U. after   10 cycles
 E2 =    -0.5258641549D+00 EUMP2 =    -0.15263338923956D+03
 CCSD(T)
 CCSD(T)= -0.15266060716D+03

 The electronic state is 1-A'.
 Alpha  occ. eigenvalues --  -20.55670 -20.55215  -1.32969  -1.32514  -0.70375
 Alpha  occ. eigenvalues --   -0.69914  -0.56422  -0.55963  -0.50082  -0.49627
 Alpha virt. eigenvalues --    0.14015   0.14472   0.20097   0.20578   0.54185
 Alpha virt. eigenvalues --    0.54657   0.57114   0.57569   0.67756   0.68229
 Alpha virt. eigenvalues --    0.78798   0.79246   0.80227   0.80708   0.82151

 Mulliken charges:
               1
     1  O   -0.509576
     2  H    0.253817
     3  H    0.255759
     4  O   -0.509333
     5  H    0.252706
     6  H    0.256627
 Sum of Mulliken charges =   0.00000

 Dipole moment (field-independent basis, Debye):
    X=             -1.9294    Y=             -1.6002    Z=              0.0000  Tot=              2.5066
 Quadrupole moment (field-independent basis, Debye-Ang):
   XX=             -9.7847   YY=              6.0512   ZZ=            -14.7123
   XY=             -6.4000   XZ=              0.0000   YZ=              0.0000

 Normal termination of Gaussian 16 at Sat Aug 27 09:57:15 2022.
