 Gaussian 16, Revision A.03,
 Gaussian 16:  ES64L-G16RevA.03 25-Dec-2016

 ------------------
 #p CCSD(T)/cc-pVTZ
 ------------------

 ------------
 H2O_H2O_2246
 ------------
 Symbolic Z-matrix:
 Charge =  0 Multiplicity = 1

                         Standard orientation:
 ---------------------------------------------------------------------
 Center     Atomic      Atomic             Coordinates (Angstroms)
 Number     Number       Type             X           Y           Z
 ---------------------------------------------------------------------
      1          8           0        0.056127   -1.937149    0.000000
      2          1           0       -0.744830   -2.506335    0.000000
      3          1           0        0.854307   -2.510223    0.000000
      4          8           0        0.056127    2.028818    0.000000
      5          1           0       -0.345862    2.925428    0.000000
      6          1           0       -0.661653    1.357776    0.000000
 ---------------------------------------------------------------------

 SCF Done:  E(RHF) =  -152.108184177     A.U. after   10 cycles
 E2 =    -0.5261933273D+00 EUMP2 =    -0.15263437750476D+03
 CCSD(T)
 CCSD(T)= -0.15266154611D+03

 The electronic state is 1-A'.
 Alpha  occ. eigenvalues --  -20.55882 -20.54324  -1.33157  -1.31619  -0.70566
 Alpha  occ. eigenvalues --   -0.68988  -0.56612  -0.55074  -0.50275  -0.48743
 Alpha virt. eigenvalues --    0.13109   0.16038   0.19900   0.22643   0.54061
 Alpha virt. eigenvalues --    0.54621   0.56992   0.58536   0.65916   0.74003
 Alpha virt. eigenvalues --    0.78482   0.79228   0.80204   0.81038   0.83172

 Mulliken charges:
               1
     1  O   -0.504349
     2  H    0.249492
     3  H    0.257803
     4  O   -0.510582
     5  H    0.245869
     6  H    0.261768
 Sum of Mulliken charges =  -0.00000

 Dipole moment (field-independent basis, Debye):
    X=             -1.8955    Y=             -1.6833    Z=              0.0000  Tot=              2.5351
 Quadrupole moment (field-independent basis, Debye-Ang):
   XX=             -9.7827   YY=             -0.7022   ZZ=            -14.7164
   XY=             -3.7187   XZ=              0.0000   YZ=              0.0000

 Normal termination of Gaussian 16 at Sat Aug 27 09:25:46 2022.
