 Gaussian 16, Revision A.03,
 Gaussian 16:  ES64L-G16RevA.03 25-Dec-2016

 ------------------
 #p CCSD(T)/cc-pVTZ
 ------------------

 ------------
 H2O_H2O_1375
 ------------
 Symbolic Z-matrix:
 Charge =  0 Multiplicity = 1

                         Standard orientation:
 ---------------------------------------------------------------------
 Center     Atomic      Atomic             Coordinates (Angstroms)
 Number     Number       Type             X           Y           Z
 ---------------------------------------------------------------------
      1          8           0        0.000000   -0.000000    1.534874
      2          1           0        0.000000    0.799571    2.106006
      3          1           0       -0.000000   -0.799571    2.106006
      4          8           0        0.000000   -0.000000   -1.534874
      5          1           0       -0.000000   -0.799571   -2.106006
      6          1           0        0.000000    0.799571   -2.106006
 ---------------------------------------------------------------------

 SCF Done:  E(RHF) =  -152.101751699     A.U. after   10 cycles
 E2 =    -0.5272644303D+00 EUMP2 =    -0.15262901612925D+03
 CCSD(T)
 CCSD(T)= -0.15265630977D+03

 The electronic state is 1-AG.
 Alpha  occ. eigenvalues --  -20.53895 -20.53895  -1.31292  -1.31102  -0.68704
 Alpha  occ. eigenvalues --   -0.68560  -0.55551  -0.53149  -0.48482  -0.48070
 Alpha virt. eigenvalues --    0.14384   0.16633   0.20575   0.21784   0.51848
 Alpha virt. eigenvalues --    0.58268   0.58637   0.59735   0.64963   0.76096
 Alpha virt. eigenvalues --    0.77962   0.78021   0.79375   0.82523   0.86099

 Mulliken charges:
               1
     1  O   -0.473689
     2  H    0.236845
     3  H    0.236845
     4  O   -0.473689
     5  H    0.236845
     6  H    0.236845
 Sum of Mulliken charges =   0.00000

 Dipole moment (field-independent basis, Debye):
    X=             -0.0000    Y=              0.0000    Z=             -0.0000  Tot=              0.0000
 Quadrupole moment (field-independent basis, Debye-Ang):
   XX=            -14.7098   YY=             -7.8922   ZZ=             -0.1242
   XY=              0.0000   XZ=              0.0000   YZ=             -0.0000

 8\MP4DQ=-152.637945\MP4SDQ=-152.6410887\CCSD=-152.6404682\CCSD(T)=-152
 Normal termination of Gaussian 16 at Sat Aug 27 04:20:20 2022.
