 Gaussian 16, Revision A.03,
 Gaussian 16:  ES64L-G16RevA.03 25-Dec-2016

 ------------------
 #p CCSD(T)/cc-pVTZ
 ------------------

 ------------
 H2O_H2O_1817
 ------------
 Symbolic Z-matrix:
 Charge =  0 Multiplicity = 1

                         Standard orientation:
 ---------------------------------------------------------------------
 Center     Atomic      Atomic             Coordinates (Angstroms)
 Number     Number       Type             X           Y           Z
 ---------------------------------------------------------------------
      1          8           0        0.051303   -1.726444    0.000000
      2          1           0       -0.749698   -2.295569    0.000000
      3          1           0        0.849439   -2.299579    0.000000
      4          8           0        0.051303    1.789892    0.000000
      5          1           0       -0.104855    2.760006    0.000000
      6          1           0       -0.815733    1.327556    0.000000
 ---------------------------------------------------------------------

 SCF Done:  E(RHF) =  -152.106938898     A.U. after   10 cycles
 E2 =    -0.5265608803D+00 EUMP2 =    -0.15263349977814D+03
 CCSD(T)
 CCSD(T)= -0.15266067953D+03

 The electronic state is 1-A'.
 Alpha  occ. eigenvalues --  -20.55449 -20.54098  -1.32723  -1.31369  -0.70140
 Alpha  occ. eigenvalues --   -0.68744  -0.56132  -0.54744  -0.49835  -0.48488
 Alpha virt. eigenvalues --    0.13462   0.16369   0.20054   0.22658   0.54073
 Alpha virt. eigenvalues --    0.54475   0.57325   0.58544   0.64743   0.76264
 Alpha virt. eigenvalues --    0.78281   0.78469   0.79117   0.80955   0.84908

 Mulliken charges:
               1
     1  O   -0.494733
     2  H    0.243731
     3  H    0.254319
     4  O   -0.500648
     5  H    0.240176
     6  H    0.257156
 Sum of Mulliken charges =  -0.00000

 Dipole moment (field-independent basis, Debye):
    X=             -1.7111    Y=             -1.1855    Z=              0.0000  Tot=              2.0817
 Quadrupole moment (field-independent basis, Debye-Ang):
   XX=             -9.4700   YY=             -0.4159   ZZ=            -14.7155
   XY=             -2.5591   XZ=              0.0000   YZ=              0.0000

 Normal termination of Gaussian 16 at Sat Aug 27 06:57:19 2022.
