 Gaussian 16, Revision A.03,
 Gaussian 16:  ES64L-G16RevA.03 25-Dec-2016

 ------------------
 #p CCSD(T)/cc-pVTZ
 ------------------

 -----------
 H2O_H2O_300
 -----------
 Symbolic Z-matrix:
 Charge =  0 Multiplicity = 1

                         Standard orientation:
 ---------------------------------------------------------------------
 Center     Atomic      Atomic             Coordinates (Angstroms)
 Number     Number       Type             X           Y           Z
 ---------------------------------------------------------------------
      1          8           0        0.000000   -0.000000    0.963150
      2          1           0        0.000000    0.799571    1.534282
      3          1           0       -0.000000   -0.799571    1.534282
      4          8           0        0.000000   -0.000000   -0.963150
      5          1           0       -0.000000   -0.799571   -1.534282
      6          1           0        0.000000    0.799571   -1.534282
 ---------------------------------------------------------------------

 SCF Done:  E(RHF) =  -152.033709945     A.U. after   11 cycles
 E2 =    -0.5373421038D+00 EUMP2 =    -0.15257105204835D+03
 CCSD(T)
 CCSD(T)= -0.15259762678D+03

 The electronic state is 1-AG.
 Alpha  occ. eigenvalues --  -20.51523 -20.51521  -1.32386  -1.28130  -0.68671
 Alpha  occ. eigenvalues --   -0.66137  -0.62319  -0.49517  -0.44488  -0.41712
 Alpha virt. eigenvalues --    0.14681   0.18691   0.20402   0.22870   0.50236
 Alpha virt. eigenvalues --    0.59212   0.59304   0.66798   0.69227   0.78503
 Alpha virt. eigenvalues --    0.79748   0.83331   0.84515   0.86631   0.87391

 Mulliken charges:
               1
     1  O   -0.416964
     2  H    0.208482
     3  H    0.208482
     4  O   -0.416964
     5  H    0.208482
     6  H    0.208482
 Sum of Mulliken charges =   0.00000

 Dipole moment (field-independent basis, Debye):
    X=             -0.0000    Y=              0.0000    Z=              0.0000  Tot=              0.0000
 Quadrupole moment (field-independent basis, Debye-Ang):
   XX=            -14.7563   YY=             -8.2063   ZZ=             -6.3099
   XY=              0.0000   XZ=             -0.0000   YZ=             -0.0000

 MP4DQ=-152.5777137\MP4SDQ=-152.58137\CCSD=-152.5805263\CCSD(T)=-152.59
 Normal termination of Gaussian 16 at Fri Aug 26 15:00:19 2022.
