 Gaussian 16, Revision A.03,
 Gaussian 16:  ES64L-G16RevA.03 25-Dec-2016

 ------------------
 #p CCSD(T)/cc-pVTZ
 ------------------

 -----------
 H2O_H2O_227
 -----------
 Symbolic Z-matrix:
 Charge =  0 Multiplicity = 1

                         Standard orientation:
 ---------------------------------------------------------------------
 Center     Atomic      Atomic             Coordinates (Angstroms)
 Number     Number       Type             X           Y           Z
 ---------------------------------------------------------------------
      1          8           0        0.007455   -0.922737    0.000000
      2          1           0       -0.792513   -1.493313    0.000000
      3          1           0        0.806629   -1.494424    0.000000
      4          8           0        0.007455    0.923704    0.000000
      5          1           0        0.726104    1.593815    0.000000
      6          1           0       -0.859503    1.386187    0.000000
 ---------------------------------------------------------------------

 SCF Done:  E(RHF) =  -152.013214043     A.U. after   11 cycles
 E2 =    -0.5399581716D+00 EUMP2 =    -0.15255317221504D+03
 CCSD(T)
 CCSD(T)= -0.15257940523D+03

 The electronic state is 1-A'.
 Alpha  occ. eigenvalues --  -20.51356 -20.51328  -1.33116  -1.27767  -0.69062
 Alpha  occ. eigenvalues --   -0.66018  -0.63484  -0.50096  -0.44075  -0.39773
 Alpha virt. eigenvalues --    0.14660   0.18901   0.20287   0.22966   0.50469
 Alpha virt. eigenvalues --    0.59163   0.59216   0.67038   0.68605   0.78865
 Alpha virt. eigenvalues --    0.80030   0.83680   0.84417   0.86513   0.87599

 Mulliken charges:
               1
     1  O   -0.404134
     2  H    0.199072
     3  H    0.204886
     4  O   -0.400794
     5  H    0.189802
     6  H    0.211168
 Sum of Mulliken charges =   0.00000

 Dipole moment (field-independent basis, Debye):
    X=             -0.2138    Y=             -0.0227    Z=              0.0000  Tot=              0.2150
 Quadrupole moment (field-independent basis, Debye-Ang):
   XX=             -8.2948   YY=             -6.9393   ZZ=            -14.7575
   XY=             -0.0726   XZ=              0.0000   YZ=              0.0000

 6236\MP4DQ=-152.5591424\MP4SDQ=-152.562938\CCSD=-152.562011\CCSD(T)=-1
 Normal termination of Gaussian 16 at Fri Aug 26 14:16:09 2022.
