 Gaussian 16, Revision A.03,
 Gaussian 16:  ES64L-G16RevA.03 25-Dec-2016

 ------------------
 #p CCSD(T)/cc-pVTZ
 ------------------

 -----------
 H2O_H2O_135
 -----------
 Symbolic Z-matrix:
 Charge =  0 Multiplicity = 1

                         Standard orientation:
 ---------------------------------------------------------------------
 Center     Atomic      Atomic             Coordinates (Angstroms)
 Number     Number       Type             X           Y           Z
 ---------------------------------------------------------------------
      1          8           0        0.034809   -0.857385    0.000000
      2          1           0       -0.766724   -1.425760    0.000000
      3          1           0        0.832408   -1.431267    0.000000
      4          8           0        0.034809    0.880750    0.000000
      5          1           0        0.324704    1.819615    0.000000
      6          1           0       -0.947327    0.850493    0.000000
 ---------------------------------------------------------------------

 SCF Done:  E(RHF) =  -151.983866296     A.U. after   11 cycles
 E2 =    -0.5439602932D+00 EUMP2 =    -0.15252782658944D+03
 CCSD(T)
 CCSD(T)= -0.15255350770D+03

 The electronic state is 1-A'.
 Alpha  occ. eigenvalues --  -20.52145 -20.51401  -1.35376  -1.27264  -0.71563
 Alpha  occ. eigenvalues --   -0.68314  -0.61105  -0.51757  -0.43768  -0.38823
 Alpha virt. eigenvalues --    0.14264   0.18897   0.19906   0.23552   0.53511
 Alpha virt. eigenvalues --    0.56288   0.58693   0.65308   0.71822   0.78006
 Alpha virt. eigenvalues --    0.79771   0.82587   0.83219   0.85001   0.88743

 Mulliken charges:
               1
     1  O   -0.384036
     2  H    0.180967
     3  H    0.203220
     4  O   -0.360165
     5  H    0.132665
     6  H    0.227348
 Sum of Mulliken charges =  -0.00000

 Dipole moment (field-independent basis, Debye):
    X=             -0.9601    Y=             -0.5433    Z=              0.0000  Tot=              1.1032
 Quadrupole moment (field-independent basis, Debye-Ang):
   XX=             -8.9159   YY=             -7.8421   ZZ=            -14.7065
   XY=             -0.4548   XZ=              0.0000   YZ=              0.0000

 Normal termination of Gaussian 16 at Fri Aug 26 13:10:01 2022.
