 Gaussian 16, Revision A.03,
 Gaussian 16:  ES64L-G16RevA.03 25-Dec-2016

 ------------------
 #p CCSD(T)/cc-pVTZ
 ------------------

 ------------
 H2O_H2O_1736
 ------------
 Symbolic Z-matrix:
 Charge =  0 Multiplicity = 1

                         Standard orientation:
 ---------------------------------------------------------------------
 Center     Atomic      Atomic             Coordinates (Angstroms)
 Number     Number       Type             X           Y           Z
 ---------------------------------------------------------------------
      1          8           0        0.037684   -1.705697    0.000000
      2          1           0       -0.762962   -2.275321    0.000000
      3          1           0        0.836177   -2.278335    0.000000
      4          8           0        0.037684    1.733902    0.000000
      5          1           0        0.264063    2.690071    0.000000
      6          1           0       -0.940223    1.637951    0.000000
 ---------------------------------------------------------------------

 SCF Done:  E(RHF) =  -152.105071020     A.U. after   10 cycles
 E2 =    -0.5266943820D+00 EUMP2 =    -0.15263176540225D+03
 CCSD(T)
 CCSD(T)= -0.15265898994D+03

 The electronic state is 1-A'.
 Alpha  occ. eigenvalues --  -20.54755 -20.54168  -1.32034  -1.31431  -0.69458
 Alpha  occ. eigenvalues --   -0.68829  -0.55573  -0.54498  -0.49144  -0.48526
 Alpha virt. eigenvalues --    0.13898   0.16274   0.20359   0.21885   0.53160
 Alpha virt. eigenvalues --    0.55883   0.57859   0.58565   0.63603   0.76926
 Alpha virt. eigenvalues --    0.78604   0.78699   0.79959   0.81278   0.84967

 Mulliken charges:
               1
     1  O   -0.488246
     2  H    0.240435
     3  H    0.249065
     4  O   -0.488982
     5  H    0.238102
     6  H    0.249627
 Sum of Mulliken charges =  -0.00000

 Dipole moment (field-independent basis, Debye):
    X=             -1.2544    Y=             -0.5254    Z=              0.0000  Tot=              1.3600
 Quadrupole moment (field-independent basis, Debye-Ang):
   XX=             -8.7326   YY=              0.6973   ZZ=            -14.7116
   XY=             -1.4153   XZ=              0.0000   YZ=              0.0000

 Normal termination of Gaussian 16 at Sat Aug 27 06:29:45 2022.
