 Gaussian 16, Revision A.03,
 Gaussian 16:  ES64L-G16RevA.03 25-Dec-2016

 ------------------
 #p CCSD(T)/cc-pVTZ
 ------------------

 ------------
 H2O_H2O_3661
 ------------
 Symbolic Z-matrix:
 Charge =  0 Multiplicity = 1

                         Standard orientation:
 ---------------------------------------------------------------------
 Center     Atomic      Atomic             Coordinates (Angstroms)
 Number     Number       Type             X           Y           Z
 ---------------------------------------------------------------------
      1          8           0        0.037674   -2.729455    0.000000
      2          1           0       -0.762571   -3.299642    0.000000
      3          1           0        0.836570   -3.301531    0.000000
      4          8           0        0.037674    2.757712    0.000000
      5          1           0        0.263380    3.714040    0.000000
      6          1           0       -0.940165    2.661073    0.000000
 ---------------------------------------------------------------------

 SCF Done:  E(RHF) =  -152.106800267     A.U. after   10 cycles
 E2 =    -0.5259497203D+00 EUMP2 =    -0.15263274998696D+03
 CCSD(T)
 CCSD(T)= -0.15265998198D+03

 The electronic state is 1-A'.
 Alpha  occ. eigenvalues --  -20.55241 -20.55023  -1.32537  -1.32317  -0.69945
 Alpha  occ. eigenvalues --   -0.69719  -0.55956  -0.55736  -0.49644  -0.49425
 Alpha virt. eigenvalues --    0.14309   0.14671   0.20409   0.20679   0.54609
 Alpha virt. eigenvalues --    0.54869   0.57486   0.57710   0.68003   0.68797
 Alpha virt. eigenvalues --    0.79235   0.79450   0.80674   0.80913   0.82633

 Mulliken charges:
               1
     1  O   -0.505314
     2  H    0.251383
     3  H    0.253935
     4  O   -0.505061
     5  H    0.250618
     6  H    0.254439
 Sum of Mulliken charges =  -0.00000

 Dipole moment (field-independent basis, Debye):
    X=             -1.2910    Y=             -0.4962    Z=              0.0000  Tot=              1.3831
 Quadrupole moment (field-independent basis, Debye-Ang):
   XX=             -8.6985   YY=              8.0461   ZZ=            -14.7109
   XY=             -2.7116   XZ=              0.0000   YZ=              0.0000

 Normal termination of Gaussian 16 at Sat Aug 27 02:17:33 2022.
