 Gaussian 16, Revision A.03,
 Gaussian 16:  ES64L-G16RevA.03 25-Dec-2016

 ------------------
 #p CCSD(T)/cc-pVTZ
 ------------------

 ------------
 H2O_H2O_1254
 ------------
 Symbolic Z-matrix:
 Charge =  0 Multiplicity = 1

                         Standard orientation:
 ---------------------------------------------------------------------
 Center     Atomic      Atomic             Coordinates (Angstroms)
 Number     Number       Type             X           Y           Z
 ---------------------------------------------------------------------
      1          8           0        0.014784   -1.466294    0.000000
      2          1           0       -0.785282   -2.036733    0.000000
      3          1           0        0.813859   -2.038119    0.000000
      4          8           0        0.014784    1.470161    0.000000
      5          1           0        0.639948    2.228234    0.000000
      6          1           0       -0.905064    1.815684    0.000000
 ---------------------------------------------------------------------

 SCF Done:  E(RHF) =  -152.100873200     A.U. after   11 cycles
 E2 =    -0.5275434678D+00 EUMP2 =    -0.15262841666777D+03
 CCSD(T)
 CCSD(T)= -0.15265571520D+03

 The electronic state is 1-A'.
 Alpha  occ. eigenvalues --  -20.53835 -20.53739  -1.31253  -1.30957  -0.68656
 Alpha  occ. eigenvalues --   -0.68423  -0.55739  -0.52733  -0.48462  -0.47897
 Alpha virt. eigenvalues --    0.14365   0.16808   0.20545   0.21963   0.51649
 Alpha virt. eigenvalues --    0.58384   0.58678   0.60107   0.67309   0.76439
 Alpha virt. eigenvalues --    0.77526   0.78311   0.79071   0.82903   0.86120

 Mulliken charges:
               1
     1  O   -0.471809
     2  H    0.233261
     3  H    0.238551
     4  O   -0.469928
     5  H    0.232566
     6  H    0.237358
 Sum of Mulliken charges =  -0.00000

 Dipole moment (field-independent basis, Debye):
    X=             -0.4815    Y=             -0.0732    Z=              0.0000  Tot=              0.4870
 Quadrupole moment (field-independent basis, Debye-Ang):
   XX=             -8.0402   YY=             -0.7895   ZZ=            -14.7117
   XY=             -0.3236   XZ=              0.0000   YZ=              0.0000

 Normal termination of Gaussian 16 at Sat Aug 27 03:23:45 2022.
