 Gaussian 16, Revision A.03,
 Gaussian 16:  ES64L-G16RevA.03 25-Dec-2016

 ------------------
 #p CCSD(T)/cc-pVTZ
 ------------------

 -----------
 H2O_H2O_620
 -----------
 Symbolic Z-matrix:
 Charge =  0 Multiplicity = 1

                         Standard orientation:
 ---------------------------------------------------------------------
 Center     Atomic      Atomic             Coordinates (Angstroms)
 Number     Number       Type             X           Y           Z
 ---------------------------------------------------------------------
      1          8           0        0.055346   -1.076970    0.000000
      2          1           0       -0.746641   -1.644704    0.000000
      3          1           0        0.852486   -1.651490    0.000000
      4          8           0        0.055346    1.161163    0.000000
      5          1           0       -0.285473    2.082765    0.000000
      6          1           0       -0.705912    0.539882    0.000000
 ---------------------------------------------------------------------

 SCF Done:  E(RHF) =  -152.085044106     A.U. after   11 cycles
 E2 =    -0.5325847189D+00 EUMP2 =    -0.15261762882452D+03
 CCSD(T)
 CCSD(T)= -0.15264447209D+03

 The electronic state is 1-A'.
 Alpha  occ. eigenvalues --  -20.55759 -20.51534  -1.34302  -1.28933  -0.71690
 Alpha  occ. eigenvalues --   -0.68745  -0.54946  -0.51949  -0.51174  -0.45913
 Alpha virt. eigenvalues --    0.13333   0.18388   0.19546   0.25463   0.51093
 Alpha virt. eigenvalues --    0.56284   0.60834   0.62674   0.71840   0.74242
 Alpha virt. eigenvalues --    0.78154   0.82527   0.83905   0.84558   0.87415

 Mulliken charges:
               1
     1  O   -0.436536
     2  H    0.218544
     3  H    0.242305
     4  O   -0.481174
     5  H    0.201089
     6  H    0.255772
 Sum of Mulliken charges =   0.00000

 Dipole moment (field-independent basis, Debye):
    X=             -1.6716    Y=             -1.7984    Z=              0.0000  Tot=              2.4553
 Quadrupole moment (field-independent basis, Debye-Ang):
   XX=             -9.7591   YY=             -5.4565   ZZ=            -14.7038
   XY=             -1.9608   XZ=              0.0000   YZ=              0.0000

 Normal termination of Gaussian 16 at Fri Aug 26 18:18:46 2022.
