 Gaussian 16, Revision A.03,
 Gaussian 16:  ES64L-G16RevA.03 25-Dec-2016

 ------------------
 #p CCSD(T)/cc-pVTZ
 ------------------

 ------------
 H2O_H2O_1595
 ------------
 Symbolic Z-matrix:
 Charge =  0 Multiplicity = 1

                         Standard orientation:
 ---------------------------------------------------------------------
 Center     Atomic      Atomic             Coordinates (Angstroms)
 Number     Number       Type             X           Y           Z
 ---------------------------------------------------------------------
      1          8           0        0.055290   -1.595433    0.000000
      2          1           0       -0.745934   -2.164244    0.000000
      3          1           0        0.853201   -2.168881    0.000000
      4          8           0        0.055290    1.679775    0.000000
      5          1           0       -0.286768    2.600918    0.000000
      6          1           0       -0.705133    1.057471    0.000000
 ---------------------------------------------------------------------

 SCF Done:  E(RHF) =  -152.107985022     A.U. after   10 cycles
 E2 =    -0.5268579727D+00 EUMP2 =    -0.15263484299419D+03
 CCSD(T)
 CCSD(T)= -0.15266198320D+03

 The electronic state is 1-A'.
 Alpha  occ. eigenvalues --  -20.55914 -20.53745  -1.33195  -1.31028  -0.70607
 Alpha  occ. eigenvalues --   -0.68422  -0.56598  -0.54468  -0.50312  -0.48155
 Alpha virt. eigenvalues --    0.13261   0.16786   0.19825   0.23848   0.53626
 Alpha virt. eigenvalues --    0.55122   0.56936   0.58272   0.66551   0.75893
 Alpha virt. eigenvalues --    0.76743   0.77118   0.79339   0.81434   0.84547

 Mulliken charges:
               1
     1  O   -0.492679
     2  H    0.243475
     3  H    0.256433
     4  O   -0.505797
     5  H    0.238363
     6  H    0.260206
 Sum of Mulliken charges =  -0.00000

 Dipole moment (field-independent basis, Debye):
    X=             -1.8282    Y=             -1.6124    Z=              0.0000  Tot=              2.4377
 Quadrupole moment (field-independent basis, Debye-Ang):
   XX=             -9.7310   YY=             -2.0870   ZZ=            -14.7205
   XY=             -2.9020   XZ=              0.0000   YZ=              0.0000

 Normal termination of Gaussian 16 at Sat Aug 27 05:40:25 2022.
