 Gaussian 16, Revision A.03,
 Gaussian 16:  ES64L-G16RevA.03 25-Dec-2016

 ------------------
 #p CCSD(T)/cc-pVTZ
 ------------------

 ------------
 H2O_H2O_1563
 ------------
 Symbolic Z-matrix:
 Charge =  0 Multiplicity = 1

                         Standard orientation:
 ---------------------------------------------------------------------
 Center     Atomic      Atomic             Coordinates (Angstroms)
 Number     Number       Type             X           Y           Z
 ---------------------------------------------------------------------
      1          8           0        0.042984   -1.606917    0.000000
      2          1           0       -0.757883   -2.176230    0.000000
      3          1           0        0.841255   -2.179864    0.000000
      4          8           0        0.042984    1.645633    0.000000
      5          1           0        0.143000    2.623131    0.000000
      6          1           0       -0.914118    1.423232    0.000000
 ---------------------------------------------------------------------

 SCF Done:  E(RHF) =  -152.105102777     A.U. after   10 cycles
 E2 =    -0.5269208840D+00 EUMP2 =    -0.15263202366100D+03
 CCSD(T)
 CCSD(T)= -0.15265923727D+03

 The electronic state is 1-A'.
 Alpha  occ. eigenvalues --  -20.54884 -20.53977  -1.32170  -1.31234  -0.69595
 Alpha  occ. eigenvalues --   -0.68629  -0.55733  -0.54280  -0.49285  -0.48329
 Alpha virt. eigenvalues --    0.13827   0.16517   0.20250   0.22328   0.53586
 Alpha virt. eigenvalues --    0.55902   0.57755   0.58636   0.64742   0.76732
 Alpha virt. eigenvalues --    0.78006   0.78484   0.79013   0.81741   0.85345

 Mulliken charges:
               1
     1  O   -0.486002
     2  H    0.238686
     3  H    0.249611
     4  O   -0.487437
     5  H    0.234822
     6  H    0.250320
 Sum of Mulliken charges =  -0.00000

 Dipole moment (field-independent basis, Debye):
    X=             -1.4193    Y=             -0.7293    Z=              0.0000  Tot=              1.5957
 Quadrupole moment (field-independent basis, Debye-Ang):
   XX=             -9.0032   YY=             -0.3391   ZZ=            -14.7137
   XY=             -1.6230   XZ=              0.0000   YZ=              0.0000

 Normal termination of Gaussian 16 at Sat Aug 27 05:29:28 2022.
