 Gaussian 16, Revision A.03,
 Gaussian 16:  ES64L-G16RevA.03 25-Dec-2016

 ------------------
 #p CCSD(T)/cc-pVTZ
 ------------------

 ------------
 H2O_H2O_1493
 ------------
 Symbolic Z-matrix:
 Charge =  0 Multiplicity = 1

                         Standard orientation:
 ---------------------------------------------------------------------
 Center     Atomic      Atomic             Coordinates (Angstroms)
 Number     Number       Type             X           Y           Z
 ---------------------------------------------------------------------
      1          8           0        0.052867   -1.549923    0.000000
      2          1           0       -0.748338   -2.118762    0.000000
      3          1           0        0.850797   -2.123345    0.000000
      4          8           0        0.052867    1.620135    0.000000
      5          1           0       -0.166063    2.578036    0.000000
      6          1           0       -0.782261    1.102381    0.000000
 ---------------------------------------------------------------------

 SCF Done:  E(RHF) =  -152.106854347     A.U. after   10 cycles
 E2 =    -0.5270349111D+00 EUMP2 =    -0.15263388925799D+03
 CCSD(T)
 CCSD(T)= -0.15266105023D+03

 The electronic state is 1-A'.
 Alpha  occ. eigenvalues --  -20.55586 -20.53726  -1.32877  -1.30993  -0.70295
 Alpha  occ. eigenvalues --   -0.68395  -0.56277  -0.54342  -0.49993  -0.48110
 Alpha virt. eigenvalues --    0.13464   0.16804   0.19936   0.23421   0.54121
 Alpha virt. eigenvalues --    0.55179   0.57194   0.58305   0.66478   0.75993
 Alpha virt. eigenvalues --    0.76868   0.77102   0.79299   0.81759   0.84794

 Mulliken charges:
               1
     1  O   -0.488623
     2  H    0.240636
     3  H    0.254190
     4  O   -0.498117
     5  H    0.235278
     6  H    0.256636
 Sum of Mulliken charges =  -0.00000

 Dipole moment (field-independent basis, Debye):
    X=             -1.7384    Y=             -1.3437    Z=              0.0000  Tot=              2.1972
 Quadrupole moment (field-independent basis, Debye-Ang):
   XX=             -9.5778   YY=             -1.7708   ZZ=            -14.7192
   XY=             -2.4481   XZ=              0.0000   YZ=              0.0000

 Normal termination of Gaussian 16 at Sat Aug 27 05:05:41 2022.
