 Gaussian 16, Revision A.03,
 Gaussian 16:  ES64L-G16RevA.03 25-Dec-2016

 ------------------
 #p CCSD(T)/cc-pVTZ
 ------------------

 ------------
 H2O_H2O_3507
 ------------
 Symbolic Z-matrix:
 Charge =  0 Multiplicity = 1

                         Standard orientation:
 ---------------------------------------------------------------------
 Center     Atomic      Atomic             Coordinates (Angstroms)
 Number     Number       Type             X           Y           Z
 ---------------------------------------------------------------------
      1          8           0        0.025265   -2.658651    0.000000
      2          1           0       -0.774771   -3.229130    0.000000
      3          1           0        0.824370   -3.230435    0.000000
      4          8           0        0.025265    2.670390    0.000000
      5          1           0        0.490480    3.535884    0.000000
      6          1           0       -0.944324    2.829772    0.000000
 ---------------------------------------------------------------------

 SCF Done:  E(RHF) =  -152.106524815     A.U. after   10 cycles
 E2 =    -0.5259772426D+00 EUMP2 =    -0.15263250205800D+03
 CCSD(T)
 CCSD(T)= -0.15265973974D+03

 The electronic state is 1-A'.
 Alpha  occ. eigenvalues --  -20.55092 -20.54997  -1.32387  -1.32290  -0.69796
 Alpha  occ. eigenvalues --   -0.69696  -0.55793  -0.55696  -0.49492  -0.49396
 Alpha virt. eigenvalues --    0.14409   0.14704   0.20513   0.20667   0.54749
 Alpha virt. eigenvalues --    0.54904   0.57611   0.57720   0.67996   0.69046
 Alpha virt. eigenvalues --    0.79385   0.79480   0.80826   0.80949   0.82755

 Mulliken charges:
               1
     1  O   -0.503681
     2  H    0.250914
     3  H    0.252768
     4  O   -0.503533
     5  H    0.250480
     6  H    0.253051
 Sum of Mulliken charges =  -0.00000

 Dipole moment (field-independent basis, Debye):
    X=             -0.8650    Y=             -0.2063    Z=              0.0000  Tot=              0.8893
 Quadrupole moment (field-independent basis, Debye-Ang):
   XX=             -8.2101   YY=              8.5574   ZZ=            -14.7104
   XY=             -1.6193   XZ=              0.0000   YZ=              0.0000

 Normal termination of Gaussian 16 at Fri Aug 26 22:54:12 2022.
