 Gaussian 16, Revision A.03,
 Gaussian 16:  ES64L-G16RevA.03 25-Dec-2016

 ------------------
 #p CCSD(T)/cc-pVTZ
 ------------------

 ------------
 H2O_H2O_2528
 ------------
 Symbolic Z-matrix:
 Charge =  0 Multiplicity = 1

                         Standard orientation:
 ---------------------------------------------------------------------
 Center     Atomic      Atomic             Coordinates (Angstroms)
 Number     Number       Type             X           Y           Z
 ---------------------------------------------------------------------
      1          8           0        0.011143   -2.145299    0.000000
      2          1           0       -0.788683   -2.716074    0.000000
      3          1           0        0.810458   -2.716788    0.000000
      4          8           0        0.011143    2.147484    0.000000
      5          1           0        0.684248    2.863330    0.000000
      6          1           0       -0.884307    2.552054    0.000000
 ---------------------------------------------------------------------

 SCF Done:  E(RHF) =  -152.105537319     A.U. after   10 cycles
 E2 =    -0.5261659338D+00 EUMP2 =    -0.15263170325249D+03
 CCSD(T)
 CCSD(T)= -0.15265895242D+03

 The electronic state is 1-A'.
 Alpha  occ. eigenvalues --  -20.54711 -20.54684  -1.32000  -1.31971  -0.69414
 Alpha  occ. eigenvalues --   -0.69384  -0.55428  -0.55238  -0.49102  -0.49066
 Alpha virt. eigenvalues --    0.14269   0.15349   0.20622   0.20976   0.54640
 Alpha virt. eigenvalues --    0.55667   0.57840   0.58023   0.64316   0.73140
 Alpha virt. eigenvalues --    0.79608   0.79963   0.81128   0.81299   0.81966

 Mulliken charges:
               1
     1  O   -0.497455
     2  H    0.247998
     3  H    0.249469
     4  O   -0.497378
     5  H    0.247786
     6  H    0.249579
 Sum of Mulliken charges =  -0.00000

 Dipole moment (field-independent basis, Debye):
    X=             -0.3782    Y=             -0.0391    Z=              0.0000  Tot=              0.3803
 Quadrupole moment (field-independent basis, Debye-Ang):
   XX=             -7.9047   YY=              4.9700   ZZ=            -14.7095
   XY=             -0.4864   XZ=              0.0000   YZ=              0.0000

 .64838\MP4DQ=-152.6408025\MP4SDQ=-152.643878\CCSD=-152.643283\CCSD(T)=
 Normal termination of Gaussian 16 at Fri Aug 26 13:23:08 2022.
