 Gaussian 16, Revision A.03,
 Gaussian 16:  ES64L-G16RevA.03 25-Dec-2016

 ------------------
 #p CCSD(T)/cc-pVTZ
 ------------------

 ------------
 H2O_H2O_1491
 ------------
 Symbolic Z-matrix:
 Charge =  0 Multiplicity = 1

                         Standard orientation:
 ---------------------------------------------------------------------
 Center     Atomic      Atomic             Coordinates (Angstroms)
 Number     Number       Type             X           Y           Z
 ---------------------------------------------------------------------
      1          8           0        0.049538   -1.557181    0.000000
      2          1           0       -0.751564   -2.126164    0.000000
      3          1           0        0.847572   -2.130459    0.000000
      4          8           0        0.049538    1.614029    0.000000
      5          1           0       -0.042664    2.592295    0.000000
      6          1           0       -0.845951    1.209548    0.000000
 ---------------------------------------------------------------------

 SCF Done:  E(RHF) =  -152.105964611     A.U. after   10 cycles
 E2 =    -0.5270352095D+00 EUMP2 =    -0.15263299982045D+03
 CCSD(T)
 CCSD(T)= -0.15266018445D+03

 The electronic state is 1-A'.
 Alpha  occ. eigenvalues --  -20.55265 -20.53812  -1.32557  -1.31069  -0.69979
 Alpha  occ. eigenvalues --   -0.68465  -0.56017  -0.54290  -0.49672  -0.48177
 Alpha virt. eigenvalues --    0.13633   0.16707   0.20065   0.22947   0.54209
 Alpha virt. eigenvalues --    0.55414   0.57445   0.58395   0.65868   0.76184
 Alpha virt. eigenvalues --    0.77352   0.77427   0.79156   0.81848   0.85041

 Mulliken charges:
               1
     1  O   -0.486786
     2  H    0.239195
     3  H    0.252043
     4  O   -0.492262
     5  H    0.234128
     6  H    0.253683
 Sum of Mulliken charges =  -0.00000

 Dipole moment (field-independent basis, Debye):
    X=             -1.6287    Y=             -1.0819    Z=              0.0000  Tot=              1.9553
 Quadrupole moment (field-independent basis, Debye-Ang):
   XX=             -9.3738   YY=             -1.2494   ZZ=            -14.7170
   XY=             -2.0862   XZ=              0.0000   YZ=              0.0000

 Normal termination of Gaussian 16 at Sat Aug 27 05:04:58 2022.
