 Gaussian 16, Revision A.03,
 Gaussian 16:  ES64L-G16RevA.03 25-Dec-2016

 ------------------
 #p CCSD(T)/cc-pVTZ
 ------------------

 ------------
 H2O_H2O_3821
 ------------
 Symbolic Z-matrix:
 Charge =  0 Multiplicity = 1

                         Standard orientation:
 ---------------------------------------------------------------------
 Center     Atomic      Atomic             Coordinates (Angstroms)
 Number     Number       Type             X           Y           Z
 ---------------------------------------------------------------------
      1          8           0        0.056094   -2.774749    0.000000
      2          1           0       -0.744452   -3.344513    0.000000
      3          1           0        0.854688   -3.347247    0.000000
      4          8           0        0.056094    2.866499    0.000000
      5          1           0       -0.346543    3.762819    0.000000
      6          1           0       -0.661202    2.194939    0.000000
 ---------------------------------------------------------------------

 SCF Done:  E(RHF) =  -152.107585615     A.U. after   10 cycles
 E2 =    -0.5258819832D+00 EUMP2 =    -0.15263346759868D+03
 CCSD(T)
 CCSD(T)= -0.15266068240D+03

 The electronic state is 1-A'.
 Alpha  occ. eigenvalues --  -20.55689 -20.55010  -1.32988  -1.32309  -0.70394
 Alpha  occ. eigenvalues --   -0.69704  -0.56443  -0.55758  -0.50100  -0.49424
 Alpha virt. eigenvalues --    0.13886   0.14755   0.20073   0.20844   0.54154
 Alpha virt. eigenvalues --    0.54855   0.57099   0.57756   0.67490   0.68692
 Alpha virt. eigenvalues --    0.78782   0.79444   0.80198   0.80726   0.82451

 Mulliken charges:
               1
     1  O   -0.509932
     2  H    0.253309
     3  H    0.256654
     4  O   -0.509442
     5  H    0.251362
     6  H    0.258049
 Sum of Mulliken charges =  -0.00000

 Dipole moment (field-independent basis, Debye):
    X=             -1.9244    Y=             -1.6122    Z=              0.0000  Tot=              2.5105
 Quadrupole moment (field-independent basis, Debye-Ang):
   XX=             -9.7834   YY=              3.3211   ZZ=            -14.7126
   XY=             -5.3051   XZ=              0.0000   YZ=              0.0000

 Normal termination of Gaussian 16 at Sat Aug 27 03:34:41 2022.
