 Gaussian 16, Revision A.03,
 Gaussian 16:  ES64L-G16RevA.03 25-Dec-2016

 ------------------
 #p CCSD(T)/cc-pVTZ
 ------------------

 ------------
 H2O_H2O_1409
 ------------
 Symbolic Z-matrix:
 Charge =  0 Multiplicity = 1

                         Standard orientation:
 ---------------------------------------------------------------------
 Center     Atomic      Atomic             Coordinates (Angstroms)
 Number     Number       Type             X           Y           Z
 ---------------------------------------------------------------------
      1          8           0        0.031747   -1.537774    0.000000
      2          1           0       -0.768831   -2.107494    0.000000
      3          1           0        0.830309   -2.110317    0.000000
      4          8           0        0.031747    1.556913    0.000000
      5          1           0        0.380884    2.475395    0.000000
      6          1           0       -0.950320    1.589307    0.000000
 ---------------------------------------------------------------------

 SCF Done:  E(RHF) =  -152.103199918     A.U. after   10 cycles
 E2 =    -0.5272034937D+00 EUMP2 =    -0.15263040341172D+03
 CCSD(T)
 CCSD(T)= -0.15265765803D+03

 The electronic state is 1-A'.
 Alpha  occ. eigenvalues --  -20.54353 -20.53891  -1.31666  -1.31147  -0.69092
 Alpha  occ. eigenvalues --   -0.68568  -0.55629  -0.53624  -0.48808  -0.48188
 Alpha virt. eigenvalues --    0.14115   0.16616   0.20426   0.22073   0.52788
 Alpha virt. eigenvalues --    0.57726   0.58119   0.58848   0.65409   0.76775
 Alpha virt. eigenvalues --    0.77811   0.78655   0.79192   0.82330   0.85747

 Mulliken charges:
               1
     1  O   -0.479446
     2  H    0.235428
     3  H    0.244888
     4  O   -0.476905
     5  H    0.232302
     6  H    0.243734
 Sum of Mulliken charges =  -0.00000

 Dipole moment (field-independent basis, Debye):
    X=             -1.0415    Y=             -0.3615    Z=              0.0000  Tot=              1.1025
 Quadrupole moment (field-independent basis, Debye-Ang):
   XX=             -8.5039   YY=             -0.4036   ZZ=            -14.7119
   XY=             -0.9238   XZ=              0.0000   YZ=              0.0000

 Normal termination of Gaussian 16 at Sat Aug 27 04:34:51 2022.
