 Gaussian 16, Revision A.03,
 Gaussian 16:  ES64L-G16RevA.03 25-Dec-2016

 ------------------
 #p CCSD(T)/cc-pVTZ
 ------------------

 ------------
 H2O_H2O_2586
 ------------
 Symbolic Z-matrix:
 Charge =  0 Multiplicity = 1

                         Standard orientation:
 ---------------------------------------------------------------------
 Center     Atomic      Atomic             Coordinates (Angstroms)
 Number     Number       Type             X           Y           Z
 ---------------------------------------------------------------------
      1          8           0        0.037679   -2.157743    0.000000
      2          1           0       -0.762744   -2.727681    0.000000
      3          1           0        0.836396   -2.730068    0.000000
      4          8           0        0.037679    2.185977    0.000000
      5          1           0        0.263682    3.142235    0.000000
      6          1           0       -0.940190    2.089642    0.000000
 ---------------------------------------------------------------------

 SCF Done:  E(RHF) =  -152.106213300     A.U. after   10 cycles
 E2 =    -0.5261125588D+00 EUMP2 =    -0.15263232585915D+03
 CCSD(T)
 CCSD(T)= -0.15265955972D+03

 The electronic state is 1-A'.
 Alpha  occ. eigenvalues --  -20.55032 -20.54672  -1.32321  -1.31957  -0.69733
 Alpha  occ. eigenvalues --   -0.69356  -0.55713  -0.55333  -0.49424  -0.49064
 Alpha virt. eigenvalues --    0.13973   0.15397   0.20408   0.21136   0.54269
 Alpha virt. eigenvalues --    0.55272   0.57649   0.57998   0.65314   0.72851
 Alpha virt. eigenvalues --    0.79394   0.79861   0.80668   0.81380   0.82674

 Mulliken charges:
               1
     1  O   -0.501190
     2  H    0.248271
     3  H    0.253111
     4  O   -0.500814
     5  H    0.246950
     6  H    0.253672
 Sum of Mulliken charges =  -0.00000

 Dipole moment (field-independent basis, Debye):
    X=             -1.2799    Y=             -0.5058    Z=              0.0000  Tot=              1.3762
 Quadrupole moment (field-independent basis, Debye-Ang):
   XX=             -8.7074   YY=              3.9899   ZZ=            -14.7108
   XY=             -1.9846   XZ=              0.0000   YZ=              0.0000

 Normal termination of Gaussian 16 at Fri Aug 26 14:05:25 2022.
