 Gaussian 16, Revision A.03,
 Gaussian 16:  ES64L-G16RevA.03 25-Dec-2016

 ------------------
 #p CCSD(T)/cc-pVTZ
 ------------------

 ------------
 H2O_H2O_1918
 ------------
 Symbolic Z-matrix:
 Charge =  0 Multiplicity = 1

                         Standard orientation:
 ---------------------------------------------------------------------
 Center     Atomic      Atomic             Coordinates (Angstroms)
 Number     Number       Type             X           Y           Z
 ---------------------------------------------------------------------
      1          8           0        0.052854   -1.775934    0.000000
      2          1           0       -0.748147   -2.345059    0.000000
      3          1           0        0.850990   -2.349070    0.000000
      4          8           0        0.052854    1.846183    0.000000
      5          1           0       -0.166418    2.804006    0.000000
      6          1           0       -0.782088    1.328131    0.000000
 ---------------------------------------------------------------------

 SCF Done:  E(RHF) =  -152.107332732     A.U. after   10 cycles
 E2 =    -0.5264513745D+00 EUMP2 =    -0.15263378410619D+03
 CCSD(T)
 CCSD(T)= -0.15266095924D+03

 The electronic state is 1-A'.
 Alpha  occ. eigenvalues --  -20.55576 -20.54154  -1.32849  -1.31431  -0.70263
 Alpha  occ. eigenvalues --   -0.68802  -0.56263  -0.54841  -0.49963  -0.48553
 Alpha virt. eigenvalues --    0.13361   0.16293   0.20012   0.22696   0.54106
 Alpha virt. eigenvalues --    0.54371   0.57226   0.58548   0.64914   0.75845
 Alpha virt. eigenvalues --    0.78377   0.78649   0.79516   0.80719   0.84807

 Mulliken charges:
               1
     1  O   -0.497458
     2  H    0.245337
     3  H    0.255424
     4  O   -0.503858
     5  H    0.241851
     6  H    0.258704
 Sum of Mulliken charges =   0.00000

 Dipole moment (field-independent basis, Debye):
    X=             -1.7690    Y=             -1.3071    Z=              0.0000  Tot=              2.1995
 Quadrupole moment (field-independent basis, Debye-Ang):
   XX=             -9.5665   YY=             -0.4215   ZZ=            -14.7158
   XY=             -2.8426   XZ=              0.0000   YZ=              0.0000

 Normal termination of Gaussian 16 at Sat Aug 27 07:32:29 2022.
