 Gaussian 16, Revision A.03,
 Gaussian 16:  ES64L-G16RevA.03 25-Dec-2016

 ------------------
 #p CCSD(T)/cc-pVTZ
 ------------------

 ------------
 H2O_H2O_1421
 ------------
 Symbolic Z-matrix:
 Charge =  0 Multiplicity = 1

                         Standard orientation:
 ---------------------------------------------------------------------
 Center     Atomic      Atomic             Coordinates (Angstroms)
 Number     Number       Type             X           Y           Z
 ---------------------------------------------------------------------
      1          8           0        0.056159   -1.498424    0.000000
      2          1           0       -0.745191   -2.067057    0.000000
      3          1           0        0.853943   -2.072050    0.000000
      4          8           0        0.056159    1.590016    0.000000
      5          1           0       -0.345211    2.486904    0.000000
      6          1           0       -0.662085    0.919469    0.000000
 ---------------------------------------------------------------------

 SCF Done:  E(RHF) =  -152.108241009     A.U. after   10 cycles
 E2 =    -0.5272337491D+00 EUMP2 =    -0.15263547475857D+03
 CCSD(T)
 CCSD(T)= -0.15266258881D+03

 The electronic state is 1-A'.
 Alpha  occ. eigenvalues --  -20.56147 -20.53442  -1.33452  -1.30738  -0.70859
 Alpha  occ. eigenvalues --   -0.68205  -0.56806  -0.54206  -0.50568  -0.47865
 Alpha virt. eigenvalues --    0.13184   0.17094   0.19720   0.24555   0.52985
 Alpha virt. eigenvalues --    0.55601   0.56844   0.58500   0.68051   0.75293
 Alpha virt. eigenvalues --    0.76084   0.77051   0.80536   0.81822   0.84362

 Mulliken charges:
               1
     1  O   -0.490487
     2  H    0.242976
     3  H    0.257872
     4  O   -0.507815
     5  H    0.236017
     6  H    0.261435
 Sum of Mulliken charges =  -0.00000

 Dipole moment (field-independent basis, Debye):
    X=             -1.8411    Y=             -1.7842    Z=              0.0000  Tot=              2.5638
 Quadrupole moment (field-independent basis, Debye-Ang):
   XX=             -9.7903   YY=             -2.9403   ZZ=            -14.7239
   XY=             -2.9046   XZ=              0.0000   YZ=              0.0000

 Normal termination of Gaussian 16 at Sat Aug 27 04:40:00 2022.
