 Gaussian 16, Revision A.03,
 Gaussian 16:  ES64L-G16RevA.03 25-Dec-2016

 ------------------
 #p CCSD(T)/cc-pVTZ
 ------------------

 ------------
 H2O_H2O_4028
 ------------
 Symbolic Z-matrix:
 Charge =  0 Multiplicity = 1

                         Standard orientation:
 ---------------------------------------------------------------------
 Center     Atomic      Atomic             Coordinates (Angstroms)
 Number     Number       Type             X           Y           Z
 ---------------------------------------------------------------------
      1          8           0        0.011143   -2.943052    0.000000
      2          1           0       -0.788614   -3.513924    0.000000
      3          1           0        0.810528   -3.514445    0.000000
      4          8           0        0.011143    2.945240    0.000000
      5          1           0        0.684161    3.661167    0.000000
      6          1           0       -0.884356    3.349701    0.000000
 ---------------------------------------------------------------------

 SCF Done:  E(RHF) =  -152.106677717     A.U. after   10 cycles
 E2 =    -0.5259487601D+00 EUMP2 =    -0.15263262647671D+03
 CCSD(T)
 CCSD(T)= -0.15265986180D+03

 The electronic state is 1-A'.
 Alpha  occ. eigenvalues --  -20.55131 -20.55117  -1.32427  -1.32412  -0.69834
 Alpha  occ. eigenvalues --   -0.69819  -0.55840  -0.55825  -0.49533  -0.49518
 Alpha virt. eigenvalues --    0.14455   0.14529   0.20513   0.20547   0.54731
 Alpha virt. eigenvalues --    0.54758   0.57588   0.57608   0.68309   0.68521
 Alpha virt. eigenvalues --    0.79346   0.79360   0.80791   0.80809   0.82723

 Mulliken charges:
               1
     1  O   -0.504560
     2  H    0.251972
     3  H    0.252589
     4  O   -0.504541
     5  H    0.251846
     6  H    0.252695
 Sum of Mulliken charges =  -0.00000

 Dipole moment (field-independent basis, Debye):
    X=             -0.3823    Y=             -0.0383    Z=              0.0000  Tot=              0.3842
 Quadrupole moment (field-independent basis, Debye-Ang):
   XX=             -7.8836   YY=             11.3654   ZZ=            -14.7105
   XY=             -0.7863   XZ=              0.0000   YZ=              0.0000

 Normal termination of Gaussian 16 at Sat Aug 27 04:57:58 2022.
