 Gaussian 16, Revision A.03,
 Gaussian 16:  ES64L-G16RevA.03 25-Dec-2016

 ------------------
 #p CCSD(T)/cc-pVTZ
 ------------------

 -----------
 H2O_H2O_370
 -----------
 Symbolic Z-matrix:
 Charge =  0 Multiplicity = 1

                         Standard orientation:
 ---------------------------------------------------------------------
 Center     Atomic      Atomic             Coordinates (Angstroms)
 Number     Number       Type             X           Y           Z
 ---------------------------------------------------------------------
      1          8           0        0.055370   -0.944044    0.000000
      2          1           0       -0.746942   -1.511319    0.000000
      3          1           0        0.852182   -1.519020    0.000000
      4          8           0        0.055370    1.028174    0.000000
      5          1           0       -0.284921    1.949970    0.000000
      6          1           0       -0.706243    0.407328    0.000000
 ---------------------------------------------------------------------

 SCF Done:  E(RHF) =  -152.044709023     A.U. after   11 cycles
 E2 =    -0.5379070282D+00 EUMP2 =    -0.15258261605095D+03
 CCSD(T)
 CCSD(T)= -0.15260894980D+03

 The electronic state is 1-A'.
 Alpha  occ. eigenvalues --  -20.55424 -20.50361  -1.35934  -1.27763  -0.73533
 Alpha  occ. eigenvalues --   -0.69928  -0.53451  -0.52183  -0.49163  -0.44691
 Alpha virt. eigenvalues --    0.13309   0.18863   0.19447   0.25652   0.50615
 Alpha virt. eigenvalues --    0.55557   0.61555   0.65249   0.72455   0.75355
 Alpha virt. eigenvalues --    0.79520   0.81053   0.83900   0.85045   0.87948

 Mulliken charges:
               1
     1  O   -0.388664
     2  H    0.195555
     3  H    0.230520
     4  O   -0.466568
     5  H    0.174798
     6  H    0.254359
 Sum of Mulliken charges =  -0.00000

 Dipole moment (field-independent basis, Debye):
    X=             -1.5845    Y=             -1.8961    Z=              0.0000  Tot=              2.4710
 Quadrupole moment (field-independent basis, Debye-Ang):
   XX=             -9.7685   YY=             -6.7256   ZZ=            -14.6585
   XY=             -1.6915   XZ=              0.0000   YZ=              0.0000

 Normal termination of Gaussian 16 at Fri Aug 26 15:44:44 2022.
