 Gaussian 16, Revision A.03,
 Gaussian 16:  ES64L-G16RevA.03 25-Dec-2016

 ------------------
 #p CCSD(T)/cc-pVTZ
 ------------------

 ------------
 H2O_H2O_4192
 ------------
 Symbolic Z-matrix:
 Charge =  0 Multiplicity = 1

                         Standard orientation:
 ---------------------------------------------------------------------
 Center     Atomic      Atomic             Coordinates (Angstroms)
 Number     Number       Type             X           Y           Z
 ---------------------------------------------------------------------
      1          8           0        0.051270   -2.989499    0.000000
      2          1           0       -0.749134   -3.559464    0.000000
      3          1           0        0.850006   -3.561798    0.000000
      4          8           0        0.051270    3.053055    0.000000
      5          1           0       -0.105906    4.023005    0.000000
      6          1           0       -0.815281    2.589810    0.000000
 ---------------------------------------------------------------------

 SCF Done:  E(RHF) =  -152.107292930     A.U. after   10 cycles
 E2 =    -0.5258948700D+00 EUMP2 =    -0.15263318779988D+03
 CCSD(T)
 CCSD(T)= -0.15266040998D+03

 The electronic state is 1-A'.
 Alpha  occ. eigenvalues --  -20.55517 -20.55113  -1.32816  -1.32409  -0.70222
 Alpha  occ. eigenvalues --   -0.69809  -0.56258  -0.55850  -0.49926  -0.49521
 Alpha virt. eigenvalues --    0.14125   0.14572   0.20213   0.20654   0.54338
 Alpha virt. eigenvalues --    0.54769   0.57248   0.57655   0.67890   0.68406
 Alpha virt. eigenvalues --    0.78954   0.79352   0.80386   0.80811   0.82333

 Mulliken charges:
               1
     1  O   -0.508220
     2  H    0.252815
     3  H    0.255407
     4  O   -0.507937
     5  H    0.251676
     6  H    0.256259
 Sum of Mulliken charges =   0.00000

 Dipole moment (field-independent basis, Debye):
    X=             -1.7609    Y=             -1.1122    Z=              0.0000  Tot=              2.0827
 Quadrupole moment (field-independent basis, Debye-Ang):
   XX=             -9.4577   YY=              6.9796   ZZ=            -14.7118
   XY=             -4.7446   XZ=              0.0000   YZ=              0.0000

 Normal termination of Gaussian 16 at Sat Aug 27 05:54:25 2022.
