 Gaussian 16, Revision A.03,
 Gaussian 16:  ES64L-G16RevA.03 25-Dec-2016

 ------------------
 #p CCSD(T)/cc-pVTZ
 ------------------

 ------------
 H2O_H2O_2213
 ------------
 Symbolic Z-matrix:
 Charge =  0 Multiplicity = 1

                         Standard orientation:
 ---------------------------------------------------------------------
 Center     Atomic      Atomic             Coordinates (Angstroms)
 Number     Number       Type             X           Y           Z
 ---------------------------------------------------------------------
      1          8           0        0.042976   -1.952592    0.000000
      2          1           0       -0.757664   -2.522224    0.000000
      3          1           0        0.841475   -2.525222    0.000000
      4          8           0        0.042976    1.991343    0.000000
      5          1           0        0.142603    2.968881    0.000000
      6          1           0       -0.914037    1.768560    0.000000
 ---------------------------------------------------------------------

 SCF Done:  E(RHF) =  -152.106233395     A.U. after   10 cycles
 E2 =    -0.5262664893D+00 EUMP2 =    -0.15263249988415D+03
 CCSD(T)
 CCSD(T)= -0.15265971791D+03

 The electronic state is 1-A'.
 Alpha  occ. eigenvalues --  -20.55085 -20.54463  -1.32367  -1.31741  -0.69782
 Alpha  occ. eigenvalues --   -0.69132  -0.55764  -0.55092  -0.49472  -0.48850
 Alpha virt. eigenvalues --    0.13719   0.15814   0.20301   0.21566   0.53581
 Alpha virt. eigenvalues --    0.55169   0.57623   0.58248   0.64225   0.75200
 Alpha virt. eigenvalues --    0.79164   0.79820   0.80238   0.81293   0.83461

 Mulliken charges:
               1
     1  O   -0.498656
     2  H    0.246215
     3  H    0.253231
     4  O   -0.499329
     5  H    0.244220
     6  H    0.254319
 Sum of Mulliken charges =  -0.00000

 Dipole moment (field-independent basis, Debye):
    X=             -1.4502    Y=             -0.7056    Z=              0.0000  Tot=              1.6127
 Quadrupole moment (field-independent basis, Debye-Ang):
   XX=             -8.9786   YY=              2.0920   ZZ=            -14.7118
   XY=             -2.1171   XZ=              0.0000   YZ=              0.0000

 Normal termination of Gaussian 16 at Sat Aug 27 09:14:52 2022.
