 Gaussian 16, Revision A.03,
 Gaussian 16:  ES64L-G16RevA.03 25-Dec-2016

 ------------------
 #p CCSD(T)/cc-pVTZ
 ------------------

 ------------
 H2O_H2O_2086
 ------------
 Symbolic Z-matrix:
 Charge =  0 Multiplicity = 1

                         Standard orientation:
 ---------------------------------------------------------------------
 Center     Atomic      Atomic             Coordinates (Angstroms)
 Number     Number       Type             X           Y           Z
 ---------------------------------------------------------------------
      1          8           0        0.037681   -1.891833    0.000000
      2          1           0       -0.762860   -2.461604    0.000000
      3          1           0        0.836280   -2.464324    0.000000
      4          8           0        0.037681    1.920051    0.000000
      5          1           0        0.263884    2.876261    0.000000
      6          1           0       -0.940207    1.823919    0.000000
 ---------------------------------------------------------------------

 SCF Done:  E(RHF) =  -152.105737487     A.U. after   10 cycles
 E2 =    -0.5263649474D+00 EUMP2 =    -0.15263210243438D+03
 CCSD(T)
 CCSD(T)= -0.15265932699D+03

 The electronic state is 1-A'.
 Alpha  occ. eigenvalues --  -20.54894 -20.54413  -1.32174  -1.31688  -0.69592
 Alpha  occ. eigenvalues --   -0.69084  -0.55593  -0.54959  -0.49278  -0.48791
 Alpha virt. eigenvalues --    0.13842   0.15897   0.20381   0.21530   0.53413
 Alpha virt. eigenvalues --    0.55481   0.57762   0.58289   0.63446   0.75688
 Alpha virt. eigenvalues --    0.79168   0.79688   0.80466   0.81010   0.83327

 Mulliken charges:
               1
     1  O   -0.495322
     2  H    0.244645
     3  H    0.251367
     4  O   -0.495740
     5  H    0.242952
     6  H    0.252098
 Sum of Mulliken charges =  -0.00000

 Dipole moment (field-independent basis, Debye):
    X=             -1.2680    Y=             -0.5164    Z=              0.0000  Tot=              1.3691
 Quadrupole moment (field-independent basis, Debye-Ang):
   XX=             -8.7183   YY=              2.0747   ZZ=            -14.7111
   XY=             -1.6487   XZ=              0.0000   YZ=              0.0000

 Normal termination of Gaussian 16 at Sat Aug 27 08:30:26 2022.
