 Gaussian 16, Revision A.03,
 Gaussian 16:  ES64L-G16RevA.03 25-Dec-2016

 ------------------
 #p CCSD(T)/cc-pVTZ
 ------------------

 ------------
 H2O_H2O_1581
 ------------
 Symbolic Z-matrix:
 Charge =  0 Multiplicity = 1

                         Standard orientation:
 ---------------------------------------------------------------------
 Center     Atomic      Atomic             Coordinates (Angstroms)
 Number     Number       Type             X           Y           Z
 ---------------------------------------------------------------------
      1          8           0        0.021861   -1.636546    0.000000
      2          1           0       -0.778364   -2.206760    0.000000
      3          1           0        0.820777   -2.208594    0.000000
      4          8           0        0.021861    1.645191    0.000000
      5          1           0        0.542962    2.478234    0.000000
      6          1           0       -0.935154    1.867962    0.000000
 ---------------------------------------------------------------------

 SCF Done:  E(RHF) =  -152.103531419     A.U. after   10 cycles
 E2 =    -0.5269168248D+00 EUMP2 =    -0.15263044824399D+03
 CCSD(T)
 CCSD(T)= -0.15265770792D+03

 The electronic state is 1-A'.
 Alpha  occ. eigenvalues --  -20.54276 -20.54088  -1.31574  -1.31350  -0.68999
 Alpha  occ. eigenvalues --   -0.68775  -0.55441  -0.53935  -0.48715  -0.48391
 Alpha virt. eigenvalues --    0.14197   0.16379   0.20523   0.21709   0.52706
 Alpha virt. eigenvalues --    0.57637   0.58136   0.58600   0.63288   0.76652
 Alpha virt. eigenvalues --    0.78449   0.78622   0.79732   0.81828   0.85242

 Mulliken charges:
               1
     1  O   -0.481177
     2  H    0.237897
     3  H    0.243654
     4  O   -0.480582
     5  H    0.236950
     6  H    0.243258
 Sum of Mulliken charges =  -0.00000

 Dipole moment (field-independent basis, Debye):
    X=             -0.7243    Y=             -0.1619    Z=              0.0000  Tot=              0.7421
 Quadrupole moment (field-independent basis, Debye-Ang):
   XX=             -8.1656   YY=              0.6226   ZZ=            -14.7097
   XY=             -0.6318   XZ=              0.0000   YZ=              0.0000

 Normal termination of Gaussian 16 at Sat Aug 27 05:35:38 2022.
