 Gaussian 16, Revision A.03,
 Gaussian 16:  ES64L-G16RevA.03 25-Dec-2016

 ------------------
 #p CCSD(T)/cc-pVTZ
 ------------------

 ------------
 H2O_H2O_4298
 ------------
 Symbolic Z-matrix:
 Charge =  0 Multiplicity = 1

                         Standard orientation:
 ---------------------------------------------------------------------
 Center     Atomic      Atomic             Coordinates (Angstroms)
 Number     Number       Type             X           Y           Z
 ---------------------------------------------------------------------
      1          8           0        0.057076   -3.019322    0.000000
      2          1           0       -0.743406   -3.589176    0.000000
      3          1           0        0.855734   -3.591730    0.000000
      4          8           0        0.057076    3.125895    0.000000
      5          1           0       -0.459205    3.961934    0.000000
      6          1           0       -0.566341    2.366384    0.000000
 ---------------------------------------------------------------------

 SCF Done:  E(RHF) =  -152.107675877     A.U. after   10 cycles
 E2 =    -0.5258594193D+00 EUMP2 =    -0.15263353529670D+03
 CCSD(T)
 CCSD(T)= -0.15266074944D+03

 The electronic state is 1-A'.
 Alpha  occ. eigenvalues --  -20.55756 -20.55105  -1.33056  -1.32405  -0.70462
 Alpha  occ. eigenvalues --   -0.69803  -0.56516  -0.55859  -0.50170  -0.49521
 Alpha virt. eigenvalues --    0.13908   0.14613   0.20028   0.20733   0.54094
 Alpha virt. eigenvalues --    0.54765   0.57038   0.57684   0.67586   0.68389
 Alpha virt. eigenvalues --    0.78711   0.79348   0.80135   0.80775   0.82142

 Mulliken charges:
               1
     1  O   -0.510485
     2  H    0.253964
     3  H    0.256527
     4  O   -0.510062
     5  H    0.252247
     6  H    0.257809
 Sum of Mulliken charges =  -0.00000

 Dipole moment (field-independent basis, Debye):
    X=             -1.9612    Y=             -1.8649    Z=              0.0000  Tot=              2.7063
 Quadrupole moment (field-independent basis, Debye-Ang):
   XX=             -9.8549   YY=              2.9807   ZZ=            -14.7127
   XY=             -6.1546   XZ=              0.0000   YZ=              0.0000

 Normal termination of Gaussian 16 at Sat Aug 27 06:31:43 2022.
