 Gaussian 16, Revision A.03,
 Gaussian 16:  ES64L-G16RevA.03 25-Dec-2016

 ------------------
 #p CCSD(T)/cc-pVTZ
 ------------------

 -----------
 H2O_H2O_906
 -----------
 Symbolic Z-matrix:
 Charge =  0 Multiplicity = 1

                         Standard orientation:
 ---------------------------------------------------------------------
 Center     Atomic      Atomic             Coordinates (Angstroms)
 Number     Number       Type             X           Y           Z
 ---------------------------------------------------------------------
      1          8           0        0.021863   -1.277563    0.000000
      2          1           0       -0.778546   -1.847521    0.000000
      3          1           0        0.820594   -1.849868    0.000000
      4          8           0        0.021863    1.286194    0.000000
      5          1           0        0.543231    2.119070    0.000000
      6          1           0       -0.935081    1.509273    0.000000
 ---------------------------------------------------------------------

 SCF Done:  E(RHF) =  -152.095125709     A.U. after   11 cycles
 E2 =    -0.5288582341D+00 EUMP2 =    -0.15262398394303D+03
 CCSD(T)
 CCSD(T)= -0.15265127499D+03

 The electronic state is 1-A'.
 Alpha  occ. eigenvalues --  -20.53436 -20.53186  -1.31167  -1.30343  -0.68497
 Alpha  occ. eigenvalues --   -0.67895  -0.56670  -0.50841  -0.48443  -0.47155
 Alpha virt. eigenvalues --    0.14399   0.17320   0.20516   0.22429   0.51353
 Alpha virt. eigenvalues --    0.58622   0.58821   0.62065   0.71500   0.76603
 Alpha virt. eigenvalues --    0.76744   0.79112   0.83563   0.83769   0.86286

 Mulliken charges:
               1
     1  O   -0.465319
     2  H    0.227359
     3  H    0.237005
     4  O   -0.456588
     5  H    0.222284
     6  H    0.235260
 Sum of Mulliken charges =  -0.00000

 Dipole moment (field-independent basis, Debye):
    X=             -0.6895    Y=             -0.1665    Z=              0.0000  Tot=              0.7093
 Quadrupole moment (field-independent basis, Debye-Ang):
   XX=             -8.2540   YY=             -2.5922   ZZ=            -14.7217
   XY=             -0.3841   XZ=              0.0000   YZ=              0.0000

 Normal termination of Gaussian 16 at Fri Aug 26 21:05:27 2022.
