 Gaussian 16, Revision A.03,
 Gaussian 16:  ES64L-G16RevA.03 25-Dec-2016

 ------------------
 #p CCSD(T)/cc-pVTZ
 ------------------

 ------------
 H2O_H2O_4752
 ------------
 Symbolic Z-matrix:
 Charge =  0 Multiplicity = 1

                         Standard orientation:
 ---------------------------------------------------------------------
 Center     Atomic      Atomic             Coordinates (Angstroms)
 Number     Number       Type             X           Y           Z
 ---------------------------------------------------------------------
      1          8           0        0.007455   -3.329293    0.000000
      2          1           0       -0.792226   -3.900271    0.000000
      3          1           0        0.806916   -3.900579    0.000000
      4          8           0        0.007455    3.330267    0.000000
      5          1           0        0.725767    4.000739    0.000000
      6          1           0       -0.859735    3.792314    0.000000
 ---------------------------------------------------------------------

 SCF Done:  E(RHF) =  -152.106918030     A.U. after   10 cycles
 E2 =    -0.5259180722D+00 EUMP2 =    -0.15263283610240D+03
 CCSD(T)
 CCSD(T)= -0.15266006690D+03

 The electronic state is 1-A'.
 Alpha  occ. eigenvalues --  -20.55238 -20.55233  -1.32535  -1.32530  -0.69941
 Alpha  occ. eigenvalues --   -0.69936  -0.55959  -0.55954  -0.49642  -0.49637
 Alpha virt. eigenvalues --    0.14395   0.14407   0.20447   0.20454   0.54627
 Alpha virt. eigenvalues --    0.54633   0.57501   0.57507   0.68262   0.68280
 Alpha virt. eigenvalues --    0.79237   0.79242   0.80679   0.80684   0.82605

 Mulliken charges:
               1
     1  O   -0.505972
     2  H    0.252840
     3  H    0.253131
     4  O   -0.505967
     5  H    0.252777
     6  H    0.253190
 Sum of Mulliken charges =  -0.00000

 Dipole moment (field-independent basis, Debye):
    X=             -0.2563    Y=             -0.0170    Z=              0.0000  Tot=              0.2569
 Quadrupole moment (field-independent basis, Debye-Ang):
   XX=             -7.8363   YY=             14.5231   ZZ=            -14.7108
   XY=             -0.6212   XZ=              0.0000   YZ=              0.0000

 Normal termination of Gaussian 16 at Sat Aug 27 09:08:45 2022.
