 Gaussian 16, Revision A.03,
 Gaussian 16:  ES64L-G16RevA.03 25-Dec-2016

 ------------------
 #p CCSD(T)/cc-pVTZ
 ------------------

 -----------
 H2O_H2O_448
 -----------
 Symbolic Z-matrix:
 Charge =  0 Multiplicity = 1

                         Standard orientation:
 ---------------------------------------------------------------------
 Center     Atomic      Atomic             Coordinates (Angstroms)
 Number     Number       Type             X           Y           Z
 ---------------------------------------------------------------------
      1          8           0        0.057246   -0.971942    0.000000
      2          1           0       -0.745050   -1.539240    0.000000
      3          1           0        0.854074   -1.546894    0.000000
      4          8           0        0.057246    1.078151    0.000000
      5          1           0       -0.456366    1.915832    0.000000
      6          1           0       -0.568591    0.320631    0.000000
 ---------------------------------------------------------------------

 SCF Done:  E(RHF) =  -152.054503479     A.U. after   11 cycles
 E2 =    -0.5371534430D+00 EUMP2 =    -0.15259165692204D+03
 CCSD(T)
 CCSD(T)= -0.15261778499D+03

 The electronic state is 1-A'.
 Alpha  occ. eigenvalues --  -20.57018 -20.49267  -1.37176  -1.27317  -0.74716
 Alpha  occ. eigenvalues --   -0.70830  -0.53305  -0.51690  -0.51230  -0.44245
 Alpha virt. eigenvalues --    0.12749   0.18615   0.19560   0.27325   0.49256
 Alpha virt. eigenvalues --    0.54603   0.62519   0.67047   0.72154   0.74465
 Alpha virt. eigenvalues --    0.77633   0.80434   0.83697   0.85300   0.87601

 Mulliken charges:
               1
     1  O   -0.379199
     2  H    0.206262
     3  H    0.239439
     4  O   -0.520430
     5  H    0.189019
     6  H    0.264908
 Sum of Mulliken charges =  -0.00000

 Dipole moment (field-independent basis, Debye):
    X=             -1.6661    Y=             -2.5650    Z=              0.0000  Tot=              3.0586
 Quadrupole moment (field-independent basis, Debye-Ang):
   XX=             -9.8310   YY=             -6.9603   ZZ=            -14.6435
   XY=             -2.2237   XZ=              0.0000   YZ=              0.0000

 Normal termination of Gaussian 16 at Fri Aug 26 16:33:00 2022.
