 Gaussian 16, Revision A.03,
 Gaussian 16:  ES64L-G16RevA.03 25-Dec-2016

 ------------------
 #p CCSD(T)/cc-pVTZ
 ------------------

 ------------
 H2O_H2O_2459
 ------------
 Symbolic Z-matrix:
 Charge =  0 Multiplicity = 1

                         Standard orientation:
 ---------------------------------------------------------------------
 Center     Atomic      Atomic             Coordinates (Angstroms)
 Number     Number       Type             X           Y           Z
 ---------------------------------------------------------------------
      1          8           0        0.031743   -2.096187    0.000000
      2          1           0       -0.768568   -2.666281    0.000000
      3          1           0        0.830572   -2.668356    0.000000
      4          8           0        0.031743    2.115355    0.000000
      5          1           0        0.380450    3.034001    0.000000
      6          1           0       -0.950340    2.147290    0.000000
 ---------------------------------------------------------------------

 SCF Done:  E(RHF) =  -152.105878268     A.U. after   10 cycles
 E2 =    -0.5261700660D+00 EUMP2 =    -0.15263204833348D+03
 CCSD(T)
 CCSD(T)= -0.15265928652D+03

 The electronic state is 1-A'.
 Alpha  occ. eigenvalues --  -20.54888 -20.54629  -1.32175  -1.31913  -0.69589
 Alpha  occ. eigenvalues --   -0.69316  -0.55569  -0.55248  -0.49277  -0.49016
 Alpha virt. eigenvalues --    0.14039   0.15479   0.20478   0.21137   0.54227
 Alpha virt. eigenvalues --    0.55476   0.57750   0.58045   0.64444   0.73574
 Alpha virt. eigenvalues --    0.79467   0.79978   0.80767   0.81184   0.82485

 Mulliken charges:
               1
     1  O   -0.499021
     2  H    0.247385
     3  H    0.251802
     4  O   -0.498664
     5  H    0.246340
     6  H    0.252157
 Sum of Mulliken charges =  -0.00000

 Dipole moment (field-independent basis, Debye):
    X=             -1.0763    Y=             -0.3446    Z=              0.0000  Tot=              1.1301
 Quadrupole moment (field-independent basis, Debye-Ang):
   XX=             -8.4541   YY=              3.9319   ZZ=            -14.7104
   XY=             -1.5113   XZ=              0.0000   YZ=              0.0000

 Normal termination of Gaussian 16 at Sat Aug 27 10:40:35 2022.
