 Gaussian 16, Revision A.03,
 Gaussian 16:  ES64L-G16RevA.03 25-Dec-2016

 ------------------
 #p CCSD(T)/cc-pVTZ
 ------------------

 -----------
 H2O_H2O_923
 -----------
 Symbolic Z-matrix:
 Charge =  0 Multiplicity = 1

                         Standard orientation:
 ---------------------------------------------------------------------
 Center     Atomic      Atomic             Coordinates (Angstroms)
 Number     Number       Type             X           Y           Z
 ---------------------------------------------------------------------
      1          8           0        0.057195   -1.224507    0.000000
      2          1           0       -0.744563   -1.792565    0.000000
      3          1           0        0.854568   -1.798705    0.000000
      4          8           0        0.057195    1.330824    0.000000
      5          1           0       -0.457209    2.168019    0.000000
      6          1           0       -0.567924    0.572714    0.000000
 ---------------------------------------------------------------------

 SCF Done:  E(RHF) =  -152.103292580     A.U. after   10 cycles
 E2 =    -0.5298247031D+00 EUMP2 =    -0.15263311728346D+03
 CCSD(T)
 CCSD(T)= -0.15266003305D+03

 The electronic state is 1-A'.
 Alpha  occ. eigenvalues --  -20.56876 -20.51959  -1.34610  -1.29442  -0.71942
 Alpha  occ. eigenvalues --   -0.68256  -0.56646  -0.53017  -0.51624  -0.46521
 Alpha virt. eigenvalues --    0.12948   0.18154   0.19347   0.26651   0.50655
 Alpha virt. eigenvalues --    0.55988   0.59820   0.61050   0.71156   0.73528
 Alpha virt. eigenvalues --    0.75130   0.81303   0.82684   0.83596   0.86655

 Mulliken charges:
               1
     1  O   -0.466699
     2  H    0.237052
     3  H    0.255119
     4  O   -0.517843
     5  H    0.223646
     6  H    0.268726
 Sum of Mulliken charges =  -0.00000

 Dipole moment (field-independent basis, Debye):
    X=             -1.8040    Y=             -2.2546    Z=              0.0000  Tot=              2.8875
 Quadrupole moment (field-independent basis, Debye-Ang):
   XX=             -9.8493   YY=             -5.1059   ZZ=            -14.7186
   XY=             -2.7249   XZ=              0.0000   YZ=              0.0000

 Normal termination of Gaussian 16 at Fri Aug 26 21:13:41 2022.
