 Gaussian 16, Revision A.03,
 Gaussian 16:  ES64L-G16RevA.03 25-Dec-2016

 ------------------
 #p CCSD(T)/cc-pVTZ
 ------------------

 ------------
 H2O_H2O_3250
 ------------
 Symbolic Z-matrix:
 Charge =  0 Multiplicity = 1

                         Standard orientation:
 ---------------------------------------------------------------------
 Center     Atomic      Atomic             Coordinates (Angstroms)
 Number     Number       Type             X           Y           Z
 ---------------------------------------------------------------------
      1          8           0        0.000000   -0.000000    2.532067
      2          1           0        0.000000    0.799571    3.103199
      3          1           0       -0.000000   -0.799571    3.103199
      4          8           0        0.000000   -0.000000   -2.532067
      5          1           0       -0.000000   -0.799571   -3.103199
      6          1           0        0.000000    0.799571   -3.103199
 ---------------------------------------------------------------------

 SCF Done:  E(RHF) =  -152.106200519     A.U. after   10 cycles
 E2 =    -0.5260152868D+00 EUMP2 =    -0.15263221580623D+03
 CCSD(T)
 CCSD(T)= -0.15265945974D+03

 The electronic state is 1-AG.
 Alpha  occ. eigenvalues --  -20.54938 -20.54938  -1.32231  -1.32231  -0.69641
 Alpha  occ. eigenvalues --   -0.69640  -0.55631  -0.55608  -0.49335  -0.49333
 Alpha virt. eigenvalues --    0.14460   0.14814   0.20594   0.20708   0.54847
 Alpha virt. eigenvalues --    0.55019   0.57721   0.57775   0.67661   0.69659
 Alpha virt. eigenvalues --    0.79526   0.79558   0.80956   0.81040   0.82734

 Mulliken charges:
               1
     1  O   -0.501760
     2  H    0.250880
     3  H    0.250880
     4  O   -0.501760
     5  H    0.250880
     6  H    0.250880
 Sum of Mulliken charges =   0.00000

 Dipole moment (field-independent basis, Debye):
    X=             -0.0000    Y=              0.0000    Z=              0.0000  Tot=              0.0000
 Quadrupole moment (field-independent basis, Debye-Ang):
   XX=            -14.7099   YY=             -7.8137   ZZ=              8.1947
   XY=              0.0000   XZ=              0.0000   YZ=             -0.0000

 6\MP4DQ=-152.6413363\MP4SDQ=-152.6444024\CCSD=-152.6438118\CCSD(T)=-15
 Normal termination of Gaussian 16 at Fri Aug 26 20:44:05 2022.
