 Gaussian 16, Revision A.03,
 Gaussian 16:  ES64L-G16RevA.03 25-Dec-2016

 ------------------
 #p CCSD(T)/cc-pVTZ
 ------------------

 ------------
 H2O_H2O_2736
 ------------
 Symbolic Z-matrix:
 Charge =  0 Multiplicity = 1

                         Standard orientation:
 ---------------------------------------------------------------------
 Center     Atomic      Atomic             Coordinates (Angstroms)
 Number     Number       Type             X           Y           Z
 ---------------------------------------------------------------------
      1          8           0        0.037678   -2.237516    0.000000
      2          1           0       -0.762715   -2.807497    0.000000
      3          1           0        0.836426   -2.809799    0.000000
      4          8           0        0.037678    2.265754    0.000000
      5          1           0        0.263631    3.222024    0.000000
      6          1           0       -0.940186    2.169367    0.000000
 ---------------------------------------------------------------------

 SCF Done:  E(RHF) =  -152.106317621     A.U. after   10 cycles
 E2 =    -0.5260703133D+00 EUMP2 =    -0.15263238793473D+03
 CCSD(T)
 CCSD(T)= -0.15265962309D+03

 The electronic state is 1-A'.
 Alpha  occ. eigenvalues --  -20.55067 -20.54735  -1.32358  -1.32022  -0.69769
 Alpha  occ. eigenvalues --   -0.69422  -0.55753  -0.55411  -0.49462  -0.49129
 Alpha virt. eigenvalues --    0.14040   0.15261   0.20413   0.21044   0.54429
 Alpha virt. eigenvalues --    0.55207   0.57620   0.57943   0.65958   0.71915
 Alpha virt. eigenvalues --    0.79389   0.79766   0.80711   0.81379   0.82663

 Mulliken charges:
               1
     1  O   -0.502140
     2  H    0.248928
     3  H    0.253333
     4  O   -0.501712
     5  H    0.247703
     6  H    0.253888
 Sum of Mulliken charges =  -0.00000

 Dipole moment (field-independent basis, Debye):
    X=             -1.2823    Y=             -0.5035    Z=              0.0000  Tot=              1.3776
 Quadrupole moment (field-independent basis, Debye-Ang):
   XX=             -8.7054   YY=              4.5590   ZZ=            -14.7107
   XY=             -2.0856   XZ=              0.0000   YZ=              0.0000

 Normal termination of Gaussian 16 at Fri Aug 26 15:36:40 2022.
