 Gaussian 16, Revision A.03,
 Gaussian 16:  ES64L-G16RevA.03 25-Dec-2016

 ------------------
 #p CCSD(T)/cc-pVTZ
 ------------------

 -----------
 H2O_H2O_392
 -----------
 Symbolic Z-matrix:
 Charge =  0 Multiplicity = 1

                         Standard orientation:
 ---------------------------------------------------------------------
 Center     Atomic      Atomic             Coordinates (Angstroms)
 Number     Number       Type             X           Y           Z
 ---------------------------------------------------------------------
      1          8           0        0.051363   -0.968679    0.000000
      2          1           0       -0.750718   -1.536280    0.000000
      3          1           0        0.848409   -1.543330    0.000000
      4          8           0        0.051363    1.031932    0.000000
      5          1           0       -0.102952    2.002340    0.000000
      6          1           0       -0.816550    0.571245    0.000000
 ---------------------------------------------------------------------

 SCF Done:  E(RHF) =  -152.055793007     A.U. after   11 cycles
 E2 =    -0.5360676589D+00 EUMP2 =    -0.15259186066623D+03
 CCSD(T)
 CCSD(T)= -0.15261853517D+03

 The electronic state is 1-A'.
 Alpha  occ. eigenvalues --  -20.54340 -20.51403  -1.34296  -1.28388  -0.71688
 Alpha  occ. eigenvalues --   -0.68842  -0.55866  -0.50981  -0.48148  -0.45237
 Alpha virt. eigenvalues --    0.13735   0.18497   0.19748   0.24537   0.51963
 Alpha virt. eigenvalues --    0.56719   0.60016   0.63710   0.72250   0.75624
 Alpha virt. eigenvalues --    0.80018   0.82408   0.83990   0.84196   0.88122

 Mulliken charges:
               1
     1  O   -0.414777
     2  H    0.200492
     3  H    0.228008
     4  O   -0.432728
     5  H    0.174013
     6  H    0.244991
 Sum of Mulliken charges =  -0.00000

 Dipole moment (field-independent basis, Debye):
    X=             -1.4807    Y=             -1.3345    Z=              0.0000  Tot=              1.9933
 Quadrupole moment (field-independent basis, Debye-Ang):
   XX=             -9.5666   YY=             -6.1456   ZZ=            -14.6912
   XY=             -1.2809   XZ=              0.0000   YZ=              0.0000

 Normal termination of Gaussian 16 at Fri Aug 26 15:58:54 2022.
