 Gaussian 16, Revision A.03,
 Gaussian 16:  ES64L-G16RevA.03 25-Dec-2016

 ------------------
 #p CCSD(T)/cc-pVTZ
 ------------------

 ------------
 H2O_H2O_2443
 ------------
 Symbolic Z-matrix:
 Charge =  0 Multiplicity = 1

                         Standard orientation:
 ---------------------------------------------------------------------
 Center     Atomic      Atomic             Coordinates (Angstroms)
 Number     Number       Type             X           Y           Z
 ---------------------------------------------------------------------
      1          8           0        0.052842   -2.055130    0.000000
      2          1           0       -0.747968   -2.624523    0.000000
      3          1           0        0.851170   -2.627998    0.000000
      4          8           0        0.052842    2.125414    0.000000
      5          1           0       -0.166751    3.083165    0.000000
      6          1           0       -0.781926    1.607082    0.000000
 ---------------------------------------------------------------------

 SCF Done:  E(RHF) =  -152.107339600     A.U. after   10 cycles
 E2 =    -0.5261175645D+00 EUMP2 =    -0.15263345716470D+03
 CCSD(T)
 CCSD(T)= -0.15266065567D+03

 The electronic state is 1-A'.
 Alpha  occ. eigenvalues --  -20.55545 -20.54516  -1.32829  -1.31804  -0.70239
 Alpha  occ. eigenvalues --   -0.69184  -0.56256  -0.55235  -0.49941  -0.48922
 Alpha virt. eigenvalues --    0.13388   0.15724   0.20081   0.21806   0.54000
 Alpha virt. eigenvalues --    0.54678   0.57265   0.58248   0.65706   0.73747
 Alpha virt. eigenvalues --    0.78891   0.79679   0.79987   0.82093   0.82746

 Mulliken charges:
               1
     1  O   -0.504585
     2  H    0.249285
     3  H    0.256542
     4  O   -0.506618
     5  H    0.246498
     6  H    0.258878
 Sum of Mulliken charges =  -0.00000

 Dipole moment (field-independent basis, Debye):
    X=             -1.7909    Y=             -1.2736    Z=              0.0000  Tot=              2.1976
 Quadrupole moment (field-independent basis, Debye-Ang):
   XX=             -9.5608   YY=              1.1701   ZZ=            -14.7138
   XY=             -3.3363   XZ=              0.0000   YZ=              0.0000

 Normal termination of Gaussian 16 at Sat Aug 27 10:35:23 2022.
