 Gaussian 16, Revision A.03,
 Gaussian 16:  ES64L-G16RevA.03 25-Dec-2016

 ------------------
 #p CCSD(T)/cc-pVTZ
 ------------------

 ------------
 H2O_H2O_3602
 ------------
 Symbolic Z-matrix:
 Charge =  0 Multiplicity = 1

                         Standard orientation:
 ---------------------------------------------------------------------
 Center     Atomic      Atomic             Coordinates (Angstroms)
 Number     Number       Type             X           Y           Z
 ---------------------------------------------------------------------
      1          8           0        0.007455   -2.717681    0.000000
      2          1           0       -0.792251   -3.288625    0.000000
      3          1           0        0.806891   -3.289002    0.000000
      4          8           0        0.007455    2.718655    0.000000
      5          1           0        0.725796    3.389096    0.000000
      6          1           0       -0.859715    3.180741    0.000000
 ---------------------------------------------------------------------

 SCF Done:  E(RHF) =  -152.106449495     A.U. after   10 cycles
 E2 =    -0.5259791027D+00 EUMP2 =    -0.15263242859751D+03
 CCSD(T)
 CCSD(T)= -0.15265966817D+03

 The electronic state is 1-A'.
 Alpha  occ. eigenvalues --  -20.55035 -20.55028  -1.32329  -1.32322  -0.69738
 Alpha  occ. eigenvalues --   -0.69730  -0.55733  -0.55723  -0.49434  -0.49426
 Alpha virt. eigenvalues --    0.14474   0.14656   0.20559   0.20624   0.54803
 Alpha virt. eigenvalues --    0.54873   0.57658   0.57689   0.68154   0.68924
 Alpha virt. eigenvalues --    0.79441   0.79453   0.80879   0.80918   0.82784

 Mulliken charges:
               1
     1  O   -0.503222
     2  H    0.251353
     3  H    0.251869
     4  O   -0.503210
     5  H    0.251260
     6  H    0.251950
 Sum of Mulliken charges =  -0.00000

 Dipole moment (field-independent basis, Debye):
    X=             -0.2553    Y=             -0.0171    Z=              0.0000  Tot=              0.2559
 Quadrupole moment (field-independent basis, Debye-Ang):
   XX=             -7.8443   YY=              9.6390   ZZ=            -14.7102
   XY=             -0.4661   XZ=              0.0000   YZ=              0.0000

 Normal termination of Gaussian 16 at Sat Aug 27 01:49:16 2022.
