 Gaussian 16, Revision A.03,
 Gaussian 16:  ES64L-G16RevA.03 25-Dec-2016

 ------------------
 #p CCSD(T)/cc-pVTZ
 ------------------

 ------------
 H2O_H2O_1906
 ------------
 Symbolic Z-matrix:
 Charge =  0 Multiplicity = 1

                         Standard orientation:
 ---------------------------------------------------------------------
 Center     Atomic      Atomic             Coordinates (Angstroms)
 Number     Number       Type             X           Y           Z
 ---------------------------------------------------------------------
      1          8           0        0.021861   -1.809390    0.000000
      2          1           0       -0.778302   -2.379692    0.000000
      3          1           0        0.820839   -2.381351    0.000000
      4          8           0        0.021861    1.818040    0.000000
      5          1           0        0.542870    2.651140    0.000000
      6          1           0       -0.935179    2.040707    0.000000
 ---------------------------------------------------------------------

 SCF Done:  E(RHF) =  -152.104674398     A.U. after   10 cycles
 E2 =    -0.5265384874D+00 EUMP2 =    -0.15263121288585D+03
 CCSD(T)
 CCSD(T)= -0.15265845709D+03

 The electronic state is 1-A'.
 Alpha  occ. eigenvalues --  -20.54503 -20.54343  -1.31783  -1.31615  -0.69206
 Alpha  occ. eigenvalues --   -0.69030  -0.55369  -0.54598  -0.48896  -0.48696
 Alpha virt. eigenvalues --    0.14111   0.16004   0.20545   0.21422   0.53404
 Alpha virt. eigenvalues --    0.56533   0.57981   0.58344   0.61943   0.75928
 Alpha virt. eigenvalues --    0.79129   0.79588   0.80712   0.80919   0.83299

 Mulliken charges:
               1
     1  O   -0.488947
     2  H    0.242402
     3  H    0.246817
     4  O   -0.488960
     5  H    0.241676
     6  H    0.247012
 Sum of Mulliken charges =  -0.00000

 Dipole moment (field-independent basis, Debye):
    X=             -0.7326    Y=             -0.1596    Z=              0.0000  Tot=              0.7498
 Quadrupole moment (field-independent basis, Debye-Ang):
   XX=             -8.1454   YY=              2.0509   ZZ=            -14.7096
   XY=             -0.7561   XZ=              0.0000   YZ=              0.0000

 Normal termination of Gaussian 16 at Sat Aug 27 07:28:24 2022.
