 Gaussian 16, Revision A.03,
 Gaussian 16:  ES64L-G16RevA.03 25-Dec-2016

 ------------------
 #p CCSD(T)/cc-pVTZ
 ------------------

 ------------
 H2O_H2O_3550
 ------------
 Symbolic Z-matrix:
 Charge =  0 Multiplicity = 1

                         Standard orientation:
 ---------------------------------------------------------------------
 Center     Atomic      Atomic             Coordinates (Angstroms)
 Number     Number       Type             X           Y           Z
 ---------------------------------------------------------------------
      1          8           0        0.000000   -0.000000    2.691618
      2          1           0        0.000000    0.799571    3.262750
      3          1           0       -0.000000   -0.799571    3.262750
      4          8           0        0.000000   -0.000000   -2.691618
      5          1           0       -0.000000   -0.799571   -3.262750
      6          1           0        0.000000    0.799571   -3.262750
 ---------------------------------------------------------------------

 SCF Done:  E(RHF) =  -152.106407628     A.U. after   10 cycles
 E2 =    -0.5259842741D+00 EUMP2 =    -0.15263239190175D+03
 CCSD(T)
 CCSD(T)= -0.15265963228D+03

 The electronic state is 1-AG.
 Alpha  occ. eigenvalues --  -20.55016 -20.55016  -1.32310  -1.32310  -0.69719
 Alpha  occ. eigenvalues --   -0.69719  -0.55714  -0.55706  -0.49415  -0.49414
 Alpha virt. eigenvalues --    0.14478   0.14676   0.20567   0.20635   0.54815
 Alpha virt. eigenvalues --    0.54892   0.57669   0.57701   0.68116   0.69003
 Alpha virt. eigenvalues --    0.79457   0.79467   0.80892   0.80936   0.82786

 Mulliken charges:
               1
     1  O   -0.502975
     2  H    0.251487
     3  H    0.251487
     4  O   -0.502975
     5  H    0.251487
     6  H    0.251487
 Sum of Mulliken charges =   0.00000

 Dipole moment (field-independent basis, Debye):
    X=             -0.0000    Y=              0.0000    Z=              0.0000  Tot=              0.0000
 Quadrupole moment (field-independent basis, Debye-Ang):
   XX=            -14.7101   YY=             -7.8100   ZZ=              9.4838
   XY=              0.0000   XZ=              0.0000   YZ=             -0.0000

 4\MP4DQ=-152.6415148\MP4SDQ=-152.6445788\CCSD=-152.643989\CCSD(T)=-152
 Normal termination of Gaussian 16 at Sat Aug 27 01:24:45 2022.
