 Gaussian 16, Revision A.03,
 Gaussian 16:  ES64L-G16RevA.03 25-Dec-2016

 ------------------
 #p CCSD(T)/cc-pVTZ
 ------------------

 ------------
 H2O_H2O_4486
 ------------
 Symbolic Z-matrix:
 Charge =  0 Multiplicity = 1

                         Standard orientation:
 ---------------------------------------------------------------------
 Center     Atomic      Atomic             Coordinates (Angstroms)
 Number     Number       Type             X           Y           Z
 ---------------------------------------------------------------------
      1          8           0        0.037672   -3.168213    0.000000
      2          1           0       -0.762481   -3.738531    0.000000
      3          1           0        0.836661   -3.740159    0.000000
      4          8           0        0.037672    3.196483    0.000000
      5          1           0        0.263222    4.152848    0.000000
      6          1           0       -0.940151    3.099685    0.000000
 ---------------------------------------------------------------------

 SCF Done:  E(RHF) =  -152.107043076     A.U. after   10 cycles
 E2 =    -0.5259109796D+00 EUMP2 =    -0.15263295405535D+03
 CCSD(T)
 CCSD(T)= -0.15266018196D+03

 The electronic state is 1-A'.
 Alpha  occ. eigenvalues --  -20.55344 -20.55183  -1.32641  -1.32479  -0.70048
 Alpha  occ. eigenvalues --   -0.69882  -0.56071  -0.55910  -0.49750  -0.49588
 Alpha virt. eigenvalues --    0.14299   0.14467   0.20358   0.20528   0.54518
 Alpha virt. eigenvalues --    0.54692   0.57405   0.57566   0.68139   0.68317
 Alpha virt. eigenvalues --    0.79130   0.79289   0.80568   0.80743   0.82495

 Mulliken charges:
               1
     1  O   -0.506724
     2  H    0.252527
     3  H    0.254196
     4  O   -0.506594
     5  H    0.252005
     6  H    0.254589
 Sum of Mulliken charges =   0.00000

 Dipole moment (field-independent basis, Debye):
    X=             -1.2946    Y=             -0.4934    Z=              0.0000  Tot=              1.3855
 Quadrupole moment (field-independent basis, Debye-Ang):
   XX=             -8.6959   YY=             11.1299   ZZ=            -14.7112
   XY=             -3.2740   XZ=              0.0000   YZ=              0.0000

 Normal termination of Gaussian 16 at Sat Aug 27 07:35:22 2022.
