 Gaussian 16, Revision A.03,
 Gaussian 16:  ES64L-G16RevA.03 25-Dec-2016

 ------------------
 #p CCSD(T)/cc-pVTZ
 ------------------

 ------------
 H2O_H2O_3639
 ------------
 Symbolic Z-matrix:
 Charge =  0 Multiplicity = 1

                         Standard orientation:
 ---------------------------------------------------------------------
 Center     Atomic      Atomic             Coordinates (Angstroms)
 Number     Number       Type             X           Y           Z
 ---------------------------------------------------------------------
      1          8           0        0.045343   -2.707305    0.000000
      2          1           0       -0.755043   -3.277294    0.000000
      3          1           0        0.844097   -3.279579    0.000000
      4          8           0        0.045343    2.751865    0.000000
      5          1           0        0.080385    3.733841    0.000000
      6          1           0       -0.894924    2.466549    0.000000
 ---------------------------------------------------------------------

 SCF Done:  E(RHF) =  -152.106993438     A.U. after   10 cycles
 E2 =    -0.5259355783D+00 EUMP2 =    -0.15263292901586D+03
 CCSD(T)
 CCSD(T)= -0.15266015661D+03

 The electronic state is 1-A'.
 Alpha  occ. eigenvalues --  -20.55355 -20.55005  -1.32652  -1.32299  -0.70060
 Alpha  occ. eigenvalues --   -0.69698  -0.56080  -0.55727  -0.49760  -0.49409
 Alpha virt. eigenvalues --    0.14188   0.14717   0.20318   0.20739   0.54489
 Alpha virt. eigenvalues --    0.54885   0.57386   0.57737   0.67843   0.68828
 Alpha virt. eigenvalues --    0.79119   0.79464   0.80550   0.80909   0.82559

 Mulliken charges:
               1
     1  O   -0.506460
     2  H    0.251680
     3  H    0.254789
     4  O   -0.506117
     5  H    0.250562
     6  H    0.255545
 Sum of Mulliken charges =  -0.00000

 Dipole moment (field-independent basis, Debye):
    X=             -1.5539    Y=             -0.7831    Z=              0.0000  Tot=              1.7401
 Quadrupole moment (field-independent basis, Debye-Ang):
   XX=             -9.0978   YY=              6.7693   ZZ=            -14.7113
   XY=             -3.4748   XZ=              0.0000   YZ=              0.0000

 Normal termination of Gaussian 16 at Sat Aug 27 02:07:55 2022.
