 Gaussian 16, Revision A.03,
 Gaussian 16:  ES64L-G16RevA.03 25-Dec-2016

 ------------------
 #p CCSD(T)/cc-pVTZ
 ------------------

 -----------
 H2O_H2O_677
 -----------
 Symbolic Z-matrix:
 Charge =  0 Multiplicity = 1

                         Standard orientation:
 ---------------------------------------------------------------------
 Center     Atomic      Atomic             Coordinates (Angstroms)
 Number     Number       Type             X           Y           Z
 ---------------------------------------------------------------------
      1          8           0        0.007455   -1.162062    0.000000
      2          1           0       -0.792431   -1.732753    0.000000
      3          1           0        0.806711   -1.733635    0.000000
      4          8           0        0.007455    1.163031    0.000000
      5          1           0        0.726008    1.833246    0.000000
      6          1           0       -0.859569    1.625391    0.000000
 ---------------------------------------------------------------------

 SCF Done:  E(RHF) =  -152.084164554     A.U. after   11 cycles
 E2 =    -0.5305241880D+00 EUMP2 =    -0.15261468874224D+03
 CCSD(T)
 CCSD(T)= -0.15264192310D+03

 The electronic state is 1-A'.
 Alpha  occ. eigenvalues --  -20.52696 -20.52666  -1.31091  -1.29663  -0.68242
 Alpha  occ. eigenvalues --   -0.67320  -0.57995  -0.48408  -0.48344  -0.46317
 Alpha virt. eigenvalues --    0.14553   0.17806   0.20571   0.22510   0.50290
 Alpha virt. eigenvalues --    0.58975   0.59008   0.64275   0.72404   0.76809
 Alpha virt. eigenvalues --    0.77618   0.80628   0.84241   0.86615   0.86795

 Mulliken charges:
               1
     1  O   -0.453162
     2  H    0.224559
     3  H    0.228322
     4  O   -0.451383
     5  H    0.222329
     6  H    0.229335
 Sum of Mulliken charges =  -0.00000

 Dipole moment (field-independent basis, Debye):
    X=             -0.2287    Y=             -0.0191    Z=              0.0000  Tot=              0.2295
 Quadrupole moment (field-independent basis, Debye-Ang):
   XX=             -8.0615   YY=             -3.7840   ZZ=            -14.7346
   XY=             -0.0900   XZ=              0.0000   YZ=              0.0000

 9499\MP4DQ=-152.6229968\MP4SDQ=-152.6263061\CCSD=-152.6256282\CCSD(T)=
 Normal termination of Gaussian 16 at Fri Aug 26 18:57:26 2022.
