 Gaussian 16, Revision A.03,
 Gaussian 16:  ES64L-G16RevA.03 25-Dec-2016

 ------------------
 #p CCSD(T)/cc-pVTZ
 ------------------

 ------------
 H2O_H2O_1287
 ------------
 Symbolic Z-matrix:
 Charge =  0 Multiplicity = 1

                         Standard orientation:
 ---------------------------------------------------------------------
 Center     Atomic      Atomic             Coordinates (Angstroms)
 Number     Number       Type             X           Y           Z
 ---------------------------------------------------------------------
      1          8           0        0.040424   -1.463621    0.000000
      2          1           0       -0.760486   -2.032874    0.000000
      3          1           0        0.838652   -2.036630    0.000000
      4          8           0        0.040424    1.496888    0.000000
      5          1           0        0.204231    2.465739    0.000000
      6          1           0       -0.929186    1.337634    0.000000
 ---------------------------------------------------------------------

 SCF Done:  E(RHF) =  -152.103308525     A.U. after   10 cycles
 E2 =    -0.5274755262D+00 EUMP2 =    -0.15263078405141D+03
 CCSD(T)
 CCSD(T)= -0.15265801801D+03

 The electronic state is 1-A'.
 Alpha  occ. eigenvalues --  -20.54590 -20.53700  -1.31923  -1.30948  -0.69348
 Alpha  occ. eigenvalues --   -0.68374  -0.55834  -0.53500  -0.49062  -0.47999
 Alpha virt. eigenvalues --    0.13980   0.16813   0.20284   0.22548   0.53412
 Alpha virt. eigenvalues --    0.57647   0.57935   0.58712   0.66937   0.76215
 Alpha virt. eigenvalues --    0.77171   0.77412   0.80324   0.82606   0.85540

 Mulliken charges:
               1
     1  O   -0.479257
     2  H    0.234403
     3  H    0.246947
     4  O   -0.476392
     5  H    0.228346
     6  H    0.245953
 Sum of Mulliken charges =  -0.00000

 Dipole moment (field-independent basis, Debye):
    X=             -1.3142    Y=             -0.6349    Z=              0.0000  Tot=              1.4595
 Quadrupole moment (field-independent basis, Debye-Ang):
   XX=             -8.8946   YY=             -1.2858   ZZ=            -14.7154
   XY=             -1.2653   XZ=              0.0000   YZ=              0.0000

 Normal termination of Gaussian 16 at Sat Aug 27 03:38:33 2022.
