 Gaussian 16, Revision A.03,
 Gaussian 16:  ES64L-G16RevA.03 25-Dec-2016

 ------------------
 #p CCSD(T)/cc-pVTZ
 ------------------

 ------------
 H2O_H2O_4444
 ------------
 Symbolic Z-matrix:
 Charge =  0 Multiplicity = 1

                         Standard orientation:
 ---------------------------------------------------------------------
 Center     Atomic      Atomic             Coordinates (Angstroms)
 Number     Number       Type             X           Y           Z
 ---------------------------------------------------------------------
      1          8           0        0.054139   -3.114967    0.000000
      2          1           0       -0.746274   -3.684918    0.000000
      3          1           0        0.852866   -3.687279    0.000000
      4          8           0        0.054139    3.192317    0.000000
      5          1           0       -0.228281    4.133458    0.000000
      6          1           0       -0.744542    2.619941    0.000000
 ---------------------------------------------------------------------

 SCF Done:  E(RHF) =  -152.107425558     A.U. after   10 cycles
 E2 =    -0.5258788786D+00 EUMP2 =    -0.15263330443708D+03
 CCSD(T)
 CCSD(T)= -0.15266052408D+03

 The electronic state is 1-A'.
 Alpha  occ. eigenvalues --  -20.55600 -20.55150  -1.32899  -1.32448  -0.70305
 Alpha  occ. eigenvalues --   -0.69848  -0.56347  -0.55894  -0.50011  -0.49561
 Alpha virt. eigenvalues --    0.14066   0.14535   0.20151   0.20634   0.54255
 Alpha virt. eigenvalues --    0.54727   0.57176   0.57626   0.67819   0.68324
 Alpha virt. eigenvalues --    0.78869   0.79312   0.80299   0.80774   0.82235

 Mulliken charges:
               1
     1  O   -0.508999
     2  H    0.253311
     3  H    0.255688
     4  O   -0.508721
     5  H    0.252119
     6  H    0.256602
 Sum of Mulliken charges =  -0.00000

 Dipole moment (field-independent basis, Debye):
    X=             -1.8608    Y=             -1.3517    Z=              0.0000  Tot=              2.2999
 Quadrupole moment (field-independent basis, Debye-Ang):
   XX=             -9.6487   YY=              6.3916   ZZ=            -14.7121
   XY=             -5.4901   XZ=              0.0000   YZ=              0.0000

 Normal termination of Gaussian 16 at Sat Aug 27 07:21:13 2022.
