 Gaussian 16, Revision A.03,
 Gaussian 16:  ES64L-G16RevA.03 25-Dec-2016

 ------------------
 #p CCSD(T)/cc-pVTZ
 ------------------

 ------------
 H2O_H2O_1540
 ------------
 Symbolic Z-matrix:
 Charge =  0 Multiplicity = 1

                         Standard orientation:
 ---------------------------------------------------------------------
 Center     Atomic      Atomic             Coordinates (Angstroms)
 Number     Number       Type             X           Y           Z
 ---------------------------------------------------------------------
      1          8           0        0.047552   -1.587207    0.000000
      2          1           0       -0.753464   -2.156310    0.000000
      3          1           0        0.845673   -2.160365    0.000000
      4          8           0        0.047552    1.637732    0.000000
      5          1           0        0.019381    2.619930    0.000000
      6          1           0       -0.872423    1.292547    0.000000
 ---------------------------------------------------------------------

 SCF Done:  E(RHF) =  -152.105722853     A.U. after   10 cycles
 E2 =    -0.5269504553D+00 EUMP2 =    -0.15263267330823D+03
 CCSD(T)
 CCSD(T)= -0.15265986834D+03

 The electronic state is 1-A'.
 Alpha  occ. eigenvalues --  -20.55134 -20.53899  -1.32421  -1.31157  -0.69844
 Alpha  occ. eigenvalues --   -0.68547  -0.55906  -0.54335  -0.49535  -0.48261
 Alpha virt. eigenvalues --    0.13695   0.16609   0.20133   0.22681   0.54038
 Alpha virt. eigenvalues --    0.55442   0.57557   0.58506   0.65281   0.76413
 Alpha virt. eigenvalues --    0.77729   0.77910   0.78942   0.81747   0.85147

 Mulliken charges:
               1
     1  O   -0.487071
     2  H    0.239269
     3  H    0.251292
     4  O   -0.490961
     5  H    0.234743
     6  H    0.252729
 Sum of Mulliken charges =  -0.00000

 Dipole moment (field-independent basis, Debye):
    X=             -1.5676    Y=             -0.9564    Z=              0.0000  Tot=              1.8363
 Quadrupole moment (field-independent basis, Debye-Ang):
   XX=             -9.2552   YY=             -0.8391   ZZ=            -14.7156
   XY=             -1.9499   XZ=              0.0000   YZ=              0.0000

 Normal termination of Gaussian 16 at Sat Aug 27 05:21:48 2022.
