 Gaussian 16, Revision A.03,
 Gaussian 16:  ES64L-G16RevA.03 25-Dec-2016

 ------------------
 #p CCSD(T)/cc-pVTZ
 ------------------

 ------------
 H2O_H2O_3095
 ------------
 Symbolic Z-matrix:
 Charge =  0 Multiplicity = 1

                         Standard orientation:
 ---------------------------------------------------------------------
 Center     Atomic      Atomic             Coordinates (Angstroms)
 Number     Number       Type             X           Y           Z
 ---------------------------------------------------------------------
      1          8           0        0.055250   -2.393133    0.000000
      2          1           0       -0.745434   -2.962704    0.000000
      3          1           0        0.853705   -2.965823    0.000000
      4          8           0        0.055250    2.477580    0.000000
      5          1           0       -0.287682    3.398397    0.000000
      6          1           0       -0.704582    1.854554    0.000000
 ---------------------------------------------------------------------

 SCF Done:  E(RHF) =  -152.107585582     A.U. after   10 cycles
 E2 =    -0.5259440149D+00 EUMP2 =    -0.15263352959716D+03
 CCSD(T)
 CCSD(T)= -0.15266073766D+03

 The electronic state is 1-A'.
 Alpha  occ. eigenvalues --  -20.55665 -20.54794  -1.32960  -1.32090  -0.70367
 Alpha  occ. eigenvalues --   -0.69478  -0.56411  -0.55536  -0.50073  -0.49206
 Alpha virt. eigenvalues --    0.13580   0.15184   0.20058   0.21220   0.54107
 Alpha virt. eigenvalues --    0.54910   0.57139   0.57890   0.66845   0.70172
 Alpha virt. eigenvalues --    0.78814   0.79655   0.79976   0.80649   0.82790

 Mulliken charges:
               1
     1  O   -0.509103
     2  H    0.252192
     3  H    0.257247
     4  O   -0.508964
     5  H    0.249562
     6  H    0.259066
 Sum of Mulliken charges =  -0.00000

 Dipole moment (field-independent basis, Debye):
    X=             -1.8875    Y=             -1.5014    Z=              0.0000  Tot=              2.4118
 Quadrupole moment (field-independent basis, Debye-Ang):
   XX=             -9.7226   YY=              2.0443   ZZ=            -14.7132
   XY=             -4.3760   XZ=              0.0000   YZ=              0.0000

 Normal termination of Gaussian 16 at Fri Aug 26 19:23:00 2022.
