 Gaussian 16, Revision A.03,
 Gaussian 16:  ES64L-G16RevA.03 25-Dec-2016

 ------------------
 #p CCSD(T)/cc-pVTZ
 ------------------

 ------------
 H2O_H2O_3147
 ------------
 Symbolic Z-matrix:
 Charge =  0 Multiplicity = 1

                         Standard orientation:
 ---------------------------------------------------------------------
 Center     Atomic      Atomic             Coordinates (Angstroms)
 Number     Number       Type             X           Y           Z
 ---------------------------------------------------------------------
      1          8           0        0.056723   -2.411772    0.000000
      2          1           0       -0.743978   -2.981319    0.000000
      3          1           0        0.855161   -2.984486    0.000000
      4          8           0        0.056723    2.510864    0.000000
      5          1           0       -0.403440    3.379055    0.000000
      6          1           0       -0.615309    1.794011    0.000000
 ---------------------------------------------------------------------

 SCF Done:  E(RHF) =  -152.107857668     A.U. after   10 cycles
 E2 =    -0.5259232389D+00 EUMP2 =    -0.15263378090701D+03
 CCSD(T)
 CCSD(T)= -0.15266098242D+03

 The electronic state is 1-A'.
 Alpha  occ. eigenvalues --  -20.55795 -20.54792  -1.33090  -1.32091  -0.70496
 Alpha  occ. eigenvalues --   -0.69478  -0.56554  -0.55545  -0.50205  -0.49209
 Alpha virt. eigenvalues --    0.13460   0.15197   0.19980   0.21281   0.54008
 Alpha virt. eigenvalues --    0.54889   0.57031   0.57895   0.66809   0.69946
 Alpha virt. eigenvalues --    0.78685   0.79649   0.79817   0.80406   0.82797

 Mulliken charges:
               1
     1  O   -0.510464
     2  H    0.252990
     3  H    0.257891
     4  O   -0.510379
     5  H    0.250006
     6  H    0.259956
 Sum of Mulliken charges =   0.00000

 Dipole moment (field-independent basis, Debye):
    X=             -1.9388    Y=             -1.7617    Z=              0.0000  Tot=              2.6196
 Quadrupole moment (field-independent basis, Debye-Ang):
   XX=             -9.8263   YY=              1.0022   ZZ=            -14.7138
   XY=             -4.8028   XZ=              0.0000   YZ=              0.0000

 Normal termination of Gaussian 16 at Fri Aug 26 19:48:51 2022.
