 Gaussian 16, Revision A.03,
 Gaussian 16:  ES64L-G16RevA.03 25-Dec-2016

 ------------------
 #p CCSD(T)/cc-pVTZ
 ------------------

 ------------
 H2O_H2O_2152
 ------------
 Symbolic Z-matrix:
 Charge =  0 Multiplicity = 1

                         Standard orientation:
 ---------------------------------------------------------------------
 Center     Atomic      Atomic             Coordinates (Angstroms)
 Number     Number       Type             X           Y           Z
 ---------------------------------------------------------------------
      1          8           0        0.007455   -1.946519    0.000000
      2          1           0       -0.792304   -2.517387    0.000000
      3          1           0        0.806838   -2.517914    0.000000
      4          8           0        0.007455    1.947491    0.000000
      5          1           0        0.725859    2.617866    0.000000
      6          1           0       -0.859672    2.409658    0.000000
 ---------------------------------------------------------------------

 SCF Done:  E(RHF) =  -152.104944370     A.U. after   10 cycles
 E2 =    -0.5263528366D+00 EUMP2 =    -0.15263129720698D+03
 CCSD(T)
 CCSD(T)= -0.15265854664D+03

 The electronic state is 1-A'.
 Alpha  occ. eigenvalues --  -20.54522 -20.54507  -1.31809  -1.31784  -0.69228
 Alpha  occ. eigenvalues --   -0.69202  -0.55333  -0.54870  -0.48924  -0.48860
 Alpha virt. eigenvalues --    0.14205   0.15710   0.20628   0.21171   0.54204
 Alpha virt. eigenvalues --    0.56432   0.57915   0.58208   0.61790   0.75035
 Alpha virt. eigenvalues --    0.79470   0.80453   0.80607   0.81083   0.82255

 Mulliken charges:
               1
     1  O   -0.492600
     2  H    0.245679
     3  H    0.246939
     4  O   -0.492576
     5  H    0.245529
     6  H    0.247030
 Sum of Mulliken charges =  -0.00000

 Dipole moment (field-independent basis, Debye):
    X=             -0.2514    Y=             -0.0177    Z=              0.0000  Tot=              0.2520
 Quadrupole moment (field-independent basis, Debye-Ang):
   XX=             -7.8742   YY=              3.3852   ZZ=            -14.7093
   XY=             -0.2730   XZ=              0.0000   YZ=              0.0000

 Normal termination of Gaussian 16 at Sat Aug 27 08:52:51 2022.
