 Gaussian 16, Revision A.03,
 Gaussian 16:  ES64L-G16RevA.03 25-Dec-2016

 ------------------
 #p CCSD(T)/cc-pVTZ
 ------------------

 ------------
 H2O_H2O_3760
 ------------
 Symbolic Z-matrix:
 Charge =  0 Multiplicity = 1

                         Standard orientation:
 ---------------------------------------------------------------------
 Center     Atomic      Atomic             Coordinates (Angstroms)
 Number     Number       Type             X           Y           Z
 ---------------------------------------------------------------------
      1          8           0        0.034781   -2.785206    0.000000
      2          1           0       -0.765401   -3.355482    0.000000
      3          1           0        0.833740   -3.357193    0.000000
      4          8           0        0.034781    2.808736    0.000000
      5          1           0        0.322446    3.748286    0.000000
      6          1           0       -0.947281    2.776148    0.000000
 ---------------------------------------------------------------------

 SCF Done:  E(RHF) =  -152.106783875     A.U. after   10 cycles
 E2 =    -0.5259475170D+00 EUMP2 =    -0.15263273139236D+03
 CCSD(T)
 CCSD(T)= -0.15265996398D+03

 The electronic state is 1-A'.
 Alpha  occ. eigenvalues --  -20.55223 -20.55049  -1.32519  -1.32343  -0.69927
 Alpha  occ. eigenvalues --   -0.69746  -0.55937  -0.55762  -0.49626  -0.49451
 Alpha virt. eigenvalues --    0.14347   0.14626   0.20430   0.20642   0.54633
 Alpha virt. eigenvalues --    0.54838   0.57503   0.57683   0.68098   0.68689
 Alpha virt. eigenvalues --    0.79253   0.79425   0.80694   0.80887   0.82639

 Mulliken charges:
               1
     1  O   -0.505210
     2  H    0.251491
     3  H    0.253721
     4  O   -0.505006
     5  H    0.250857
     6  H    0.254148
 Sum of Mulliken charges =  -0.00000

 Dipole moment (field-independent basis, Debye):
    X=             -1.1924    Y=             -0.4127    Z=              0.0000  Tot=              1.2618
 Quadrupole moment (field-independent basis, Debye-Ang):
   XX=             -8.5666   YY=              8.7597   ZZ=            -14.7108
   XY=             -2.5146   XZ=              0.0000   YZ=              0.0000

 Normal termination of Gaussian 16 at Sat Aug 27 03:05:41 2022.
