 Gaussian 16, Revision A.03,
 Gaussian 16:  ES64L-G16RevA.03 25-Dec-2016

 ------------------
 #p CCSD(T)/cc-pVTZ
 ------------------

 -----------
 H2O_H2O_913
 -----------
 Symbolic Z-matrix:
 Charge =  0 Multiplicity = 1

                         Standard orientation:
 ---------------------------------------------------------------------
 Center     Atomic      Atomic             Coordinates (Angstroms)
 Number     Number       Type             X           Y           Z
 ---------------------------------------------------------------------
      1          8           0        0.042996   -1.261250    0.000000
      2          1           0       -0.758220   -1.830072    0.000000
      3          1           0        0.840915   -1.834688    0.000000
      4          8           0        0.042996    1.299914    0.000000
      5          1           0        0.143612    2.277351    0.000000
      6          1           0       -0.914242    1.078099    0.000000
 ---------------------------------------------------------------------

 SCF Done:  E(RHF) =  -152.098277366     A.U. after   11 cycles
 E2 =    -0.5288962527D+00 EUMP2 =    -0.15262717361922D+03
 CCSD(T)
 CCSD(T)= -0.15265439154D+03

 The electronic state is 1-A'.
 Alpha  occ. eigenvalues --  -20.54368 -20.53107  -1.31965  -1.30324  -0.69352
 Alpha  occ. eigenvalues --   -0.67955  -0.56410  -0.51980  -0.49150  -0.47271
 Alpha virt. eigenvalues --    0.14008   0.17326   0.20207   0.23175   0.53311
 Alpha virt. eigenvalues --    0.57900   0.58180   0.60092   0.70415   0.75853
 Alpha virt. eigenvalues --    0.77284   0.78313   0.83281   0.84164   0.85552

 Mulliken charges:
               1
     1  O   -0.471535
     2  H    0.228653
     3  H    0.245667
     4  O   -0.462267
     5  H    0.215342
     6  H    0.244140
 Sum of Mulliken charges =  -0.00000

 Dipole moment (field-independent basis, Debye):
    X=             -1.3523    Y=             -0.7548    Z=              0.0000  Tot=              1.5487
 Quadrupole moment (field-independent basis, Debye-Ang):
   XX=             -9.0643   YY=             -3.0285   ZZ=            -14.7229
   XY=             -1.1439   XZ=              0.0000   YZ=              0.0000

 Normal termination of Gaussian 16 at Fri Aug 26 21:08:46 2022.
