 Gaussian 16, Revision A.03,
 Gaussian 16:  ES64L-G16RevA.03 25-Dec-2016

 ------------------
 #p CCSD(T)/cc-pVTZ
 ------------------

 ------------
 H2O_H2O_3173
 ------------
 Symbolic Z-matrix:
 Charge =  0 Multiplicity = 1

                         Standard orientation:
 ---------------------------------------------------------------------
 Center     Atomic      Atomic             Coordinates (Angstroms)
 Number     Number       Type             X           Y           Z
 ---------------------------------------------------------------------
      1          8           0        0.057097   -2.421029    0.000000
      2          1           0       -0.743605   -2.990574    0.000000
      3          1           0        0.855534   -2.993745    0.000000
      4          8           0        0.057097    2.527558    0.000000
      5          1           0       -0.458861    3.363796    0.000000
      6          1           0       -0.566614    1.768287    0.000000
 ---------------------------------------------------------------------

 SCF Done:  E(RHF) =  -152.107987618     A.U. after   10 cycles
 E2 =    -0.5259130769D+00 EUMP2 =    -0.15263390069492D+03
 CCSD(T)
 CCSD(T)= -0.15266109913D+03

 The electronic state is 1-A'.
 Alpha  occ. eigenvalues --  -20.55858 -20.54791  -1.33153  -1.32092  -0.70558
 Alpha  occ. eigenvalues --   -0.69479  -0.56622  -0.55549  -0.50268  -0.49211
 Alpha virt. eigenvalues --    0.13403   0.15203   0.19943   0.21309   0.53958
 Alpha virt. eigenvalues --    0.54884   0.56979   0.57897   0.66787   0.69838
 Alpha virt. eigenvalues --    0.78623   0.79646   0.79746   0.80294   0.82805

 Mulliken charges:
               1
     1  O   -0.511112
     2  H    0.253398
     3  H    0.258170
     4  O   -0.511035
     5  H    0.250241
     6  H    0.260338
 Sum of Mulliken charges =  -0.00000

 Dipole moment (field-independent basis, Debye):
    X=             -1.9520    Y=             -1.8937    Z=              0.0000  Tot=              2.7196
 Quadrupole moment (field-independent basis, Debye-Ang):
   XX=             -9.8531   YY=              0.4353   ZZ=            -14.7142
   XY=             -4.9923   XZ=              0.0000   YZ=              0.0000

 Normal termination of Gaussian 16 at Fri Aug 26 20:06:08 2022.
