 Gaussian 16, Revision A.03,
 Gaussian 16:  ES64L-G16RevA.03 25-Dec-2016

 ------------------
 #p CCSD(T)/cc-pVTZ
 ------------------

 ----------
 H2O_H2O_45
 ----------
 Symbolic Z-matrix:
 Charge =  0 Multiplicity = 1

                         Standard orientation:
 ---------------------------------------------------------------------
 Center     Atomic      Atomic             Coordinates (Angstroms)
 Number     Number       Type             X           Y           Z
 ---------------------------------------------------------------------
      1          8           0        0.055413   -0.771256    0.000000
      2          1           0       -0.747479   -1.337709    0.000000
      3          1           0        0.851636   -1.347047    0.000000
      4          8           0        0.055413    0.855273    0.000000
      5          1           0       -0.283935    1.777417    0.000000
      6          1           0       -0.706835    0.235207    0.000000
 ---------------------------------------------------------------------

 SCF Done:  E(RHF) =  -151.888500101     A.U. after   12 cycles
 E2 =    -0.5533567920D+00 EUMP2 =    -0.15244185689308D+03
 CCSD(T)
 CCSD(T)= -0.15246605209D+03

 The electronic state is 1-A'.
 Alpha  occ. eigenvalues --  -20.55545 -20.48810  -1.42711  -1.25666  -0.79228
 Alpha  occ. eigenvalues --   -0.73127  -0.56066  -0.52238  -0.42720  -0.39567
 Alpha virt. eigenvalues --    0.13119   0.18329   0.20408   0.25409   0.49920
 Alpha virt. eigenvalues --    0.54113   0.61674   0.68929   0.73242   0.76367
 Alpha virt. eigenvalues --    0.77361   0.80384   0.84278   0.84771   0.89097

 Mulliken charges:
               1
     1  O   -0.270092
     2  H    0.141945
     3  H    0.197138
     4  O   -0.431172
     5  H    0.103159
     6  H    0.259021
 Sum of Mulliken charges =  -0.00000

 Dipole moment (field-independent basis, Debye):
    X=             -1.3986    Y=             -2.1017    Z=              0.0000  Tot=              2.5246
 Quadrupole moment (field-independent basis, Debye-Ang):
   XX=             -9.8341   YY=             -9.3480   ZZ=            -14.5369
   XY=             -1.2585   XZ=              0.0000   YZ=              0.0000

 Normal termination of Gaussian 16 at Fri Aug 26 12:13:28 2022.
