 Gaussian 16, Revision A.03,
 Gaussian 16:  ES64L-G16RevA.03 25-Dec-2016

 ------------------
 #p CCSD(T)/cc-pVTZ
 ------------------

 ------------
 H2O_H2O_2288
 ------------
 Symbolic Z-matrix:
 Charge =  0 Multiplicity = 1

                         Standard orientation:
 ---------------------------------------------------------------------
 Center     Atomic      Atomic             Coordinates (Angstroms)
 Number     Number       Type             X           Y           Z
 ---------------------------------------------------------------------
      1          8           0        0.042976   -1.992478    0.000000
      2          1           0       -0.757643   -2.562140    0.000000
      3          1           0        0.841496   -2.565079    0.000000
      4          8           0        0.042976    2.031232    0.000000
      5          1           0        0.142566    3.008774    0.000000
      6          1           0       -0.914029    1.808414    0.000000
 ---------------------------------------------------------------------

 SCF Done:  E(RHF) =  -152.106291363     A.U. after   10 cycles
 E2 =    -0.5262241165D+00 EUMP2 =    -0.15263251547977D+03
 CCSD(T)
 CCSD(T)= -0.15265973559D+03

 The electronic state is 1-A'.
 Alpha  occ. eigenvalues --  -20.55101 -20.54506  -1.32384  -1.31785  -0.69798
 Alpha  occ. eigenvalues --   -0.69177  -0.55779  -0.55149  -0.49489  -0.48895
 Alpha virt. eigenvalues --    0.13733   0.15737   0.20306   0.21492   0.53699
 Alpha virt. eigenvalues --    0.55165   0.57610   0.58192   0.64452   0.74800
 Alpha virt. eigenvalues --    0.79209   0.80012   0.80139   0.81396   0.83311

 Mulliken charges:
               1
     1  O   -0.499632
     2  H    0.246810
     3  H    0.253488
     4  O   -0.500070
     5  H    0.244885
     6  H    0.254519
 Sum of Mulliken charges =  -0.00000

 Dipole moment (field-independent basis, Debye):
    X=             -1.4524    Y=             -0.7033    Z=              0.0000  Tot=              1.6138
 Quadrupole moment (field-independent basis, Debye-Ang):
   XX=             -8.9771   YY=              2.3646   ZZ=            -14.7117
   XY=             -2.1746   XZ=              0.0000   YZ=              0.0000

 Normal termination of Gaussian 16 at Sat Aug 27 09:40:21 2022.
