 Gaussian 16, Revision A.03,
 Gaussian 16:  ES64L-G16RevA.03 25-Dec-2016

 ------------------
 #p CCSD(T)/cc-pVTZ
 ------------------

 ------------
 H2O_H2O_1873
 ------------
 Symbolic Z-matrix:
 Charge =  0 Multiplicity = 1

                         Standard orientation:
 ---------------------------------------------------------------------
 Center     Atomic      Atomic             Coordinates (Angstroms)
 Number     Number       Type             X           Y           Z
 ---------------------------------------------------------------------
      1          8           0        0.057138   -1.729687    0.000000
      2          1           0       -0.744002   -2.298617    0.000000
      3          1           0        0.855134   -2.303017    0.000000
      4          8           0        0.057138    1.836128    0.000000
      5          1           0       -0.458177    2.672764    0.000000
      6          1           0       -0.567157    1.077338    0.000000
 ---------------------------------------------------------------------

 SCF Done:  E(RHF) =  -152.109281174     A.U. after   10 cycles
 E2 =    -0.5264812968D+00 EUMP2 =    -0.15263576247054D+03
 CCSD(T)
 CCSD(T)= -0.15266288835D+03

 The electronic state is 1-A'.
 Alpha  occ. eigenvalues --  -20.56284 -20.53919  -1.33549  -1.31224  -0.70953
 Alpha  occ. eigenvalues --   -0.68598  -0.57032  -0.54704  -0.50673  -0.48358
 Alpha virt. eigenvalues --    0.12953   0.16580   0.19701   0.24214   0.53162
 Alpha virt. eigenvalues --    0.55662   0.56572   0.58199   0.66831   0.74593
 Alpha virt. eigenvalues --    0.77507   0.78093   0.79447   0.80789   0.84263

 Mulliken charges:
               1
     1  O   -0.499994
     2  H    0.248391
     3  H    0.258671
     4  O   -0.514876
     5  H    0.243493
     6  H    0.264314
 Sum of Mulliken charges =  -0.00000

 Dipole moment (field-independent basis, Debye):
    X=             -1.9122    Y=             -2.0089    Z=              0.0000  Tot=              2.7735
 Quadrupole moment (field-independent basis, Debye-Ang):
   XX=             -9.8518   YY=             -2.5467   ZZ=            -14.7207
   XY=             -3.6689   XZ=              0.0000   YZ=              0.0000

 Normal termination of Gaussian 16 at Sat Aug 27 07:17:33 2022.
