 Gaussian 16, Revision A.03,
 Gaussian 16:  ES64L-G16RevA.03 25-Dec-2016

 ------------------
 #p CCSD(T)/cc-pVTZ
 ------------------

 ------------
 H2O_H2O_4414
 ------------
 Symbolic Z-matrix:
 Charge =  0 Multiplicity = 1

                         Standard orientation:
 ---------------------------------------------------------------------
 Center     Atomic      Atomic             Coordinates (Angstroms)
 Number     Number       Type             X           Y           Z
 ---------------------------------------------------------------------
      1          8           0        0.045339   -3.119469    0.000000
      2          1           0       -0.754941   -3.689608    0.000000
      3          1           0        0.844200   -3.691594    0.000000
      4          8           0        0.045339    3.164047    0.000000
      5          1           0        0.080197    4.146030    0.000000
      6          1           0       -0.894875    2.878555    0.000000
 ---------------------------------------------------------------------

 SCF Done:  E(RHF) =  -152.107157472     A.U. after   10 cycles
 E2 =    -0.5259023885D+00 EUMP2 =    -0.15263305986059D+03
 CCSD(T)
 CCSD(T)= -0.15266028523D+03

 The electronic state is 1-A'.
 Alpha  occ. eigenvalues --  -20.55424 -20.55163  -1.32722  -1.32459  -0.70129
 Alpha  occ. eigenvalues --   -0.69861  -0.56158  -0.55895  -0.49832  -0.49570
 Alpha virt. eigenvalues --    0.14225   0.14498   0.20292   0.20570   0.54435
 Alpha virt. eigenvalues --    0.54715   0.57332   0.57595   0.68038   0.68331
 Alpha virt. eigenvalues --    0.79048   0.79306   0.80484   0.80766   0.82411

 Mulliken charges:
               1
     1  O   -0.507406
     2  H    0.252668
     3  H    0.254739
     4  O   -0.507218
     5  H    0.251905
     6  H    0.255313
 Sum of Mulliken charges =  -0.00000

 Dipole moment (field-independent basis, Debye):
    X=             -1.5580    Y=             -0.7787    Z=              0.0000  Tot=              1.7417
 Quadrupole moment (field-independent basis, Debye-Ang):
   XX=             -9.0968   YY=              9.4295   ZZ=            -14.7114
   XY=             -4.1108   XZ=              0.0000   YZ=              0.0000

 Normal termination of Gaussian 16 at Sat Aug 27 07:11:25 2022.
