 Gaussian 16, Revision A.03,
 Gaussian 16:  ES64L-G16RevA.03 25-Dec-2016

 ------------------
 #p CCSD(T)/cc-pVTZ
 ------------------

 ------------
 H2O_H2O_2300
 ------------
 Symbolic Z-matrix:
 Charge =  0 Multiplicity = 1

                         Standard orientation:
 ---------------------------------------------------------------------
 Center     Atomic      Atomic             Coordinates (Angstroms)
 Number     Number       Type             X           Y           Z
 ---------------------------------------------------------------------
      1          8           0        0.000000   -0.000000    2.026823
      2          1           0        0.000000    0.799571    2.597955
      3          1           0       -0.000000   -0.799571    2.597955
      4          8           0        0.000000   -0.000000   -2.026823
      5          1           0       -0.000000   -0.799571   -2.597955
      6          1           0        0.000000    0.799571   -2.597955
 ---------------------------------------------------------------------

 SCF Done:  E(RHF) =  -152.105171592     A.U. after   10 cycles
 E2 =    -0.5262666903D+00 EUMP2 =    -0.15263143828246D+03
 CCSD(T)
 CCSD(T)= -0.15265868853D+03

 The electronic state is 1-AG.
 Alpha  occ. eigenvalues --  -20.54585 -20.54585  -1.31875  -1.31863  -0.69292
 Alpha  occ. eigenvalues --   -0.69279  -0.55357  -0.55026  -0.48987  -0.48945
 Alpha virt. eigenvalues --    0.14238   0.15556   0.20640   0.21077   0.54465
 Alpha virt. eigenvalues --    0.56120   0.57890   0.58132   0.62639   0.74401
 Alpha virt. eigenvalues --    0.79564   0.80229   0.80950   0.81369   0.81809

 Mulliken charges:
               1
     1  O   -0.494665
     2  H    0.247332
     3  H    0.247332
     4  O   -0.494665
     5  H    0.247332
     6  H    0.247332
 Sum of Mulliken charges =  -0.00000

 Dipole moment (field-independent basis, Debye):
    X=             -0.0000    Y=              0.0000    Z=              0.0000  Tot=              0.0000
 Quadrupole moment (field-independent basis, Debye-Ang):
   XX=            -14.7093   YY=             -7.8345   ZZ=              4.0767
   XY=              0.0000   XZ=              0.0000   YZ=             -0.0000

 3\MP4DQ=-152.6405206\MP4SDQ=-152.6436026\CCSD=-152.6430045\CCSD(T)=-15
 Normal termination of Gaussian 16 at Sat Aug 27 09:44:27 2022.
