 Gaussian 16, Revision A.03,
 Gaussian 16:  ES64L-G16RevA.03 25-Dec-2016

 ------------------
 #p CCSD(T)/cc-pVTZ
 ------------------

 -----------
 H2O_H2O_974
 -----------
 Symbolic Z-matrix:
 Charge =  0 Multiplicity = 1

                         Standard orientation:
 ---------------------------------------------------------------------
 Center     Atomic      Atomic             Coordinates (Angstroms)
 Number     Number       Type             X           Y           Z
 ---------------------------------------------------------------------
      1          8           0        0.057328   -1.247039    0.000000
      2          1           0       -0.744391   -1.815152    0.000000
      3          1           0        0.854740   -1.821181    0.000000
      4          8           0        0.057328    1.360834    0.000000
      5          1           0       -0.510785    2.162553    0.000000
      6          1           0       -0.516815    0.563421    0.000000
 ---------------------------------------------------------------------

 SCF Done:  E(RHF) =  -152.105324845     A.U. after   10 cycles
 E2 =    -0.5295678591D+00 EUMP2 =    -0.15263489270381D+03
 CCSD(T)
 CCSD(T)= -0.15266179225D+03

 The electronic state is 1-A'.
 Alpha  occ. eigenvalues --  -20.57168 -20.51927  -1.34841  -1.29442  -0.72155
 Alpha  occ. eigenvalues --   -0.68233  -0.57077  -0.52977  -0.51862  -0.46530
 Alpha virt. eigenvalues --    0.12819   0.18160   0.19257   0.27242   0.50368
 Alpha virt. eigenvalues --    0.55826   0.59608   0.60897   0.70888   0.73414
 Alpha virt. eigenvalues --    0.74470   0.80461   0.82649   0.83454   0.86466

 Mulliken charges:
               1
     1  O   -0.470720
     2  H    0.239997
     3  H    0.257502
     4  O   -0.526177
     5  H    0.226787
     6  H    0.272611
 Sum of Mulliken charges =  -0.00000

 Dipole moment (field-independent basis, Debye):
    X=             -1.8197    Y=             -2.4208    Z=              0.0000  Tot=              3.0285
 Quadrupole moment (field-independent basis, Debye-Ang):
   XX=             -9.8515   YY=             -5.2792   ZZ=            -14.7195
   XY=             -2.9123   XZ=              0.0000   YZ=              0.0000

 Normal termination of Gaussian 16 at Fri Aug 26 21:39:35 2022.
