 Gaussian 16, Revision A.03,
 Gaussian 16:  ES64L-G16RevA.03 25-Dec-2016

 ------------------
 #p CCSD(T)/cc-pVTZ
 ------------------

 ------------
 H2O_H2O_3627
 ------------
 Symbolic Z-matrix:
 Charge =  0 Multiplicity = 1

                         Standard orientation:
 ---------------------------------------------------------------------
 Center     Atomic      Atomic             Coordinates (Angstroms)
 Number     Number       Type             X           Y           Z
 ---------------------------------------------------------------------
      1          8           0        0.007455   -2.730977    0.000000
      2          1           0       -0.792250   -3.301921    0.000000
      3          1           0        0.806892   -3.302297    0.000000
      4          8           0        0.007455    2.731951    0.000000
      5          1           0        0.725795    3.402392    0.000000
      6          1           0       -0.859716    3.194035    0.000000
 ---------------------------------------------------------------------

 SCF Done:  E(RHF) =  -152.106464207     A.U. after   10 cycles
 E2 =    -0.5259769938D+00 EUMP2 =    -0.15263244120084D+03
 CCSD(T)
 CCSD(T)= -0.15265968051D+03

 The electronic state is 1-A'.
 Alpha  occ. eigenvalues --  -20.55041 -20.55034  -1.32335  -1.32328  -0.69744
 Alpha  occ. eigenvalues --   -0.69736  -0.55739  -0.55729  -0.49440  -0.49432
 Alpha virt. eigenvalues --    0.14475   0.14647   0.20556   0.20619   0.54800
 Alpha virt. eigenvalues --    0.54865   0.57654   0.57684   0.68174   0.68889
 Alpha virt. eigenvalues --    0.79436   0.79446   0.80874   0.80911   0.82783

 Mulliken charges:
               1
     1  O   -0.503308
     2  H    0.251399
     3  H    0.251909
     4  O   -0.503296
     5  H    0.251307
     6  H    0.251988
 Sum of Mulliken charges =   0.00000

 Dipole moment (field-independent basis, Debye):
    X=             -0.2554    Y=             -0.0171    Z=              0.0000  Tot=              0.2559
 Quadrupole moment (field-independent basis, Debye-Ang):
   XX=             -7.8440   YY=              9.7457   ZZ=            -14.7102
   XY=             -0.4694   XZ=              0.0000   YZ=              0.0000

 91274\MP4DQ=-152.6415645\MP4SDQ=-152.644628\CCSD=-152.6440384\CCSD(T)=
 Normal termination of Gaussian 16 at Sat Aug 27 02:01:14 2022.
