 Gaussian 16, Revision A.03,
 Gaussian 16:  ES64L-G16RevA.03 25-Dec-2016

 ------------------
 #p CCSD(T)/cc-pVTZ
 ------------------

 ------------
 H2O_H2O_2934
 ------------
 Symbolic Z-matrix:
 Charge =  0 Multiplicity = 1

                         Standard orientation:
 ---------------------------------------------------------------------
 Center     Atomic      Atomic             Coordinates (Angstroms)
 Number     Number       Type             X           Y           Z
 ---------------------------------------------------------------------
      1          8           0        0.031742   -2.348805    0.000000
      2          1           0       -0.768490   -2.919011    0.000000
      3          1           0        0.830651   -2.920863    0.000000
      4          8           0        0.031742    2.367982    0.000000
      5          1           0        0.380321    3.286676    0.000000
      6          1           0       -0.950345    2.399780    0.000000
 ---------------------------------------------------------------------

 SCF Done:  E(RHF) =  -152.106272485     A.U. after   10 cycles
 E2 =    -0.5260399343D+00 EUMP2 =    -0.15263231241956D+03
 CCSD(T)
 CCSD(T)= -0.15265955214D+03

 The electronic state is 1-A'.
 Alpha  occ. eigenvalues --  -20.55022 -20.54820  -1.32315  -1.32110  -0.69725
 Alpha  occ. eigenvalues --   -0.69513  -0.55708  -0.55499  -0.49418  -0.49215
 Alpha virt. eigenvalues --    0.14222   0.15065   0.20486   0.20887   0.54649
 Alpha virt. eigenvalues --    0.55160   0.57652   0.57876   0.66673   0.70821
 Alpha virt. eigenvalues --    0.79446   0.79669   0.80843   0.81213   0.82627

 Mulliken charges:
               1
     1  O   -0.502142
     2  H    0.249452
     3  H    0.252725
     4  O   -0.501784
     5  H    0.248636
     6  H    0.253113
 Sum of Mulliken charges =  -0.00000

 Dipole moment (field-independent basis, Debye):
    X=             -1.0824    Y=             -0.3400    Z=              0.0000  Tot=              1.1346
 Quadrupole moment (field-independent basis, Debye-Ang):
   XX=             -8.4465   YY=              5.8170   ZZ=            -14.7103
   XY=             -1.7807   XZ=              0.0000   YZ=              0.0000

 Normal termination of Gaussian 16 at Fri Aug 26 17:35:45 2022.
