 Gaussian 16, Revision A.03,
 Gaussian 16:  ES64L-G16RevA.03 25-Dec-2016

 ------------------
 #p CCSD(T)/cc-pVTZ
 ------------------

 ------------
 H2O_H2O_4579
 ------------
 Symbolic Z-matrix:
 Charge =  0 Multiplicity = 1

                         Standard orientation:
 ---------------------------------------------------------------------
 Center     Atomic      Atomic             Coordinates (Angstroms)
 Number     Number       Type             X           Y           Z
 ---------------------------------------------------------------------
      1          8           0        0.014783   -3.234643    0.000000
      2          1           0       -0.785013   -3.805461    0.000000
      3          1           0        0.814129   -3.806089    0.000000
      4          8           0        0.014783    3.238524    0.000000
      5          1           0        0.639588    3.996893    0.000000
      6          1           0       -0.905229    3.583612    0.000000
 ---------------------------------------------------------------------

 SCF Done:  E(RHF) =  -152.106888237     A.U. after   10 cycles
 E2 =    -0.5259225441D+00 EUMP2 =    -0.15263281078147D+03
 CCSD(T)
 CCSD(T)= -0.15266004210D+03

 The electronic state is 1-A'.
 Alpha  occ. eigenvalues --  -20.55229 -20.55208  -1.32525  -1.32504  -0.69932
 Alpha  occ. eigenvalues --   -0.69910  -0.55949  -0.55927  -0.49633  -0.49611
 Alpha virt. eigenvalues --    0.14401   0.14430   0.20452   0.20476   0.54636
 Alpha virt. eigenvalues --    0.54660   0.57508   0.57530   0.68272   0.68313
 Alpha virt. eigenvalues --    0.79246   0.79267   0.80689   0.80712   0.82616

 Mulliken charges:
               1
     1  O   -0.505798
     2  H    0.252586
     3  H    0.253212
     4  O   -0.505778
     5  H    0.252444
     6  H    0.253334
 Sum of Mulliken charges =   0.00000

 Dipole moment (field-independent basis, Debye):
    X=             -0.5081    Y=             -0.0677    Z=              0.0000  Tot=              0.5126
 Quadrupole moment (field-independent basis, Debye-Ang):
   XX=             -7.9397   YY=             13.5509   ZZ=            -14.7108
   XY=             -1.1983   XZ=              0.0000   YZ=              0.0000

 Normal termination of Gaussian 16 at Sat Aug 27 08:09:28 2022.
