 Gaussian 16, Revision A.03,
 Gaussian 16:  ES64L-G16RevA.03 25-Dec-2016

 ------------------
 #p CCSD(T)/cc-pVTZ
 ------------------

 -----------
 H2O_H2O_175
 -----------
 Symbolic Z-matrix:
 Charge =  0 Multiplicity = 1

                         Standard orientation:
 ---------------------------------------------------------------------
 Center     Atomic      Atomic             Coordinates (Angstroms)
 Number     Number       Type             X           Y           Z
 ---------------------------------------------------------------------
      1          8           0       -0.000000    0.000000    0.896670
      2          1           0        0.000000   -0.799571    1.467802
      3          1           0        0.000000    0.799571    1.467802
      4          8           0        0.000000   -0.000000   -0.896670
      5          1           0        0.000000    0.799571   -1.467802
      6          1           0        0.000000   -0.799571   -1.467802
 ---------------------------------------------------------------------

 SCF Done:  E(RHF) =  -151.995307394     A.U. after   11 cycles
 E2 =    -0.5421848135D+00 EUMP2 =    -0.15253749220740D+03
 CCSD(T)
 CCSD(T)= -0.15256340964D+03

 The electronic state is 1-AG.
 Alpha  occ. eigenvalues --  -20.51211 -20.51209  -1.33708  -1.27516  -0.69309
 Alpha  occ. eigenvalues --   -0.65721  -0.64714  -0.50559  -0.43779  -0.38139
 Alpha virt. eigenvalues --    0.14652   0.19123   0.20199   0.22972   0.50347
 Alpha virt. eigenvalues --    0.59223   0.59258   0.67447   0.68040   0.79144
 Alpha virt. eigenvalues --    0.80423   0.83904   0.84432   0.86424   0.87645

 Mulliken charges:
               1
     1  O   -0.390561
     2  H    0.195280
     3  H    0.195280
     4  O   -0.390561
     5  H    0.195280
     6  H    0.195280
 Sum of Mulliken charges =   0.00000

 Dipole moment (field-independent basis, Debye):
    X=              0.0000    Y=              0.0000    Z=             -0.0000  Tot=              0.0000
 Quadrupole moment (field-independent basis, Debye-Ang):
   XX=            -14.7618   YY=             -8.3203   ZZ=             -7.4114
   XY=              0.0000   XZ=             -0.0000   YZ=             -0.0000

 MP4DQ=-152.5428456\MP4SDQ=-152.5467653\CCSD=-152.5457594\CCSD(T)=-152.
 Normal termination of Gaussian 16 at Fri Aug 26 13:38:41 2022.
