 Gaussian 16, Revision A.03,
 Gaussian 16:  ES64L-G16RevA.03 25-Dec-2016

 ------------------
 #p CCSD(T)/cc-pVTZ
 ------------------

 ------------
 H2O_H2O_3657
 ------------
 Symbolic Z-matrix:
 Charge =  0 Multiplicity = 1

                         Standard orientation:
 ---------------------------------------------------------------------
 Center     Atomic      Atomic             Coordinates (Angstroms)
 Number     Number       Type             X           Y           Z
 ---------------------------------------------------------------------
      1          8           0        0.025265   -2.738425    0.000000
      2          1           0       -0.774758   -3.308924    0.000000
      3          1           0        0.824383   -3.310191    0.000000
      4          8           0        0.025265    2.750165    0.000000
      5          1           0        0.490459    3.615671    0.000000
      6          1           0       -0.944328    2.909526    0.000000
 ---------------------------------------------------------------------

 SCF Done:  E(RHF) =  -152.106603778     A.U. after   10 cycles
 E2 =    -0.5259651570D+00 EUMP2 =    -0.15263256893502D+03
 CCSD(T)
 CCSD(T)= -0.15265980526D+03

 The electronic state is 1-A'.
 Alpha  occ. eigenvalues --  -20.55123 -20.55033  -1.32418  -1.32327  -0.69826
 Alpha  occ. eigenvalues --   -0.69733  -0.55827  -0.55737  -0.49524  -0.49433
 Alpha virt. eigenvalues --    0.14417   0.14644   0.20502   0.20633   0.54730
 Alpha virt. eigenvalues --    0.54856   0.57589   0.57688   0.68125   0.68823
 Alpha virt. eigenvalues --    0.79354   0.79443   0.80798   0.80905   0.82735

 Mulliken charges:
               1
     1  O   -0.504141
     2  H    0.251217
     3  H    0.252925
     4  O   -0.504013
     5  H    0.250812
     6  H    0.253200
 Sum of Mulliken charges =  -0.00000

 Dipole moment (field-independent basis, Debye):
    X=             -0.8657    Y=             -0.2060    Z=              0.0000  Tot=              0.8898
 Quadrupole moment (field-independent basis, Debye-Ang):
   XX=             -8.2089   YY=              9.1675   ZZ=            -14.7105
   XY=             -1.6876   XZ=              0.0000   YZ=              0.0000

 Normal termination of Gaussian 16 at Sat Aug 27 02:15:45 2022.
