 Gaussian 16, Revision A.03,
 Gaussian 16:  ES64L-G16RevA.03 25-Dec-2016

 ------------------
 #p CCSD(T)/cc-pVTZ
 ------------------

 ----------
 H2O_H2O_16
 ----------
 Symbolic Z-matrix:
 Charge =  0 Multiplicity = 1

                         Standard orientation:
 ---------------------------------------------------------------------
 Center     Atomic      Atomic             Coordinates (Angstroms)
 Number     Number       Type             X           Y           Z
 ---------------------------------------------------------------------
      1          8           0        0.049613   -0.772858    0.000000
      2          1           0       -0.752983   -1.339733    0.000000
      3          1           0        0.846137   -1.348232    0.000000
      4          8           0        0.049613    0.829445    0.000000
      5          1           0       -0.040017    1.807950    0.000000
      6          1           0       -0.846937    0.427321    0.000000
 ---------------------------------------------------------------------

 SCF Done:  E(RHF) =  -151.903381792     A.U. after   12 cycles
 E2 =    -0.5525945997D+00 EUMP2 =    -0.15245597639207D+03
 CCSD(T)
 CCSD(T)= -0.15248046665D+03

 The electronic state is 1-A'.
 Alpha  occ. eigenvalues --  -20.53795 -20.50969  -1.40596  -1.26211  -0.76610
 Alpha  occ. eigenvalues --   -0.71780  -0.56547  -0.55047  -0.43173  -0.37144
 Alpha virt. eigenvalues --    0.13626   0.18890   0.19954   0.24244   0.51416
 Alpha virt. eigenvalues --    0.56146   0.59348   0.66803   0.73381   0.76792
 Alpha virt. eigenvalues --    0.79694   0.81500   0.83451   0.83764   0.89267

 Mulliken charges:
               1
     1  O   -0.297576
     2  H    0.136051
     3  H    0.186735
     4  O   -0.348183
     5  H    0.081116
     6  H    0.241857
 Sum of Mulliken charges =  -0.00000

 Dipole moment (field-independent basis, Debye):
    X=             -1.2664    Y=             -1.3468    Z=              0.0000  Tot=              1.8486
 Quadrupole moment (field-independent basis, Debye-Ang):
   XX=             -9.5946   YY=             -9.3841   ZZ=            -14.5942
   XY=             -0.8157   XZ=              0.0000   YZ=              0.0000

 Normal termination of Gaussian 16 at Fri Aug 26 11:54:34 2022.
