 Gaussian 16, Revision A.03,
 Gaussian 16:  ES64L-G16RevA.03 25-Dec-2016

 ------------------
 #p CCSD(T)/cc-pVTZ
 ------------------

 ------------
 H2O_H2O_1975
 ------------
 Symbolic Z-matrix:
 Charge =  0 Multiplicity = 1

                         Standard orientation:
 ---------------------------------------------------------------------
 Center     Atomic      Atomic             Coordinates (Angstroms)
 Number     Number       Type             X           Y           Z
 ---------------------------------------------------------------------
      1          8           0        0.000000    0.000000   -1.853976
      2          1           0        0.000000    0.799571   -2.425108
      3          1           0       -0.000000   -0.799571   -2.425108
      4          8           0       -0.000000    0.000000    1.853976
      5          1           0       -0.000000   -0.799571    2.425108
      6          1           0       -0.000000    0.799571    2.425108
 ---------------------------------------------------------------------

 SCF Done:  E(RHF) =  -152.104532170     A.U. after   10 cycles
 E2 =    -0.5264834472D+00 EUMP2 =    -0.15263101561762D+03
 CCSD(T)
 CCSD(T)= -0.15265826775D+03

 The electronic state is 1-AG.
 Alpha  occ. eigenvalues --  -20.54407 -20.54407  -1.31703  -1.31670  -0.69124
 Alpha  occ. eigenvalues --   -0.69093  -0.55308  -0.54621  -0.48829  -0.48732
 Alpha virt. eigenvalues --    0.14218   0.15892   0.20627   0.21279   0.53882
 Alpha virt. eigenvalues --    0.57015   0.57950   0.58305   0.61013   0.75549
 Alpha virt. eigenvalues --    0.79304   0.80204   0.80641   0.80798   0.82930

 Mulliken charges:
               1
     1  O   -0.489196
     2  H    0.244598
     3  H    0.244598
     4  O   -0.489196
     5  H    0.244598
     6  H    0.244598
 Sum of Mulliken charges =   0.00000

 Dipole moment (field-independent basis, Debye):
    X=             -0.0000    Y=             -0.0000    Z=              0.0000  Tot=              0.0000
 Quadrupole moment (field-independent basis, Debye-Ang):
   XX=            -14.7090   YY=             -7.8477   ZZ=              2.6411
   XY=             -0.0000   XZ=              0.0000   YZ=             -0.0000

 \MP4DQ=-152.6400596\MP4SDQ=-152.6431556\CCSD=-152.6425513\CCSD(T)=-152
 Normal termination of Gaussian 16 at Sat Aug 27 07:52:30 2022.
