 Gaussian 16, Revision A.03,
 Gaussian 16:  ES64L-G16RevA.03 25-Dec-2016

 ------------------
 #p CCSD(T)/cc-pVTZ
 ------------------

 ------------
 H2O_H2O_1334
 ------------
 Symbolic Z-matrix:
 Charge =  0 Multiplicity = 1

                         Standard orientation:
 ---------------------------------------------------------------------
 Center     Atomic      Atomic             Coordinates (Angstroms)
 Number     Number       Type             X           Y           Z
 ---------------------------------------------------------------------
      1          8           0        0.031748   -1.497888    0.000000
      2          1           0       -0.768857   -2.067570    0.000000
      3          1           0        0.830283   -2.070468    0.000000
      4          8           0        0.031748    1.517024    0.000000
      5          1           0        0.380928    2.435490    0.000000
      6          1           0       -0.950318    1.549464    0.000000
 ---------------------------------------------------------------------

 SCF Done:  E(RHF) =  -152.102681076     A.U. after   11 cycles
 E2 =    -0.5273614084D+00 EUMP2 =    -0.15263004248425D+03
 CCSD(T)
 CCSD(T)= -0.15265730239D+03

 The electronic state is 1-A'.
 Alpha  occ. eigenvalues --  -20.54285 -20.53807  -1.31617  -1.31060  -0.69041
 Alpha  occ. eigenvalues --   -0.68488  -0.55701  -0.53379  -0.48770  -0.48084
 Alpha virt. eigenvalues --    0.14139   0.16708   0.20424   0.22160   0.52715
 Alpha virt. eigenvalues --    0.58091   0.58159   0.58990   0.66241   0.76619
 Alpha virt. eigenvalues --    0.77568   0.78320   0.79570   0.82569   0.85787

 Mulliken charges:
               1
     1  O   -0.477858
     2  H    0.234315
     3  H    0.244321
     4  O   -0.474133
     5  H    0.230606
     6  H    0.242748
 Sum of Mulliken charges =  -0.00000

 Dipole moment (field-independent basis, Debye):
    X=             -1.0369    Y=             -0.3626    Z=              0.0000  Tot=              1.0985
 Quadrupole moment (field-independent basis, Debye-Ang):
   XX=             -8.5111   YY=             -0.7338   ZZ=            -14.7127
   XY=             -0.8829   XZ=              0.0000   YZ=              0.0000

 Normal termination of Gaussian 16 at Sat Aug 27 04:00:37 2022.
