 Gaussian 16, Revision A.03,
 Gaussian 16:  ES64L-G16RevA.03 25-Dec-2016

 ------------------
 #p CCSD(T)/cc-pVTZ
 ------------------

 ------------
 H2O_H2O_1995
 ------------
 Symbolic Z-matrix:
 Charge =  0 Multiplicity = 1

                         Standard orientation:
 ---------------------------------------------------------------------
 Center     Atomic      Atomic             Coordinates (Angstroms)
 Number     Number       Type             X           Y           Z
 ---------------------------------------------------------------------
      1          8           0        0.055276   -1.808148    0.000000
      2          1           0       -0.745759   -2.377226    0.000000
      3          1           0        0.853378   -2.381330    0.000000
      4          8           0        0.055276    1.892527    0.000000
      5          1           0       -0.287089    2.813556    0.000000
      6          1           0       -0.704940    1.269969    0.000000
 ---------------------------------------------------------------------

 SCF Done:  E(RHF) =  -152.108012004     A.U. after   10 cycles
 E2 =    -0.5263711793D+00 EUMP2 =    -0.15263438318292D+03
 CCSD(T)
 CCSD(T)= -0.15266154532D+03

 The electronic state is 1-A'.
 Alpha  occ. eigenvalues --  -20.55822 -20.54155  -1.33094  -1.31442  -0.70504
 Alpha  occ. eigenvalues --   -0.68810  -0.56530  -0.54888  -0.50211  -0.48568
 Alpha virt. eigenvalues --    0.13191   0.16287   0.19910   0.23003   0.53944
 Alpha virt. eigenvalues --    0.54656   0.57020   0.58533   0.65479   0.75109
 Alpha virt. eigenvalues --    0.78271   0.78909   0.79560   0.80563   0.84612

 Mulliken charges:
               1
     1  O   -0.500170
     2  H    0.247184
     3  H    0.256910
     4  O   -0.508436
     5  H    0.243431
     6  H    0.261081
 Sum of Mulliken charges =  -0.00000

 Dipole moment (field-independent basis, Debye):
    X=             -1.8549    Y=             -1.5689    Z=              0.0000  Tot=              2.4294
 Quadrupole moment (field-independent basis, Debye-Ang):
   XX=             -9.7254   YY=             -0.9442   ZZ=            -14.7170
   XY=             -3.2910   XZ=              0.0000   YZ=              0.0000

 Normal termination of Gaussian 16 at Sat Aug 27 07:59:14 2022.
