 Gaussian 16, Revision A.03,
 Gaussian 16:  ES64L-G16RevA.03 25-Dec-2016

 ------------------
 #p CCSD(T)/cc-pVTZ
 ------------------

 ------------
 H2O_H2O_3873
 ------------
 Symbolic Z-matrix:
 Charge =  0 Multiplicity = 1

                         Standard orientation:
 ---------------------------------------------------------------------
 Center     Atomic      Atomic             Coordinates (Angstroms)
 Number     Number       Type             X           Y           Z
 ---------------------------------------------------------------------
      1          8           0        0.057083   -2.793299    0.000000
      2          1           0       -0.743471   -3.363052    0.000000
      3          1           0        0.855668   -3.365808    0.000000
      4          8           0        0.057083    2.899858    0.000000
      5          1           0       -0.459092    3.735962    0.000000
      6          1           0       -0.566431    2.140425    0.000000
 ---------------------------------------------------------------------

 SCF Done:  E(RHF) =  -152.107746671     A.U. after   10 cycles
 E2 =    -0.5258668509D+00 EUMP2 =    -0.15263361352183D+03
 CCSD(T)
 CCSD(T)= -0.15266082491D+03

 The electronic state is 1-A'.
 Alpha  occ. eigenvalues --  -20.55781 -20.55011  -1.33080  -1.32311  -0.70486
 Alpha  occ. eigenvalues --   -0.69706  -0.56544  -0.55765  -0.50194  -0.49427
 Alpha virt. eigenvalues --    0.13802   0.14767   0.20006   0.20873   0.54063
 Alpha virt. eigenvalues --    0.54844   0.57019   0.57761   0.67379   0.68668
 Alpha virt. eigenvalues --    0.78688   0.79439   0.80101   0.80651   0.82450

 Mulliken charges:
               1
     1  O   -0.510868
     2  H    0.253848
     3  H    0.257058
     4  O   -0.510314
     5  H    0.251667
     6  H    0.258608
 Sum of Mulliken charges =  -0.00000

 Dipole moment (field-independent basis, Debye):
    X=             -1.9588    Y=             -1.8720    Z=              0.0000  Tot=              2.7095
 Quadrupole moment (field-independent basis, Debye-Ang):
   XX=             -9.8543   YY=              2.0187   ZZ=            -14.7130
   XY=             -5.7144   XZ=              0.0000   YZ=              0.0000

 Normal termination of Gaussian 16 at Sat Aug 27 03:56:57 2022.
