 Gaussian 16, Revision A.03,
 Gaussian 16:  ES64L-G16RevA.03 25-Dec-2016

 ------------------
 #p CCSD(T)/cc-pVTZ
 ------------------

 -----------
 H2O_H2O_434
 -----------
 Symbolic Z-matrix:
 Charge =  0 Multiplicity = 1

                         Standard orientation:
 ---------------------------------------------------------------------
 Center     Atomic      Atomic             Coordinates (Angstroms)
 Number     Number       Type             X           Y           Z
 ---------------------------------------------------------------------
      1          8           0        0.031756   -1.019264    0.000000
      2          1           0       -0.769329   -1.588271    0.000000
      3          1           0        0.829808   -1.592516    0.000000
      4          8           0        0.031756    1.038346    0.000000
      5          1           0        0.381710    1.956517    0.000000
      6          1           0       -0.950282    1.071613    0.000000
 ---------------------------------------------------------------------

 SCF Done:  E(RHF) =  -152.062938699     A.U. after   11 cycles
 E2 =    -0.5340369507D+00 EUMP2 =    -0.15259697564997D+03
 CCSD(T)
 CCSD(T)= -0.15262389252D+03

 The electronic state is 1-A'.
 Alpha  occ. eigenvalues --  -20.52679 -20.52052  -1.32182  -1.28854  -0.69126
 Alpha  occ. eigenvalues --   -0.67217  -0.59303  -0.49364  -0.45822  -0.45431
 Alpha virt. eigenvalues --    0.14421   0.18064   0.20312   0.23207   0.52512
 Alpha virt. eigenvalues --    0.57960   0.58576   0.64106   0.70583   0.77011
 Alpha virt. eigenvalues --    0.78618   0.82031   0.83794   0.86089   0.87888

 Mulliken charges:
               1
     1  O   -0.444897
     2  H    0.212320
     3  H    0.230119
     4  O   -0.415746
     5  H    0.183657
     6  H    0.234547
 Sum of Mulliken charges =  -0.00000

 Dipole moment (field-independent basis, Debye):
    X=             -0.9309    Y=             -0.3907    Z=              0.0000  Tot=              1.0096
 Quadrupole moment (field-independent basis, Debye-Ang):
   XX=             -8.6836   YY=             -5.3852   ZZ=            -14.7346
   XY=             -0.4394   XZ=              0.0000   YZ=              0.0000

 Normal termination of Gaussian 16 at Fri Aug 26 16:25:45 2022.
