 Gaussian 16, Revision A.03,
 Gaussian 16:  ES64L-G16RevA.03 25-Dec-2016

 ------------------
 #p CCSD(T)/cc-pVTZ
 ------------------

 -----------
 H2O_H2O_799
 -----------
 Symbolic Z-matrix:
 Charge =  0 Multiplicity = 1

                         Standard orientation:
 ---------------------------------------------------------------------
 Center     Atomic      Atomic             Coordinates (Angstroms)
 Number     Number       Type             X           Y           Z
 ---------------------------------------------------------------------
      1          8           0        0.057345   -1.153985    0.000000
      2          1           0       -0.744539   -1.721865    0.000000
      3          1           0        0.854590   -1.728358    0.000000
      4          8           0        0.057345    1.267746    0.000000
      5          1           0       -0.510536    2.069630    0.000000
      6          1           0       -0.517029    0.470501    0.000000
 ---------------------------------------------------------------------

 SCF Done:  E(RHF) =  -152.098055465     A.U. after   11 cycles
 E2 =    -0.5312501856D+00 EUMP2 =    -0.15262930565034D+03
 CCSD(T)
 CCSD(T)= -0.15265604631D+03

 The electronic state is 1-A'.
 Alpha  occ. eigenvalues --  -20.57321 -20.51128  -1.35413  -1.28801  -0.72680
 Alpha  occ. eigenvalues --   -0.68885  -0.56188  -0.52363  -0.52302  -0.45845
 Alpha virt. eigenvalues --    0.12766   0.18537   0.19134   0.27614   0.49802
 Alpha virt. eigenvalues --    0.55473   0.60979   0.62920   0.71282   0.73316
 Alpha virt. eigenvalues --    0.75281   0.82224   0.82347   0.83423   0.86543

 Mulliken charges:
               1
     1  O   -0.448434
     2  H    0.232744
     3  H    0.253857
     4  O   -0.528483
     5  H    0.218836
     6  H    0.271479
 Sum of Mulliken charges =   0.00000

 Dipole moment (field-independent basis, Debye):
    X=             -1.7825    Y=             -2.5246    Z=              0.0000  Tot=              3.0904
 Quadrupole moment (field-independent basis, Debye-Ang):
   XX=             -9.8445   YY=             -5.8372   ZZ=            -14.7037
   XY=             -2.7350   XZ=              0.0000   YZ=              0.0000

 Normal termination of Gaussian 16 at Fri Aug 26 20:08:13 2022.
