 Gaussian 16, Revision A.03,
 Gaussian 16:  ES64L-G16RevA.03 25-Dec-2016

 ------------------
 #p CCSD(T)/cc-pVTZ
 ------------------

 -----------
 H2O_H2O_364
 -----------
 Symbolic Z-matrix:
 Charge =  0 Multiplicity = 1

                         Standard orientation:
 ---------------------------------------------------------------------
 Center     Atomic      Atomic             Coordinates (Angstroms)
 Number     Number       Type             X           Y           Z
 ---------------------------------------------------------------------
      1          8           0        0.045399   -0.965660    0.000000
      2          1           0       -0.756421   -1.533630    0.000000
      3          1           0        0.842708   -1.539945    0.000000
      4          8           0        0.045399    1.009991    0.000000
      5          1           0        0.082915    1.991877    0.000000
      6          1           0       -0.895584    0.727046    0.000000
 ---------------------------------------------------------------------

 SCF Done:  E(RHF) =  -152.052633076     A.U. after   11 cycles
 E2 =    -0.5360109416D+00 EUMP2 =    -0.15258864401743D+03
 CCSD(T)
 CCSD(T)= -0.15261536516D+03

 The electronic state is 1-A'.
 Alpha  occ. eigenvalues --  -20.53453 -20.51733  -1.33549  -1.28468  -0.70715
 Alpha  occ. eigenvalues --   -0.68182  -0.57716  -0.50415  -0.46319  -0.45188
 Alpha virt. eigenvalues --    0.14054   0.18308   0.19970   0.23891   0.53004
 Alpha virt. eigenvalues --    0.57227   0.58733   0.63621   0.72054   0.76288
 Alpha virt. eigenvalues --    0.80271   0.82386   0.83041   0.84808   0.88309

 Mulliken charges:
               1
     1  O   -0.425109
     2  H    0.202634
     3  H    0.224964
     4  O   -0.409947
     5  H    0.169223
     6  H    0.238235
 Sum of Mulliken charges =  -0.00000

 Dipole moment (field-independent basis, Debye):
    X=             -1.3031    Y=             -0.9168    Z=              0.0000  Tot=              1.5933
 Quadrupole moment (field-independent basis, Debye-Ang):
   XX=             -9.2711   YY=             -6.0509   ZZ=            -14.7076
   XY=             -0.8773   XZ=              0.0000   YZ=              0.0000

 Normal termination of Gaussian 16 at Fri Aug 26 15:41:12 2022.
