 Gaussian 16, Revision A.03,
 Gaussian 16:  ES64L-G16RevA.03 25-Dec-2016

 ------------------
 #p CCSD(T)/cc-pVTZ
 ------------------

 -----------
 H2O_H2O_832
 -----------
 Symbolic Z-matrix:
 Charge =  0 Multiplicity = 1

                         Standard orientation:
 ---------------------------------------------------------------------
 Center     Atomic      Atomic             Coordinates (Angstroms)
 Number     Number       Type             X           Y           Z
 ---------------------------------------------------------------------
      1          8           0        0.025271   -1.236013    0.000000
      2          1           0       -0.775299   -1.805744    0.000000
      3          1           0        0.823841   -1.808544    0.000000
      4          8           0        0.025271    1.247705    0.000000
      5          1           0        0.491294    2.112764    0.000000
      6          1           0       -0.944169    1.407993    0.000000
 ---------------------------------------------------------------------

 SCF Done:  E(RHF) =  -152.093084614     A.U. after   11 cycles
 E2 =    -0.5293076398D+00 EUMP2 =    -0.15262239225388D+03
 CCSD(T)
 CCSD(T)= -0.15264966225D+03

 The electronic state is 1-A'.
 Alpha  occ. eigenvalues --  -20.53392 -20.53039  -1.31236  -1.30181  -0.68538
 Alpha  occ. eigenvalues --   -0.67777  -0.56961  -0.50362  -0.48519  -0.46966
 Alpha virt. eigenvalues --    0.14388   0.17417   0.20488   0.22583   0.51594
 Alpha virt. eigenvalues --    0.58601   0.58772   0.62326   0.71196   0.76478
 Alpha virt. eigenvalues --    0.76891   0.79621   0.83840   0.85746   0.86268

 Mulliken charges:
               1
     1  O   -0.464377
     2  H    0.225765
     3  H    0.237314
     4  O   -0.452258
     5  H    0.217692
     6  H    0.235864
 Sum of Mulliken charges =  -0.00000

 Dipole moment (field-independent basis, Debye):
    X=             -0.7896    Y=             -0.2270    Z=              0.0000  Tot=              0.8216
 Quadrupole moment (field-independent basis, Debye-Ang):
   XX=             -8.3651   YY=             -3.0129   ZZ=            -14.7248
   XY=             -0.4368   XZ=              0.0000   YZ=              0.0000

 Normal termination of Gaussian 16 at Fri Aug 26 20:24:45 2022.
