 Gaussian 16, Revision A.03,
 Gaussian 16:  ES64L-G16RevA.03 25-Dec-2016

 ------------------
 #p CCSD(T)/cc-pVTZ
 ------------------

 ------------
 H2O_H2O_4938
 ------------
 Symbolic Z-matrix:
 Charge =  0 Multiplicity = 1

                         Standard orientation:
 ---------------------------------------------------------------------
 Center     Atomic      Atomic             Coordinates (Angstroms)
 Number     Number       Type             X           Y           Z
 ---------------------------------------------------------------------
      1          8           0        0.042961   -3.401811    0.000000
      2          1           0       -0.757227   -3.972078    0.000000
      3          1           0        0.841914   -3.973806    0.000000
      4          8           0        0.042961    3.440629    0.000000
      5          1           0        0.141811    4.418246    0.000000
      6          1           0       -0.913875    3.217087    0.000000
 ---------------------------------------------------------------------

 SCF Done:  E(RHF) =  -152.107195081     A.U. after   10 cycles
 E2 =    -0.5258930338D+00 EUMP2 =    -0.15263308811465D+03
 CCSD(T)
 CCSD(T)= -0.15266031307D+03

 The electronic state is 1-A'.
 Alpha  occ. eigenvalues --  -20.55434 -20.55243  -1.32731  -1.32540  -0.70138
 Alpha  occ. eigenvalues --   -0.69943  -0.56169  -0.55977  -0.49841  -0.49651
 Alpha virt. eigenvalues --    0.14226   0.14416   0.20289   0.20488   0.54427
 Alpha virt. eigenvalues --    0.54629   0.57326   0.57517   0.68037   0.68231
 Alpha virt. eigenvalues --    0.79038   0.79227   0.80474   0.80679   0.82398

 Mulliken charges:
               1
     1  O   -0.507617
     2  H    0.253040
     3  H    0.254577
     4  O   -0.507497
     5  H    0.252494
     6  H    0.255002
 Sum of Mulliken charges =  -0.00000

 Dipole moment (field-independent basis, Debye):
    X=             -1.4779    Y=             -0.6763    Z=              0.0000  Tot=              1.6253
 Quadrupole moment (field-independent basis, Debye-Ang):
   XX=             -8.9641   YY=             11.7923   ZZ=            -14.7114
   XY=             -4.2273   XZ=              0.0000   YZ=              0.0000

 Normal termination of Gaussian 16 at Sat Aug 27 10:13:44 2022.
