 Gaussian 16, Revision A.03,
 Gaussian 16:  ES64L-G16RevA.03 25-Dec-2016

 ------------------
 #p CCSD(T)/cc-pVTZ
 ------------------

 ------------
 H2O_H2O_4602
 ------------
 Symbolic Z-matrix:
 Charge =  0 Multiplicity = 1

                         Standard orientation:
 ---------------------------------------------------------------------
 Center     Atomic      Atomic             Coordinates (Angstroms)
 Number     Number       Type             X           Y           Z
 ---------------------------------------------------------------------
      1          8           0        0.007455   -3.249517    0.000000
      2          1           0       -0.792229   -3.820491    0.000000
      3          1           0        0.806913   -3.820807    0.000000
      4          8           0        0.007455    3.250491    0.000000
      5          1           0        0.725770    3.920960    0.000000
      6          1           0       -0.859733    3.712543    0.000000
 ---------------------------------------------------------------------

 SCF Done:  E(RHF) =  -152.106875080     A.U. after   10 cycles
 E2 =    -0.5259233316D+00 EUMP2 =    -0.15263279841169D+03
 CCSD(T)
 CCSD(T)= -0.15266003003D+03

 The electronic state is 1-A'.
 Alpha  occ. eigenvalues --  -20.55218 -20.55212  -1.32514  -1.32508  -0.69921
 Alpha  occ. eigenvalues --   -0.69915  -0.55937  -0.55931  -0.49621  -0.49616
 Alpha virt. eigenvalues --    0.14409   0.14427   0.20461   0.20470   0.54647
 Alpha virt. eigenvalues --    0.54654   0.57518   0.57525   0.68282   0.68313
 Alpha virt. eigenvalues --    0.79258   0.79263   0.80700   0.80706   0.82627

 Mulliken charges:
               1
     1  O   -0.505719
     2  H    0.252704
     3  H    0.253016
     4  O   -0.505714
     5  H    0.252637
     6  H    0.253077
 Sum of Mulliken charges =  -0.00000

 Dipole moment (field-independent basis, Debye):
    X=             -0.2562    Y=             -0.0170    Z=              0.0000  Tot=              0.2568
 Quadrupole moment (field-independent basis, Debye-Ang):
   XX=             -7.8370   YY=             13.8883   ZZ=            -14.7107
   XY=             -0.6009   XZ=              0.0000   YZ=              0.0000

 Normal termination of Gaussian 16 at Sat Aug 27 08:16:51 2022.
