 Gaussian 16, Revision A.03,
 Gaussian 16:  ES64L-G16RevA.03 25-Dec-2016

 ------------------
 #p CCSD(T)/cc-pVTZ
 ------------------

 -----------
 H2O_H2O_623
 -----------
 Symbolic Z-matrix:
 Charge =  0 Multiplicity = 1

                         Standard orientation:
 ---------------------------------------------------------------------
 Center     Atomic      Atomic             Coordinates (Angstroms)
 Number     Number       Type             X           Y           Z
 ---------------------------------------------------------------------
      1          8           0        0.057225   -1.064989    0.000000
      2          1           0       -0.744845   -1.632608    0.000000
      3          1           0        0.854282   -1.639624    0.000000
      4          8           0        0.057225    1.171244    0.000000
      5          1           0       -0.456721    2.008720    0.000000
      6          1           0       -0.568310    0.413475    0.000000
 ---------------------------------------------------------------------

 SCF Done:  E(RHF) =  -152.083439068     A.U. after   11 cycles
 E2 =    -0.5334734988D+00 EUMP2 =    -0.15261691256692D+03
 CCSD(T)
 CCSD(T)= -0.15264348137D+03

 The electronic state is 1-A'.
 Alpha  occ. eigenvalues --  -20.56988 -20.50501  -1.35769  -1.28267  -0.73100
 Alpha  occ. eigenvalues --   -0.69610  -0.54375  -0.52444  -0.51999  -0.45259
 Alpha virt. eigenvalues --    0.12859   0.18728   0.19207   0.27174   0.49735
 Alpha virt. eigenvalues --    0.55283   0.61702   0.64715   0.71736   0.73790
 Alpha virt. eigenvalues --    0.76797   0.81733   0.83569   0.84309   0.87046

 Mulliken charges:
               1
     1  O   -0.421189
     2  H    0.220834
     3  H    0.247030
     4  O   -0.517462
     5  H    0.205693
     6  H    0.265094
 Sum of Mulliken charges =  -0.00000

 Dipole moment (field-independent basis, Debye):
    X=             -1.7292    Y=             -2.4244    Z=              0.0000  Tot=              2.9779
 Quadrupole moment (field-independent basis, Debye-Ang):
   XX=             -9.8402   YY=             -6.1861   ZZ=            -14.6839
   XY=             -2.4161   XZ=              0.0000   YZ=              0.0000

 Normal termination of Gaussian 16 at Fri Aug 26 18:21:07 2022.
