 Gaussian 16, Revision A.03,
 Gaussian 16:  ES64L-G16RevA.03 25-Dec-2016

 ------------------
 #p CCSD(T)/cc-pVTZ
 ------------------

 ------------
 H2O_H2O_4695
 ------------
 Symbolic Z-matrix:
 Charge =  0 Multiplicity = 1

                         Standard orientation:
 ---------------------------------------------------------------------
 Center     Atomic      Atomic             Coordinates (Angstroms)
 Number     Number       Type             X           Y           Z
 ---------------------------------------------------------------------
      1          8           0        0.055228   -3.244042    0.000000
      2          1           0       -0.745167   -3.814018    0.000000
      3          1           0        0.853973   -3.816329    0.000000
      4          8           0        0.055228    3.328545    0.000000
      5          1           0       -0.288169    4.249188    0.000000
      6          1           0       -0.704288    2.705135    0.000000
 ---------------------------------------------------------------------

 SCF Done:  E(RHF) =  -152.107480670     A.U. after   10 cycles
 E2 =    -0.5258704130D+00 EUMP2 =    -0.15263335108288D+03
 CCSD(T)
 CCSD(T)= -0.15266056979D+03

 The electronic state is 1-A'.
 Alpha  occ. eigenvalues --  -20.55638 -20.55188  -1.32937  -1.32487  -0.70343
 Alpha  occ. eigenvalues --   -0.69887  -0.56387  -0.55934  -0.50049  -0.49600
 Alpha virt. eigenvalues --    0.14041   0.14497   0.20123   0.20601   0.54218
 Alpha virt. eigenvalues --    0.54686   0.57143   0.57593   0.67789   0.68266
 Alpha virt. eigenvalues --    0.78831   0.79273   0.80260   0.80736   0.82187

 Mulliken charges:
               1
     1  O   -0.509317
     2  H    0.253596
     3  H    0.255722
     4  O   -0.509062
     5  H    0.252456
     6  H    0.256606
 Sum of Mulliken charges =  -0.00000

 Dipole moment (field-independent basis, Debye):
    X=             -1.8993    Y=             -1.4747    Z=              0.0000  Tot=              2.4046
 Quadrupole moment (field-independent basis, Debye-Ang):
   XX=             -9.7243   YY=              6.3338   ZZ=            -14.7122
   XY=             -5.9755   XZ=              0.0000   YZ=              0.0000

 Normal termination of Gaussian 16 at Sat Aug 27 08:48:04 2022.
