 Gaussian 16, Revision A.03,
 Gaussian 16:  ES64L-G16RevA.03 25-Dec-2016

 ------------------
 #p CCSD(T)/cc-pVTZ
 ------------------

 ------------
 H2O_H2O_3366
 ------------
 Symbolic Z-matrix:
 Charge =  0 Multiplicity = 1

                         Standard orientation:
 ---------------------------------------------------------------------
 Center     Atomic      Atomic             Coordinates (Angstroms)
 Number     Number       Type             X           Y           Z
 ---------------------------------------------------------------------
      1          8           0        0.049508   -2.554321    0.000000
      2          1           0       -0.751003   -3.124134    0.000000
      3          1           0        0.848137   -3.126770    0.000000
      4          8           0        0.049508    2.611271    0.000000
      5          1           0       -0.043708    3.589441    0.000000
      6          1           0       -0.845561    2.205863    0.000000
 ---------------------------------------------------------------------

 SCF Done:  E(RHF) =  -152.107102958     A.U. after   10 cycles
 E2 =    -0.5259429211D+00 EUMP2 =    -0.15263304587902D+03
 CCSD(T)
 CCSD(T)= -0.15266026955D+03

 The electronic state is 1-A'.
 Alpha  occ. eigenvalues --  -20.55426 -20.54919  -1.32723  -1.32213  -0.70130
 Alpha  occ. eigenvalues --   -0.69609  -0.56155  -0.55645  -0.49832  -0.49325
 Alpha virt. eigenvalues --    0.14007   0.14895   0.20241   0.20890   0.54384
 Alpha virt. eigenvalues --    0.54950   0.57325   0.57806   0.67442   0.69342
 Alpha virt. eigenvalues --    0.79049   0.79544   0.80435   0.80908   0.82686

 Mulliken charges:
               1
     1  O   -0.507042
     2  H    0.251570
     3  H    0.255525
     4  O   -0.506600
     5  H    0.249966
     6  H    0.256582
 Sum of Mulliken charges =   0.00000

 Dipole moment (field-independent basis, Debye):
    X=             -1.6943    Y=             -1.0051    Z=              0.0000  Tot=              1.9700
 Quadrupole moment (field-independent basis, Debye-Ang):
   XX=             -9.3459   YY=              4.9309   ZZ=            -14.7117
   XY=             -3.7407   XZ=              0.0000   YZ=              0.0000

 Normal termination of Gaussian 16 at Fri Aug 26 21:44:22 2022.
