 Gaussian 16, Revision A.03,
 Gaussian 16:  ES64L-G16RevA.03 25-Dec-2016

 ------------------
 #p CCSD(T)/cc-pVTZ
 ------------------

 -----------
 H2O_H2O_598
 -----------
 Symbolic Z-matrix:
 Charge =  0 Multiplicity = 1

                         Standard orientation:
 ---------------------------------------------------------------------
 Center     Atomic      Atomic             Coordinates (Angstroms)
 Number     Number       Type             X           Y           Z
 ---------------------------------------------------------------------
      1          8           0        0.057227   -1.051697    0.000000
      2          1           0       -0.744872   -1.619272    0.000000
      3          1           0        0.854254   -1.626374    0.000000
      4          8           0        0.057227    1.157945    0.000000
      5          1           0       -0.456674    1.995448    0.000000
      6          1           0       -0.568348    0.400210    0.000000
 ---------------------------------------------------------------------

 SCF Done:  E(RHF) =  -152.080416022     A.U. after   11 cycles
 E2 =    -0.5339102160D+00 EUMP2 =    -0.15261432623765D+03
 CCSD(T)
 CCSD(T)= -0.15264084664D+03

 The electronic state is 1-A'.
 Alpha  occ. eigenvalues --  -20.56993 -20.50345  -1.35923  -1.28145  -0.73270
 Alpha  occ. eigenvalues --   -0.69773  -0.54064  -0.52543  -0.51898  -0.45128
 Alpha virt. eigenvalues --    0.12846   0.18743   0.19227   0.27205   0.49663
 Alpha virt. eigenvalues --    0.55199   0.61824   0.65060   0.71781   0.73870
 Alpha virt. eigenvalues --    0.76929   0.81576   0.83581   0.84501   0.87113

 Mulliken charges:
               1
     1  O   -0.415920
     2  H    0.219000
     3  H    0.246096
     4  O   -0.517625
     5  H    0.203630
     6  H    0.264819
 Sum of Mulliken charges =  -0.00000

 Dipole moment (field-independent basis, Debye):
    X=             -1.7213    Y=             -2.4423    Z=              0.0000  Tot=              2.9879
 Quadrupole moment (field-independent basis, Debye-Ang):
   XX=             -9.8390   YY=             -6.2884   ZZ=            -14.6792
   XY=             -2.3893   XZ=              0.0000   YZ=              0.0000

 6922\MP4DQ=-152.6215509\MP4SDQ=-152.6248856\CCSD=-152.6241794\CCSD(T)=
 Normal termination of Gaussian 16 at Fri Aug 26 18:01:17 2022.
