 Gaussian 16, Revision A.03,
 Gaussian 16:  ES64L-G16RevA.03 25-Dec-2016

 ------------------
 #p CCSD(T)/cc-pVTZ
 ------------------

 ------------
 H2O_H2O_1469
 ------------
 Symbolic Z-matrix:
 Charge =  0 Multiplicity = 1

                         Standard orientation:
 ---------------------------------------------------------------------
 Center     Atomic      Atomic             Coordinates (Angstroms)
 Number     Number       Type             X           Y           Z
 ---------------------------------------------------------------------
      1          8           0        0.054197   -1.532838    0.000000
      2          1           0       -0.747063   -2.101599    0.000000
      3          1           0        0.852072   -2.106336    0.000000
      4          8           0        0.054197    1.610027    0.000000
      5          1           0       -0.226824    2.551585    0.000000
      6          1           0       -0.745335    1.038839    0.000000
 ---------------------------------------------------------------------

 SCF Done:  E(RHF) =  -152.107280395     A.U. after   10 cycles
 E2 =    -0.5270902686D+00 EUMP2 =    -0.15263437066343D+03
 CCSD(T)
 CCSD(T)= -0.15266151779D+03

 The electronic state is 1-A'.
 Alpha  occ. eigenvalues --  -20.55759 -20.53642  -1.33054  -1.30916  -0.70470
 Alpha  occ. eigenvalues --   -0.68332  -0.56434  -0.54311  -0.50170  -0.48037
 Alpha virt. eigenvalues --    0.13377   0.16894   0.19866   0.23749   0.53812
 Alpha virt. eigenvalues --    0.55317   0.57070   0.58314   0.67013   0.75798
 Alpha virt. eigenvalues --    0.76740   0.76798   0.79599   0.81778   0.84659

 Mulliken charges:
               1
     1  O   -0.489129
     2  H    0.241242
     3  H    0.255331
     4  O   -0.500987
     5  H    0.235475
     6  H    0.258068
 Sum of Mulliken charges =  -0.00000

 Dipole moment (field-independent basis, Debye):
    X=             -1.7802    Y=             -1.4850    Z=              0.0000  Tot=              2.3183
 Quadrupole moment (field-independent basis, Debye-Ang):
   XX=             -9.6630   YY=             -2.1444   ZZ=            -14.7207
   XY=             -2.6050   XZ=              0.0000   YZ=              0.0000

 Normal termination of Gaussian 16 at Sat Aug 27 04:56:18 2022.
