 Gaussian 16, Revision A.03,
 Gaussian 16:  ES64L-G16RevA.03 25-Dec-2016

 ------------------
 #p CCSD(T)/cc-pVTZ
 ------------------

 -----------
 H2O_H2O_148
 -----------
 Symbolic Z-matrix:
 Charge =  0 Multiplicity = 1

                         Standard orientation:
 ---------------------------------------------------------------------
 Center     Atomic      Atomic             Coordinates (Angstroms)
 Number     Number       Type             X           Y           Z
 ---------------------------------------------------------------------
      1          8           0        0.057293   -0.812443    0.000000
      2          1           0       -0.745503   -1.379034    0.000000
      3          1           0        0.853613   -1.388099    0.000000
      4          8           0        0.057293    0.918551    0.000000
      5          1           0       -0.455580    1.756685    0.000000
      6          1           0       -0.569212    0.161584    0.000000
 ---------------------------------------------------------------------

 SCF Done:  E(RHF) =  -151.928848409     A.U. after   11 cycles
 E2 =    -0.5486418783D+00 EUMP2 =    -0.15247749028713D+03
 CCSD(T)
 CCSD(T)= -0.15250194591D+03

 The electronic state is 1-A'.
 Alpha  occ. eigenvalues --  -20.57360 -20.46474  -1.42886  -1.25232  -0.80300
 Alpha  occ. eigenvalues --   -0.73533  -0.56354  -0.49775  -0.43315  -0.42057
 Alpha virt. eigenvalues --    0.12444   0.17713   0.20758   0.27158   0.48554
 Alpha virt. eigenvalues --    0.52955   0.63460   0.70030   0.73880   0.74696
 Alpha virt. eigenvalues --    0.77730   0.78387   0.84558   0.85393   0.88918

 Mulliken charges:
               1
     1  O   -0.277775
     2  H    0.171702
     3  H    0.223045
     4  O   -0.535123
     5  H    0.142227
     6  H    0.275925
 Sum of Mulliken charges =  -0.00000

 Dipole moment (field-independent basis, Debye):
    X=             -1.4960    Y=             -2.8936    Z=              0.0000  Tot=              3.2574
 Quadrupole moment (field-independent basis, Debye-Ang):
   XX=             -9.8227   YY=             -8.8174   ZZ=            -14.5242
   XY=             -1.8501   XZ=              0.0000   YZ=              0.0000

 Normal termination of Gaussian 16 at Fri Aug 26 13:20:26 2022.
