 Gaussian 16, Revision A.03,
 Gaussian 16:  ES64L-G16RevA.03 25-Dec-2016

 ------------------
 #p CCSD(T)/cc-pVTZ
 ------------------

 ------------
 H2O_H2O_2599
 ------------
 Symbolic Z-matrix:
 Charge =  0 Multiplicity = 1

                         Standard orientation:
 ---------------------------------------------------------------------
 Center     Atomic      Atomic             Coordinates (Angstroms)
 Number     Number       Type             X           Y           Z
 ---------------------------------------------------------------------
      1          8           0        0.057243   -2.111183    0.000000
      2          1           0       -0.743621   -2.680500    0.000000
      3          1           0        0.855516   -2.684127    0.000000
      4          8           0        0.057243    2.225150    0.000000
      5          1           0       -0.512075    3.026014    0.000000
      6          1           0       -0.515701    1.426876    0.000000
 ---------------------------------------------------------------------

 SCF Done:  E(RHF) =  -152.108625468     A.U. after   10 cycles
 E2 =    -0.5260279931D+00 EUMP2 =    -0.15263465346095D+03
 CCSD(T)
 CCSD(T)= -0.15266182163D+03

 The electronic state is 1-A'.
 Alpha  occ. eigenvalues --  -20.56078 -20.54494  -1.33358  -1.31798  -0.70763
 Alpha  occ. eigenvalues --   -0.69174  -0.56843  -0.55267  -0.50479  -0.48924
 Alpha virt. eigenvalues --    0.12972   0.15761   0.19814   0.22294   0.53853
 Alpha virt. eigenvalues --    0.54913   0.56838   0.58396   0.66698   0.71649
 Alpha virt. eigenvalues --    0.78404   0.79356   0.79931   0.80472   0.82575

 Mulliken charges:
               1
     1  O   -0.509346
     2  H    0.252543
     3  H    0.259013
     4  O   -0.513399
     5  H    0.248553
     6  H    0.262636
 Sum of Mulliken charges =  -0.00000

 Dipole moment (field-independent basis, Debye):
    X=             -1.9457    Y=             -2.0655    Z=              0.0000  Tot=              2.8377
 Quadrupole moment (field-independent basis, Debye-Ang):
   XX=             -9.8614   YY=             -1.4307   ZZ=            -14.7167
   XY=             -4.5463   XZ=              0.0000   YZ=              0.0000

 Normal termination of Gaussian 16 at Fri Aug 26 14:13:00 2022.
