 Gaussian 16, Revision A.03,
 Gaussian 16:  ES64L-G16RevA.03 25-Dec-2016

 ------------------
 #p CCSD(T)/cc-pVTZ
 ------------------

 ------------
 H2O_H2O_3075
 ------------
 Symbolic Z-matrix:
 Charge =  0 Multiplicity = 1

                         Standard orientation:
 ---------------------------------------------------------------------
 Center     Atomic      Atomic             Coordinates (Angstroms)
 Number     Number       Type             X           Y           Z
 ---------------------------------------------------------------------
      1          8           0        0.000000   -0.000000    2.438996
      2          1           0        0.000000    0.799571    3.010128
      3          1           0       -0.000000   -0.799571    3.010128
      4          8           0        0.000000   -0.000000   -2.438996
      5          1           0       -0.000000   -0.799571   -3.010128
      6          1           0        0.000000    0.799571   -3.010128
 ---------------------------------------------------------------------

 SCF Done:  E(RHF) =  -152.106058046     A.U. after   10 cycles
 E2 =    -0.5260390269D+00 EUMP2 =    -0.15263209707314D+03
 CCSD(T)
 CCSD(T)= -0.15265934317D+03

 The electronic state is 1-AG.
 Alpha  occ. eigenvalues --  -20.54886 -20.54886  -1.32179  -1.32178  -0.69589
 Alpha  occ. eigenvalues --   -0.69588  -0.55580  -0.55539  -0.49282  -0.49278
 Alpha virt. eigenvalues --    0.14434   0.14916   0.20609   0.20758   0.54851
 Alpha virt. eigenvalues --    0.55121   0.57751   0.57824   0.67182   0.70251
 Alpha virt. eigenvalues --    0.79565   0.79625   0.81005   0.81103   0.82635

 Mulliken charges:
               1
     1  O   -0.500916
     2  H    0.250458
     3  H    0.250458
     4  O   -0.500916
     5  H    0.250458
     6  H    0.250458
 Sum of Mulliken charges =   0.00000

 Dipole moment (field-independent basis, Debye):
    X=             -0.0000    Y=              0.0000    Z=             -0.0000  Tot=              0.0000
 Quadrupole moment (field-independent basis, Debye-Ang):
   XX=            -14.7097   YY=             -7.8163   ZZ=              7.4405
   XY=              0.0000   XZ=              0.0000   YZ=             -0.0000

 MP4DQ=-152.6412153\MP4SDQ=-152.644283\CCSD=-152.6436917\CCSD(T)=-152.6
 Normal termination of Gaussian 16 at Fri Aug 26 19:10:58 2022.
