 Gaussian 16, Revision A.03,
 Gaussian 16:  ES64L-G16RevA.03 25-Dec-2016

 ------------------
 #p CCSD(T)/cc-pVTZ
 ------------------

 ------------
 H2O_H2O_1741
 ------------
 Symbolic Z-matrix:
 Charge =  0 Multiplicity = 1

                         Standard orientation:
 ---------------------------------------------------------------------
 Center     Atomic      Atomic             Coordinates (Angstroms)
 Number     Number       Type             X           Y           Z
 ---------------------------------------------------------------------
      1          8           0        0.049532   -1.690130    0.000000
      2          1           0       -0.751452   -2.259279    0.000000
      3          1           0        0.847686   -2.263241    0.000000
      4          8           0        0.049532    1.746998    0.000000
      5          1           0       -0.042873    2.725245    0.000000
      6          1           0       -0.845873    1.342331    0.000000
 ---------------------------------------------------------------------

 SCF Done:  E(RHF) =  -152.106512703     A.U. after   10 cycles
 E2 =    -0.5266556754D+00 EUMP2 =    -0.15263316837795D+03
 CCSD(T)
 CCSD(T)= -0.15266035491D+03

 The electronic state is 1-A'.
 Alpha  occ. eigenvalues --  -20.55312 -20.54062  -1.32589  -1.31328  -0.70008
 Alpha  occ. eigenvalues --   -0.68706  -0.56007  -0.54651  -0.49700  -0.48443
 Alpha virt. eigenvalues --    0.13558   0.16416   0.20101   0.22577   0.53990
 Alpha virt. eigenvalues --    0.54709   0.57431   0.58551   0.64649   0.76522
 Alpha virt. eigenvalues --    0.78209   0.78412   0.78925   0.81162   0.85015

 Mulliken charges:
               1
     1  O   -0.492344
     2  H    0.242324
     3  H    0.253185
     4  O   -0.497378
     5  H    0.238695
     6  H    0.255520
 Sum of Mulliken charges =  -0.00000

 Dipole moment (field-independent basis, Debye):
    X=             -1.6474    Y=             -1.0655    Z=              0.0000  Tot=              1.9619
 Quadrupole moment (field-independent basis, Debye-Ang):
   XX=             -9.3635   YY=             -0.3789   ZZ=            -14.7151
   XY=             -2.3031   XZ=              0.0000   YZ=              0.0000

 Normal termination of Gaussian 16 at Sat Aug 27 06:31:39 2022.
