 Gaussian 16, Revision A.03,
 Gaussian 16:  ES64L-G16RevA.03 25-Dec-2016

 ------------------
 #p CCSD(T)/cc-pVTZ
 ------------------

 ------------
 H2O_H2O_1599
 ------------
 Symbolic Z-matrix:
 Charge =  0 Multiplicity = 1

                         Standard orientation:
 ---------------------------------------------------------------------
 Center     Atomic      Atomic             Coordinates (Angstroms)
 Number     Number       Type             X           Y           Z
 ---------------------------------------------------------------------
      1          8           0        0.057285   -1.579391    0.000000
      2          1           0       -0.743999   -2.148118    0.000000
      3          1           0        0.855136   -2.152922    0.000000
      4          8           0        0.057285    1.693273    0.000000
      5          1           0       -0.511442    2.494558    0.000000
      6          1           0       -0.516247    0.895422    0.000000
 ---------------------------------------------------------------------

 SCF Done:  E(RHF) =  -152.110089101     A.U. after   10 cycles
 E2 =    -0.5268997020D+00 EUMP2 =    -0.15263698880306D+03
 CCSD(T)
 CCSD(T)= -0.15266407641D+03

 The electronic state is 1-A'.
 Alpha  occ. eigenvalues --  -20.56623 -20.53500  -1.33901  -1.30828  -0.71294
 Alpha  occ. eigenvalues --   -0.68269  -0.57382  -0.54323  -0.51024  -0.47966
 Alpha virt. eigenvalues --    0.12867   0.17028   0.19556   0.25507   0.52248
 Alpha virt. eigenvalues --    0.55672   0.56646   0.58147   0.68057   0.75202
 Alpha virt. eigenvalues --    0.76175   0.76626   0.80859   0.81361   0.84019

 Mulliken charges:
               1
     1  O   -0.496958
     2  H    0.247972
     3  H    0.260638
     4  O   -0.518743
     5  H    0.240937
     6  H    0.266153
 Sum of Mulliken charges =  -0.00000

 Dipole moment (field-independent basis, Debye):
    X=             -1.8986    Y=             -2.2079    Z=              0.0000  Tot=              2.9120
 Quadrupole moment (field-independent basis, Debye-Ang):
   XX=             -9.8599   YY=             -3.6389   ZZ=            -14.7255
   XY=             -3.5341   XZ=              0.0000   YZ=              0.0000

 Normal termination of Gaussian 16 at Sat Aug 27 05:41:47 2022.
