 Gaussian 16, Revision A.03,
 Gaussian 16:  ES64L-G16RevA.03 25-Dec-2016

 ------------------
 #p CCSD(T)/cc-pVTZ
 ------------------

 ------------
 H2O_H2O_3363
 ------------
 Symbolic Z-matrix:
 Charge =  0 Multiplicity = 1

                         Standard orientation:
 ---------------------------------------------------------------------
 Center     Atomic      Atomic             Coordinates (Angstroms)
 Number     Number       Type             X           Y           Z
 ---------------------------------------------------------------------
      1          8           0        0.042968   -2.564184    0.000000
      2          1           0       -0.757420   -3.134172    0.000000
      3          1           0        0.841721   -3.136460    0.000000
      4          8           0        0.042968    2.602973    0.000000
      5          1           0        0.142161    3.580555    0.000000
      6          1           0       -0.913947    2.379766    0.000000
 ---------------------------------------------------------------------

 SCF Done:  E(RHF) =  -152.106827250     A.U. after   10 cycles
 E2 =    -0.5259623988D+00 EUMP2 =    -0.15263278964929D+03
 CCSD(T)
 CCSD(T)= -0.15266001988D+03

 The electronic state is 1-A'.
 Alpha  occ. eigenvalues --  -20.55278 -20.54936  -1.32574  -1.32229  -0.69982
 Alpha  occ. eigenvalues --   -0.69628  -0.55993  -0.55649  -0.49681  -0.49338
 Alpha virt. eigenvalues --    0.14172   0.14840   0.20353   0.20809   0.54539
 Alpha virt. eigenvalues --    0.54959   0.57450   0.57788   0.67605   0.69322
 Alpha virt. eigenvalues --    0.79198   0.79534   0.80612   0.80994   0.82692

 Mulliken charges:
               1
     1  O   -0.505467
     2  H    0.251021
     3  H    0.254469
     4  O   -0.505079
     5  H    0.249869
     6  H    0.255187
 Sum of Mulliken charges =  -0.00000

 Dipole moment (field-independent basis, Debye):
    X=             -1.4702    Y=             -0.6838    Z=              0.0000  Tot=              1.6215
 Quadrupole moment (field-independent basis, Debye-Ang):
   XX=             -8.9671   YY=              6.2189   ZZ=            -14.7111
   XY=             -3.0021   XZ=              0.0000   YZ=              0.0000

 Normal termination of Gaussian 16 at Fri Aug 26 21:42:37 2022.
