 Gaussian 16, Revision A.03,
 Gaussian 16:  ES64L-G16RevA.03 25-Dec-2016

 ------------------
 #p CCSD(T)/cc-pVTZ
 ------------------

 ------------
 H2O_H2O_2204
 ------------
 Symbolic Z-matrix:
 Charge =  0 Multiplicity = 1

                         Standard orientation:
 ---------------------------------------------------------------------
 Center     Atomic      Atomic             Coordinates (Angstroms)
 Number     Number       Type             X           Y           Z
 ---------------------------------------------------------------------
      1          8           0        0.014783   -1.971535    0.000000
      2          1           0       -0.785156   -2.542152    0.000000
      3          1           0        0.813986   -2.543183    0.000000
      4          8           0        0.014783    1.975408    0.000000
      5          1           0        0.639779    2.733621    0.000000
      6          1           0       -0.905141    2.320729    0.000000
 ---------------------------------------------------------------------

 SCF Done:  E(RHF) =  -152.105124008     A.U. after   10 cycles
 E2 =    -0.5263174061D+00 EUMP2 =    -0.15263144141436D+03
 CCSD(T)
 CCSD(T)= -0.15265868841D+03

 The electronic state is 1-A'.
 Alpha  occ. eigenvalues --  -20.54589 -20.54529  -1.31873  -1.31810  -0.69291
 Alpha  occ. eigenvalues --   -0.69225  -0.55362  -0.54954  -0.48979  -0.48898
 Alpha virt. eigenvalues --    0.14172   0.15669   0.20604   0.21163   0.54188
 Alpha virt. eigenvalues --    0.56182   0.57899   0.58176   0.62289   0.74833
 Alpha virt. eigenvalues --    0.79485   0.80355   0.80586   0.81210   0.82197

 Mulliken charges:
               1
     1  O   -0.493829
     2  H    0.245735
     3  H    0.248155
     4  O   -0.493731
     5  H    0.245370
     6  H    0.248300
 Sum of Mulliken charges =  -0.00000

 Dipole moment (field-independent basis, Debye):
    X=             -0.4991    Y=             -0.0704    Z=              0.0000  Tot=              0.5040
 Quadrupole moment (field-independent basis, Debye-Ang):
   XX=             -7.9730   YY=              3.5040   ZZ=            -14.7095
   XY=             -0.5678   XZ=              0.0000   YZ=              0.0000

 Normal termination of Gaussian 16 at Sat Aug 27 09:11:56 2022.
