 Gaussian 16, Revision A.03,
 Gaussian 16:  ES64L-G16RevA.03 25-Dec-2016

 ------------------
 #p CCSD(T)/cc-pVTZ
 ------------------

 ---------
 H2O_H2O_0
 ---------
 Symbolic Z-matrix:
 Charge =  0 Multiplicity = 1

                         Standard orientation:
 ---------------------------------------------------------------------
 Center     Atomic      Atomic             Coordinates (Angstroms)
 Number     Number       Type             X           Y           Z
 ---------------------------------------------------------------------
      1          8           0        0.000000   -0.000000    0.803599
      2          1           0        0.000000    0.799571    1.374731
      3          1           0       -0.000000   -0.799571    1.374731
      4          8           0        0.000000   -0.000000   -0.803599
      5          1           0       -0.000000   -0.799571   -1.374731
      6          1           0        0.000000    0.799571   -1.374731
 ---------------------------------------------------------------------

 SCF Done:  E(RHF) =  -151.903787226     A.U. after   11 cycles
 E2 =    -0.5541481494D+00 EUMP2 =    -0.15245793537525D+03
 CCSD(T)
 CCSD(T)= -0.15248172733D+03

 The electronic state is 1-AG.
 Alpha  occ. eigenvalues --  -20.51564 -20.51564  -1.37562  -1.26925  -0.71393
 Alpha  occ. eigenvalues --   -0.69435  -0.65484  -0.53510  -0.43125  -0.31267
 Alpha virt. eigenvalues --    0.14348   0.19585   0.20127   0.22984   0.50336
 Alpha virt. eigenvalues --    0.58646   0.59176   0.66092   0.67988   0.79116
 Alpha virt. eigenvalues --    0.81138   0.83853   0.84037   0.85650   0.87929

 Mulliken charges:
               1
     1  O   -0.322492
     2  H    0.161246
     3  H    0.161246
     4  O   -0.322492
     5  H    0.161246
     6  H    0.161246
 Sum of Mulliken charges =   0.00000

 Dipole moment (field-independent basis, Debye):
    X=             -0.0000    Y=              0.0000    Z=             -0.0000  Tot=              0.0000
 Quadrupole moment (field-independent basis, Debye-Ang):
   XX=            -14.7945   YY=             -8.6506   ZZ=             -9.5744
   XY=              0.0000   XZ=              0.0000   YZ=              0.0000

 P4DQ=-152.4596606\MP4SDQ=-152.4642354\CCSD=-152.4626807\CCSD(T)=-152.4
 Normal termination of Gaussian 16 at Fri Aug 26 11:46:30 2022.
