 Gaussian 16, Revision A.03,
 Gaussian 16:  ES64L-G16RevA.03 25-Dec-2016

 ------------------
 #p CCSD(T)/cc-pVTZ
 ------------------

 -----------
 H2O_H2O_859
 -----------
 Symbolic Z-matrix:
 Charge =  0 Multiplicity = 1

                         Standard orientation:
 ---------------------------------------------------------------------
 Center     Atomic      Atomic             Coordinates (Angstroms)
 Number     Number       Type             X           Y           Z
 ---------------------------------------------------------------------
      1          8           0        0.031751   -1.245278    0.000000
      2          1           0       -0.769061   -1.814668    0.000000
      3          1           0        0.830077   -1.818149    0.000000
      4          8           0        0.031751    1.264391    0.000000
      5          1           0        0.381266    2.182729    0.000000
      6          1           0       -0.950303    1.297189    0.000000
 ---------------------------------------------------------------------

 SCF Done:  E(RHF) =  -152.094834333     A.U. after   11 cycles
 E2 =    -0.5291523812D+00 EUMP2 =    -0.15262398671448D+03
 CCSD(T)
 CCSD(T)= -0.15265124429D+03

 The electronic state is 1-A'.
 Alpha  occ. eigenvalues --  -20.53674 -20.53085  -1.31413  -1.30263  -0.68748
 Alpha  occ. eigenvalues --   -0.67858  -0.56773  -0.50874  -0.48670  -0.47096
 Alpha virt. eigenvalues --    0.14289   0.17348   0.20416   0.22729   0.52281
 Alpha virt. eigenvalues --    0.58406   0.58556   0.61600   0.70581   0.76326
 Alpha virt. eigenvalues --    0.76957   0.79185   0.83677   0.85304   0.86069

 Mulliken charges:
               1
     1  O   -0.467342
     2  H    0.226308
     3  H    0.240234
     4  O   -0.453077
     5  H    0.215619
     6  H    0.238260
 Sum of Mulliken charges =  -0.00000

 Dipole moment (field-independent basis, Debye):
    X=             -0.9942    Y=             -0.3712    Z=              0.0000  Tot=              1.0613
 Quadrupole moment (field-independent basis, Debye-Ang):
   XX=             -8.5785   YY=             -2.9624   ZZ=            -14.7236
   XY=             -0.6308   XZ=              0.0000   YZ=              0.0000

 Normal termination of Gaussian 16 at Fri Aug 26 20:38:25 2022.
