 Gaussian 16, Revision A.03,
 Gaussian 16:  ES64L-G16RevA.03 25-Dec-2016

 ------------------
 #p CCSD(T)/cc-pVTZ
 ------------------

 -----------
 H2O_H2O_523
 -----------
 Symbolic Z-matrix:
 Charge =  0 Multiplicity = 1

                         Standard orientation:
 ---------------------------------------------------------------------
 Center     Atomic      Atomic             Coordinates (Angstroms)
 Number     Number       Type             X           Y           Z
 ---------------------------------------------------------------------
      1          8           0        0.057236   -1.011819    0.000000
      2          1           0       -0.744957   -1.579261    0.000000
      3          1           0        0.854168   -1.586628    0.000000
      4          8           0        0.057236    1.118048    0.000000
      5          1           0       -0.456526    1.955637    0.000000
      6          1           0       -0.568465    0.360417    0.000000
 ---------------------------------------------------------------------

 SCF Done:  E(RHF) =  -152.069334292     A.U. after   11 cycles
 E2 =    -0.5353873451D+00 EUMP2 =    -0.15260472163759D+03
 CCSD(T)
 CCSD(T)= -0.15263106997D+03

 The electronic state is 1-A'.
 Alpha  occ. eigenvalues --  -20.57005 -20.49837  -1.36471  -1.27752  -0.73892
 Alpha  occ. eigenvalues --   -0.70289  -0.52990  -0.52885  -0.51581  -0.44708
 Alpha virt. eigenvalues --    0.12802   0.18718   0.19357   0.27279   0.49453
 Alpha virt. eigenvalues --    0.54921   0.62181   0.66078   0.71940   0.74149
 Alpha virt. eigenvalues --    0.77302   0.81045   0.83626   0.84977   0.87341

 Mulliken charges:
               1
     1  O   -0.398621
     2  H    0.213002
     3  H    0.242974
     4  O   -0.518594
     5  H    0.196821
     6  H    0.264418
 Sum of Mulliken charges =  -0.00000

 Dipole moment (field-independent basis, Debye):
    X=             -1.6954    Y=             -2.5003    Z=              0.0000  Tot=              3.0209
 Quadrupole moment (field-independent basis, Debye-Ang):
   XX=             -9.8353   YY=             -6.6109   ZZ=            -14.6631
   XY=             -2.3077   XZ=              0.0000   YZ=              0.0000

 Normal termination of Gaussian 16 at Fri Aug 26 17:18:59 2022.
