 Gaussian 16, Revision A.03,
 Gaussian 16:  ES64L-G16RevA.03 25-Dec-2016

 ------------------
 #p CCSD(T)/cc-pVTZ
 ------------------

 -----------
 H2O_H2O_962
 -----------
 Symbolic Z-matrix:
 Charge =  0 Multiplicity = 1

                         Standard orientation:
 ---------------------------------------------------------------------
 Center     Atomic      Atomic             Coordinates (Angstroms)
 Number     Number       Type             X           Y           Z
 ---------------------------------------------------------------------
      1          8           0        0.040429   -1.290788    0.000000
      2          1           0       -0.760657   -1.859791    0.000000
      3          1           0        0.838479   -1.864044    0.000000
      4          8           0        0.040429    1.324029    0.000000
      5          1           0        0.204537    2.292830    0.000000
      6          1           0       -0.929231    1.165076    0.000000
 ---------------------------------------------------------------------

 SCF Done:  E(RHF) =  -152.098956311     A.U. after   11 cycles
 E2 =    -0.5286224556D+00 EUMP2 =    -0.15262757876631D+03
 CCSD(T)
 CCSD(T)= -0.15265481479D+03

 The electronic state is 1-A'.
 Alpha  occ. eigenvalues --  -20.54263 -20.53224  -1.31805  -1.30447  -0.69197
 Alpha  occ. eigenvalues --   -0.68008  -0.56343  -0.52080  -0.48997  -0.47395
 Alpha virt. eigenvalues --    0.14071   0.17230   0.20268   0.22965   0.53194
 Alpha virt. eigenvalues --    0.58028   0.58245   0.60055   0.70062   0.76131
 Alpha virt. eigenvalues --    0.77014   0.77746   0.83309   0.83459   0.85674

 Mulliken charges:
               1
     1  O   -0.472266
     2  H    0.229121
     3  H    0.244901
     4  O   -0.462325
     5  H    0.217700
     6  H    0.242869
 Sum of Mulliken charges =   0.00000

 Dipole moment (field-independent basis, Debye):
    X=             -1.2788    Y=             -0.6455    Z=              0.0000  Tot=              1.4324
 Quadrupole moment (field-independent basis, Debye-Ang):
   XX=             -8.9320   YY=             -2.6984   ZZ=            -14.7214
   XY=             -1.0421   XZ=              0.0000   YZ=              0.0000

 Normal termination of Gaussian 16 at Fri Aug 26 21:33:19 2022.
