 Gaussian 16, Revision A.03,
 Gaussian 16:  ES64L-G16RevA.03 25-Dec-2016

 ------------------
 #p CCSD(T)/cc-pVTZ
 ------------------

 ------------
 H2O_H2O_3791
 ------------
 Symbolic Z-matrix:
 Charge =  0 Multiplicity = 1

                         Standard orientation:
 ---------------------------------------------------------------------
 Center     Atomic      Atomic             Coordinates (Angstroms)
 Number     Number       Type             X           Y           Z
 ---------------------------------------------------------------------
      1          8           0        0.049505   -2.780345    0.000000
      2          1           0       -0.750931   -3.350264    0.000000
      3          1           0        0.848209   -3.352688    0.000000
      4          8           0        0.049505    2.837308    0.000000
      5          1           0       -0.043842    3.815465    0.000000
      6          1           0       -0.845511    2.431780    0.000000
 ---------------------------------------------------------------------

 SCF Done:  E(RHF) =  -152.107175741     A.U. after   10 cycles
 E2 =    -0.5259154640D+00 EUMP2 =    -0.15263309120522D+03
 CCSD(T)
 CCSD(T)= -0.15266031516D+03

 The electronic state is 1-A'.
 Alpha  occ. eigenvalues --  -20.55455 -20.55032  -1.32753  -1.32327  -0.70160
 Alpha  occ. eigenvalues --   -0.69725  -0.56189  -0.55763  -0.49862  -0.49439
 Alpha virt. eigenvalues --    0.14124   0.14685   0.20249   0.20736   0.54393
 Alpha virt. eigenvalues --    0.54854   0.57301   0.57723   0.67821   0.68666
 Alpha virt. eigenvalues --    0.79018   0.79433   0.80448   0.80866   0.82463

 Mulliken charges:
               1
     1  O   -0.507536
     2  H    0.252218
     3  H    0.255327
     4  O   -0.507184
     5  H    0.250943
     6  H    0.256231
 Sum of Mulliken charges =  -0.00000

 Dipole moment (field-independent basis, Debye):
    X=             -1.6978    Y=             -1.0001    Z=              0.0000  Tot=              1.9705
 Quadrupole moment (field-independent basis, Debye-Ang):
   XX=             -9.3456   YY=              6.2948   ZZ=            -14.7117
   XY=             -4.1204   XZ=              0.0000   YZ=              0.0000

 Normal termination of Gaussian 16 at Sat Aug 27 03:21:09 2022.
