 Gaussian 16, Revision A.03,
 Gaussian 16:  ES64L-G16RevA.03 25-Dec-2016

 ------------------
 #p CCSD(T)/cc-pVTZ
 ------------------

 ------------
 H2O_H2O_1156
 ------------
 Symbolic Z-matrix:
 Charge =  0 Multiplicity = 1

                         Standard orientation:
 ---------------------------------------------------------------------
 Center     Atomic      Atomic             Coordinates (Angstroms)
 Number     Number       Type             X           Y           Z
 ---------------------------------------------------------------------
      1          8           0        0.021862   -1.410519    0.000000
      2          1           0       -0.778468   -1.980588    0.000000
      3          1           0        0.820673   -1.982714    0.000000
      4          8           0        0.021862    1.419156    0.000000
      5          1           0        0.543115    2.252104    0.000000
      6          1           0       -0.935112    1.642103    0.000000
 ---------------------------------------------------------------------

 SCF Done:  E(RHF) =  -152.100080351     A.U. after   11 cycles
 E2 =    -0.5278246753D+00 EUMP2 =    -0.15262790502670D+03
 CCSD(T)
 CCSD(T)= -0.15265520025D+03

 The electronic state is 1-A'.
 Alpha  occ. eigenvalues --  -20.53826 -20.53599  -1.31272  -1.30823  -0.68670
 Alpha  occ. eigenvalues --   -0.68295  -0.55937  -0.52389  -0.48491  -0.47746
 Alpha virt. eigenvalues --    0.14327   0.16942   0.20511   0.22151   0.51756
 Alpha virt. eigenvalues --    0.58426   0.58711   0.60393   0.68875   0.76509
 Alpha virt. eigenvalues --    0.77160   0.78360   0.79819   0.83173   0.86100

 Mulliken charges:
               1
     1  O   -0.471260
     2  H    0.231438
     3  H    0.239682
     4  O   -0.466287
     5  H    0.228891
     6  H    0.237537
 Sum of Mulliken charges =  -0.00000

 Dipole moment (field-independent basis, Debye):
    X=             -0.7062    Y=             -0.1643    Z=              0.0000  Tot=              0.7251
 Quadrupole moment (field-independent basis, Debye-Ang):
   XX=             -8.2111   YY=             -1.3458   ZZ=            -14.7140
   XY=             -0.4734   XZ=              0.0000   YZ=              0.0000

 Normal termination of Gaussian 16 at Sat Aug 27 02:34:30 2022.
