 Gaussian 16, Revision A.03,
 Gaussian 16:  ES64L-G16RevA.03 25-Dec-2016

 ------------------
 #p CCSD(T)/cc-pVTZ
 ------------------

 ------------
 H2O_H2O_1536
 ------------
 Symbolic Z-matrix:
 Charge =  0 Multiplicity = 1

                         Standard orientation:
 ---------------------------------------------------------------------
 Center     Atomic      Atomic             Coordinates (Angstroms)
 Number     Number       Type             X           Y           Z
 ---------------------------------------------------------------------
      1          8           0        0.037686   -1.599335    0.000000
      2          1           0       -0.763031   -2.168860    0.000000
      3          1           0        0.836108   -2.172072    0.000000
      4          8           0        0.037686    1.627530    0.000000
      5          1           0        0.264183    2.583670    0.000000
      6          1           0       -0.940233    1.531700    0.000000
 ---------------------------------------------------------------------

 SCF Done:  E(RHF) =  -152.104400501     A.U. after   10 cycles
 E2 =    -0.5269722447D+00 EUMP2 =    -0.15263137274526D+03
 CCSD(T)
 CCSD(T)= -0.15265860417D+03

 The electronic state is 1-A'.
 Alpha  occ. eigenvalues --  -20.54644 -20.53992  -1.31935  -1.31249  -0.69361
 Alpha  occ. eigenvalues --   -0.68653  -0.55623  -0.54103  -0.49055  -0.48328
 Alpha virt. eigenvalues --    0.13962   0.16498   0.20348   0.22115   0.53208
 Alpha virt. eigenvalues --    0.56557   0.57929   0.58701   0.64581   0.76899
 Alpha virt. eigenvalues --    0.78079   0.78722   0.79124   0.81878   0.85532

 Mulliken charges:
               1
     1  O   -0.483819
     2  H    0.237675
     3  H    0.247653
     4  O   -0.483468
     5  H    0.234378
     6  H    0.247582
 Sum of Mulliken charges =  -0.00000

 Dipole moment (field-independent basis, Debye):
    X=             -1.2436    Y=             -0.5305    Z=              0.0000  Tot=              1.3520
 Quadrupole moment (field-independent basis, Debye-Ang):
   XX=             -8.7448   YY=             -0.1132   ZZ=            -14.7123
   XY=             -1.2834   XZ=              0.0000   YZ=              0.0000

 Normal termination of Gaussian 16 at Sat Aug 27 05:20:26 2022.
