 Gaussian 16, Revision A.03,
 Gaussian 16:  ES64L-G16RevA.03 25-Dec-2016

 ------------------
 #p CCSD(T)/cc-pVTZ
 ------------------

 ----------
 H2O_H2O_32
 ----------
 Symbolic Z-matrix:
 Charge =  0 Multiplicity = 1

                         Standard orientation:
 ---------------------------------------------------------------------
 Center     Atomic      Atomic             Coordinates (Angstroms)
 Number     Number       Type             X           Y           Z
 ---------------------------------------------------------------------
      1          8           0        0.025276   -0.810568    0.000000
      2          1           0       -0.775813   -1.379569    0.000000
      3          1           0        0.823323   -1.383828    0.000000
      4          8           0        0.025276    0.822214    0.000000
      5          1           0        0.492089    1.686847    0.000000
      6          1           0       -0.944017    0.983387    0.000000
 ---------------------------------------------------------------------

 SCF Done:  E(RHF) =  -151.927856017     A.U. after   12 cycles
 E2 =    -0.5507711016D+00 EUMP2 =    -0.15247862711859D+03
 CCSD(T)
 CCSD(T)= -0.15250310544D+03

 The electronic state is 1-A'.
 Alpha  occ. eigenvalues --  -20.51857 -20.51511  -1.37205  -1.26846  -0.72195
 Alpha  occ. eigenvalues --   -0.69128  -0.63423  -0.53154  -0.43216  -0.33791
 Alpha virt. eigenvalues --    0.14236   0.19344   0.19901   0.23342   0.52500
 Alpha virt. eigenvalues --    0.56594   0.58921   0.65720   0.70420   0.78598
 Alpha virt. eigenvalues --    0.79910   0.83238   0.83320   0.85088   0.88658

 Mulliken charges:
               1
     1  O   -0.346865
     2  H    0.163169
     3  H    0.185609
     4  O   -0.329714
     5  H    0.111113
     6  H    0.216688
 Sum of Mulliken charges =   0.00000

 Dipole moment (field-independent basis, Debye):
    X=             -0.7087    Y=             -0.3162    Z=              0.0000  Tot=              0.7761
 Quadrupole moment (field-independent basis, Debye-Ang):
   XX=             -8.7740   YY=             -9.1163   ZZ=            -14.7359
   XY=             -0.3734   XZ=              0.0000   YZ=              0.0000

 Normal termination of Gaussian 16 at Fri Aug 26 12:06:48 2022.
