 Gaussian 16, Revision A.03,
 Gaussian 16:  ES64L-G16RevA.03 25-Dec-2016

 ------------------
 #p CCSD(T)/cc-pVTZ
 ------------------

 -----------
 H2O_H2O_867
 -----------
 Symbolic Z-matrix:
 Charge =  0 Multiplicity = 1

                         Standard orientation:
 ---------------------------------------------------------------------
 Center     Atomic      Atomic             Coordinates (Angstroms)
 Number     Number       Type             X           Y           Z
 ---------------------------------------------------------------------
      1          8           0        0.051335   -1.221254    0.000000
      2          1           0       -0.750241   -1.789568    0.000000
      3          1           0        0.848891   -1.795196    0.000000
      4          8           0        0.051335    1.284598    0.000000
      5          1           0       -0.103842    2.254869    0.000000
      6          1           0       -0.816168    0.823139    0.000000
 ---------------------------------------------------------------------

 SCF Done:  E(RHF) =  -152.098904027     A.U. after   11 cycles
 E2 =    -0.5294019076D+00 EUMP2 =    -0.15262830593444D+03
 CCSD(T)
 CCSD(T)= -0.15265543773D+03

 The electronic state is 1-A'.
 Alpha  occ. eigenvalues --  -20.55141 -20.52769  -1.32824  -1.30020  -0.70218
 Alpha  occ. eigenvalues --   -0.67982  -0.56178  -0.52584  -0.49941  -0.47028
 Alpha virt. eigenvalues --    0.13650   0.17625   0.19926   0.24061   0.52740
 Alpha virt. eigenvalues --    0.57282   0.59052   0.59780   0.71049   0.74857
 Alpha virt. eigenvalues --    0.77384   0.81538   0.82978   0.84167   0.84847

 Mulliken charges:
               1
     1  O   -0.469408
     2  H    0.230008
     3  H    0.248622
     4  O   -0.475027
     5  H    0.214632
     6  H    0.251173
 Sum of Mulliken charges =  -0.00000

 Dipole moment (field-independent basis, Debye):
    X=             -1.6051    Y=             -1.2652    Z=              0.0000  Tot=              2.0438
 Quadrupole moment (field-independent basis, Debye-Ang):
   XX=             -9.5201   YY=             -3.8101   ZZ=            -14.7241
   XY=             -1.7149   XZ=              0.0000   YZ=              0.0000

 Normal termination of Gaussian 16 at Fri Aug 26 20:42:30 2022.
