 Gaussian 16, Revision A.03,
 Gaussian 16:  ES64L-G16RevA.03 25-Dec-2016

 ------------------
 #p CCSD(T)/cc-pVTZ
 ------------------

 -----------
 H2O_H2O_116
 -----------
 Symbolic Z-matrix:
 Charge =  0 Multiplicity = 1

                         Standard orientation:
 ---------------------------------------------------------------------
 Center     Atomic      Atomic             Coordinates (Angstroms)
 Number     Number       Type             X           Y           Z
 ---------------------------------------------------------------------
      1          8           0        0.049603   -0.826025    0.000000
      2          1           0       -0.752804   -1.393165    0.000000
      3          1           0        0.846318   -1.401135    0.000000
      4          8           0        0.049603    0.882644    0.000000
      5          1           0       -0.040350    1.861121    0.000000
      6          1           0       -0.846814    0.480224    0.000000
 ---------------------------------------------------------------------

 SCF Done:  E(RHF) =  -151.966017730     A.U. after   11 cycles
 E2 =    -0.5460740029D+00 EUMP2 =    -0.15251209173262D+03
 CCSD(T)
 CCSD(T)= -0.15253758905D+03

 The electronic state is 1-A'.
 Alpha  occ. eigenvalues --  -20.53545 -20.50867  -1.37705  -1.26827  -0.74594
 Alpha  occ. eigenvalues --   -0.70290  -0.56491  -0.53181  -0.43690  -0.40967
 Alpha virt. eigenvalues --    0.13765   0.19019   0.19664   0.24319   0.51895
 Alpha virt. eigenvalues --    0.56354   0.59575   0.65898   0.73199   0.76918
 Alpha virt. eigenvalues --    0.80861   0.81307   0.83465   0.83982   0.88856

 Mulliken charges:
               1
     1  O   -0.347101
     2  H    0.161580
     3  H    0.203275
     4  O   -0.377075
     5  H    0.119082
     6  H    0.240239
 Sum of Mulliken charges =  -0.00000

 Dipole moment (field-independent basis, Debye):
    X=             -1.3189    Y=             -1.2801    Z=              0.0000  Tot=              1.8380
 Quadrupole moment (field-independent basis, Debye-Ang):
   XX=             -9.5348   YY=             -8.2036   ZZ=            -14.6293
   XY=             -0.9000   XZ=              0.0000   YZ=              0.0000

 Normal termination of Gaussian 16 at Fri Aug 26 12:54:47 2022.
