 Gaussian 16, Revision A.03,
 Gaussian 16:  ES64L-G16RevA.03 25-Dec-2016

 ------------------
 #p CCSD(T)/cc-pVTZ
 ------------------

 ------------
 H2O_H2O_2002
 ------------
 Symbolic Z-matrix:
 Charge =  0 Multiplicity = 1

                         Standard orientation:
 ---------------------------------------------------------------------
 Center     Atomic      Atomic             Coordinates (Angstroms)
 Number     Number       Type             X           Y           Z
 ---------------------------------------------------------------------
      1          8           0        0.007455   -1.866744    0.000000
      2          1           0       -0.792312   -2.437601    0.000000
      3          1           0        0.806830   -2.438150    0.000000
      4          8           0        0.007455    1.867716    0.000000
      5          1           0        0.725868    2.538080    0.000000
      6          1           0       -0.859665    2.329895    0.000000
 ---------------------------------------------------------------------

 SCF Done:  E(RHF) =  -152.104628525     A.U. after   10 cycles
 E2 =    -0.5264618344D+00 EUMP2 =    -0.15263109035933D+03
 CCSD(T)
 CCSD(T)= -0.15265834103D+03

 The electronic state is 1-A'.
 Alpha  occ. eigenvalues --  -20.54438 -20.54421  -1.31726  -1.31691  -0.69147
 Alpha  occ. eigenvalues --   -0.69113  -0.55316  -0.54669  -0.48850  -0.48757
 Alpha virt. eigenvalues --    0.14203   0.15868   0.20620   0.21270   0.53899
 Alpha virt. eigenvalues --    0.56845   0.57948   0.58290   0.61196   0.75500
 Alpha virt. eigenvalues --    0.79326   0.80203   0.80739   0.80766   0.82816

 Mulliken charges:
               1
     1  O   -0.489858
     2  H    0.244244
     3  H    0.245639
     4  O   -0.489846
     5  H    0.244091
     6  H    0.245730
 Sum of Mulliken charges =  -0.00000

 Dipole moment (field-independent basis, Debye):
    X=             -0.2506    Y=             -0.0179    Z=              0.0000  Tot=              0.2512
 Quadrupole moment (field-independent basis, Debye-Ang):
   XX=             -7.8807   YY=              2.7232   ZZ=            -14.7091
   XY=             -0.2533   XZ=              0.0000   YZ=              0.0000

 Normal termination of Gaussian 16 at Sat Aug 27 08:02:30 2022.
