 Gaussian 16, Revision A.03,
 Gaussian 16:  ES64L-G16RevA.03 25-Dec-2016

 ------------------
 #p CCSD(T)/cc-pVTZ
 ------------------

 -----------
 H2O_H2O_719
 -----------
 Symbolic Z-matrix:
 Charge =  0 Multiplicity = 1

                         Standard orientation:
 ---------------------------------------------------------------------
 Center     Atomic      Atomic             Coordinates (Angstroms)
 Number     Number       Type             X           Y           Z
 ---------------------------------------------------------------------
      1          8           0        0.054236   -1.134018    0.000000
      2          1           0       -0.747597   -1.701970    0.000000
      3          1           0        0.851533   -1.708320    0.000000
      4          8           0        0.054236    1.211097    0.000000
      5          1           0       -0.225836    2.152939    0.000000
      6          1           0       -0.745871    0.640715    0.000000
 ---------------------------------------------------------------------

 SCF Done:  E(RHF) =  -152.092865579     A.U. after   11 cycles
 E2 =    -0.5310333268D+00 EUMP2 =    -0.15262389890585D+03
 CCSD(T)
 CCSD(T)= -0.15265089314D+03

 The electronic state is 1-A'.
 Alpha  occ. eigenvalues --  -20.55532 -20.52110  -1.33624  -1.29426  -0.71001
 Alpha  occ. eigenvalues --   -0.68279  -0.55678  -0.52280  -0.50636  -0.46421
 Alpha virt. eigenvalues --    0.13453   0.18072   0.19707   0.24914   0.51721
 Alpha virt. eigenvalues --    0.56736   0.60171   0.61308   0.71567   0.74263
 Alpha virt. eigenvalues --    0.77865   0.82856   0.84039   0.84234   0.87391

 Mulliken charges:
               1
     1  O   -0.453326
     2  H    0.224828
     3  H    0.244944
     4  O   -0.478351
     5  H    0.207501
     6  H    0.254403
 Sum of Mulliken charges =  -0.00000

 Dipole moment (field-independent basis, Debye):
    X=             -1.6638    Y=             -1.5956    Z=              0.0000  Tot=              2.3053
 Quadrupole moment (field-independent basis, Debye-Ang):
   XX=             -9.6950   YY=             -4.8159   ZZ=            -14.7167
   XY=             -1.9008   XZ=              0.0000   YZ=              0.0000

 Normal termination of Gaussian 16 at Fri Aug 26 19:24:08 2022.
