 Gaussian 16, Revision A.03,
 Gaussian 16:  ES64L-G16RevA.03 25-Dec-2016

 ------------------
 #p CCSD(T)/cc-pVTZ
 ------------------

 ------------
 H2O_H2O_4410
 ------------
 Symbolic Z-matrix:
 Charge =  0 Multiplicity = 1

                         Standard orientation:
 ---------------------------------------------------------------------
 Center     Atomic      Atomic             Coordinates (Angstroms)
 Number     Number       Type             X           Y           Z
 ---------------------------------------------------------------------
      1          8           0        0.034780   -3.130895    0.000000
      2          1           0       -0.765335   -3.701266    0.000000
      3          1           0        0.833806   -3.702789    0.000000
      4          8           0        0.034780    3.154434    0.000000
      5          1           0        0.322334    4.094018    0.000000
      6          1           0       -0.947278    3.121730    0.000000
 ---------------------------------------------------------------------

 SCF Done:  E(RHF) =  -152.106988390     A.U. after   10 cycles
 E2 =    -0.5259166050D+00 EUMP2 =    -0.15263290499474D+03
 CCSD(T)
 CCSD(T)= -0.15266013401D+03

 The electronic state is 1-A'.
 Alpha  occ. eigenvalues --  -20.55310 -20.55173  -1.32607  -1.32469  -0.70014
 Alpha  occ. eigenvalues --   -0.69873  -0.56035  -0.55897  -0.49716  -0.49578
 Alpha virt. eigenvalues --    0.14327   0.14473   0.20384   0.20529   0.54552
 Alpha virt. eigenvalues --    0.54702   0.57434   0.57572   0.68175   0.68338
 Alpha virt. eigenvalues --    0.79164   0.79300   0.80603   0.80754   0.82531

 Mulliken charges:
               1
     1  O   -0.506400
     2  H    0.252401
     3  H    0.254000
     4  O   -0.506281
     5  H    0.251928
     6  H    0.254354
 Sum of Mulliken charges =  -0.00000

 Dipole moment (field-independent basis, Debye):
    X=             -1.1950    Y=             -0.4110    Z=              0.0000  Tot=              1.2637
 Quadrupole moment (field-independent basis, Debye-Ang):
   XX=             -8.5642   YY=             11.2468   ZZ=            -14.7111
   XY=             -2.9237   XZ=              0.0000   YZ=              0.0000

 Normal termination of Gaussian 16 at Sat Aug 27 07:10:07 2022.
