 Gaussian 16, Revision A.03,
 Gaussian 16:  ES64L-G16RevA.03 25-Dec-2016

 ------------------
 #p CCSD(T)/cc-pVTZ
 ------------------

 -----------
 H2O_H2O_255
 -----------
 Symbolic Z-matrix:
 Charge =  0 Multiplicity = 1

                         Standard orientation:
 ---------------------------------------------------------------------
 Center     Atomic      Atomic             Coordinates (Angstroms)
 Number     Number       Type             X           Y           Z
 ---------------------------------------------------------------------
      1          8           0        0.018363   -0.933298    0.000000
      2          1           0       -0.782170   -1.503080    0.000000
      3          1           0        0.816969   -1.505779    0.000000
      4          8           0        0.018363    0.939298    0.000000
      5          1           0        0.593263    1.736165    0.000000
      6          1           0       -0.921878    1.224694    0.000000
 ---------------------------------------------------------------------

 SCF Done:  E(RHF) =  -152.022912707     A.U. after   11 cycles
 E2 =    -0.5388734666D+00 EUMP2 =    -0.15256178617357D+03
 CCSD(T)
 CCSD(T)= -0.15258815629D+03

 The electronic state is 1-A'.
 Alpha  occ. eigenvalues --  -20.51642 -20.51463  -1.33013  -1.27925  -0.69231
 Alpha  occ. eigenvalues --   -0.66516  -0.62333  -0.50016  -0.44296  -0.40935
 Alpha virt. eigenvalues --    0.14595   0.18680   0.20279   0.23084   0.51242
 Alpha virt. eigenvalues --    0.58627   0.59041   0.66188   0.69273   0.78473
 Alpha virt. eigenvalues --    0.79427   0.83359   0.84155   0.86392   0.87830

 Mulliken charges:
               1
     1  O   -0.415159
     2  H    0.200412
     3  H    0.213650
     4  O   -0.398496
     5  H    0.176763
     6  H    0.222830
 Sum of Mulliken charges =   0.00000

 Dipole moment (field-independent basis, Debye):
    X=             -0.5256    Y=             -0.1355    Z=              0.0000  Tot=              0.5428
 Quadrupole moment (field-independent basis, Debye-Ang):
   XX=             -8.4124   YY=             -6.7016   ZZ=            -14.7482
   XY=             -0.1879   XZ=              0.0000   YZ=              0.0000

 Normal termination of Gaussian 16 at Fri Aug 26 14:34:24 2022.
