 Gaussian 16, Revision A.03,
 Gaussian 16:  ES64L-G16RevA.03 25-Dec-2016

 ------------------
 #p CCSD(T)/cc-pVTZ
 ------------------

 ------------
 H2O_H2O_1996
 ------------
 Symbolic Z-matrix:
 Charge =  0 Multiplicity = 1

                         Standard orientation:
 ---------------------------------------------------------------------
 Center     Atomic      Atomic             Coordinates (Angstroms)
 Number     Number       Type             X           Y           Z
 ---------------------------------------------------------------------
      1          8           0        0.056135   -1.804200    0.000000
      2          1           0       -0.744921   -2.373246    0.000000
      3          1           0        0.854215   -2.377414    0.000000
      4          8           0        0.056135    1.895850    0.000000
      5          1           0       -0.345698    2.792530    0.000000
      6          1           0       -0.661763    1.224933    0.000000
 ---------------------------------------------------------------------

 SCF Done:  E(RHF) =  -152.108367232     A.U. after   10 cycles
 E2 =    -0.5263658399D+00 EUMP2 =    -0.15263473307221D+03
 CCSD(T)
 CCSD(T)= -0.15266188657D+03

 The electronic state is 1-A'.
 Alpha  occ. eigenvalues --  -20.55953 -20.54122  -1.33223  -1.31414  -0.70632
 Alpha  occ. eigenvalues --   -0.68781  -0.56673  -0.54871  -0.50342  -0.48542
 Alpha virt. eigenvalues --    0.13110   0.16329   0.19851   0.23257   0.53769
 Alpha virt. eigenvalues --    0.54928   0.56902   0.58499   0.65817   0.74795
 Alpha virt. eigenvalues --    0.78136   0.79015   0.79362   0.80562   0.84510

 Mulliken charges:
               1
     1  O   -0.500796
     2  H    0.247812
     3  H    0.257489
     4  O   -0.510474
     5  H    0.243823
     6  H    0.262146
 Sum of Mulliken charges =  -0.00000

 Dipole moment (field-independent basis, Debye):
    X=             -1.8842    Y=             -1.7074    Z=              0.0000  Tot=              2.5428
 Quadrupole moment (field-independent basis, Debye-Ang):
   XX=             -9.7836   YY=             -1.3569   ZZ=            -14.7178
   XY=             -3.4698   XZ=              0.0000   YZ=              0.0000

 Normal termination of Gaussian 16 at Sat Aug 27 07:59:34 2022.
