 Gaussian 16, Revision A.03,
 Gaussian 16:  ES64L-G16RevA.03 25-Dec-2016

 ------------------
 #p CCSD(T)/cc-pVTZ
 ------------------

 ------------
 H2O_H2O_2834
 ------------
 Symbolic Z-matrix:
 Charge =  0 Multiplicity = 1

                         Standard orientation:
 ---------------------------------------------------------------------
 Center     Atomic      Atomic             Coordinates (Angstroms)
 Number     Number       Type             X           Y           Z
 ---------------------------------------------------------------------
      1          8           0        0.031742   -2.295622    0.000000
      2          1           0       -0.768505   -2.865806    0.000000
      3          1           0        0.830635   -2.867701    0.000000
      4          8           0        0.031742    2.314797    0.000000
      5          1           0        0.380346    3.233482    0.000000
      6          1           0       -0.950344    2.346622    0.000000
 ---------------------------------------------------------------------

 SCF Done:  E(RHF) =  -152.106198513     A.U. after   10 cycles
 E2 =    -0.5260592825D+00 EUMP2 =    -0.15263225779505D+03
 CCSD(T)
 CCSD(T)= -0.15265949783D+03

 The electronic state is 1-A'.
 Alpha  occ. eigenvalues --  -20.54996 -20.54784  -1.32288  -1.32073  -0.69699
 Alpha  occ. eigenvalues --   -0.69476  -0.55679  -0.55456  -0.49391  -0.49178
 Alpha virt. eigenvalues --    0.14185   0.15144   0.20486   0.20932   0.54604
 Alpha virt. eigenvalues --    0.55219   0.57670   0.57906   0.66282   0.71330
 Alpha virt. eigenvalues --    0.79464   0.79714   0.80855   0.81256   0.82567

 Mulliken charges:
               1
     1  O   -0.501646
     2  H    0.249107
     3  H    0.252588
     4  O   -0.501266
     5  H    0.248249
     6  H    0.252968
 Sum of Mulliken charges =  -0.00000

 Dipole moment (field-independent basis, Debye):
    X=             -1.0814    Y=             -0.3408    Z=              0.0000  Tot=              1.1338
 Quadrupole moment (field-independent basis, Debye-Ang):
   XX=             -8.4478   YY=              5.4212   ZZ=            -14.7103
   XY=             -1.7239   XZ=              0.0000   YZ=              0.0000

 Normal termination of Gaussian 16 at Fri Aug 26 16:36:36 2022.
