 Gaussian 16, Revision A.03,
 Gaussian 16:  ES64L-G16RevA.03 25-Dec-2016

 ------------------
 #p CCSD(T)/cc-pVTZ
 ------------------

 ------------
 H2O_H2O_1433
 ------------
 Symbolic Z-matrix:
 Charge =  0 Multiplicity = 1

                         Standard orientation:
 ---------------------------------------------------------------------
 Center     Atomic      Atomic             Coordinates (Angstroms)
 Number     Number       Type             X           Y           Z
 ---------------------------------------------------------------------
      1          8           0        0.028569   -1.553202    0.000000
      2          1           0       -0.771901   -2.123074    0.000000
      3          1           0        0.827239   -2.125593    0.000000
      4          8           0        0.028569    1.568416    0.000000
      5          1           0        0.436861    2.462175    0.000000
      6          1           0       -0.949296    1.664785    0.000000
 ---------------------------------------------------------------------

 SCF Done:  E(RHF) =  -152.103103384     A.U. after   10 cycles
 E2 =    -0.5271583128D+00 EUMP2 =    -0.15263026169644D+03
 CCSD(T)
 CCSD(T)= -0.15265752178D+03

 The electronic state is 1-A'.
 Alpha  occ. eigenvalues --  -20.54286 -20.53927  -1.31599  -1.31185  -0.69024
 Alpha  occ. eigenvalues --   -0.68608  -0.55583  -0.53627  -0.48745  -0.48219
 Alpha virt. eigenvalues --    0.14158   0.16577   0.20461   0.21970   0.52641
 Alpha virt. eigenvalues --    0.57854   0.58159   0.58822   0.65049   0.76850
 Alpha virt. eigenvalues --    0.77940   0.78880   0.78956   0.82273   0.85803

 Mulliken charges:
               1
     1  O   -0.479137
     2  H    0.235667
     3  H    0.244120
     4  O   -0.476963
     5  H    0.233301
     6  H    0.243013
 Sum of Mulliken charges =  -0.00000

 Dipole moment (field-independent basis, Debye):
    X=             -0.9390    Y=             -0.2868    Z=              0.0000  Tot=              0.9818
 Quadrupole moment (field-independent basis, Debye-Ang):
   XX=             -8.3848   YY=             -0.2015   ZZ=            -14.7112
   XY=             -0.8092   XZ=              0.0000   YZ=              0.0000

 Normal termination of Gaussian 16 at Sat Aug 27 04:44:16 2022.
