 Gaussian 16, Revision A.03,
 Gaussian 16:  ES64L-G16RevA.03 25-Dec-2016

 ------------------
 #p CCSD(T)/cc-pVTZ
 ------------------

 ------------
 H2O_H2O_4446
 ------------
 Symbolic Z-matrix:
 Charge =  0 Multiplicity = 1

                         Standard orientation:
 ---------------------------------------------------------------------
 Center     Atomic      Atomic             Coordinates (Angstroms)
 Number     Number       Type             X           Y           Z
 ---------------------------------------------------------------------
      1          8           0        0.056086   -3.107136    0.000000
      2          1           0       -0.744357   -3.677044    0.000000
      3          1           0        0.854783   -3.679490    0.000000
      4          8           0        0.056086    3.198906    0.000000
      5          1           0       -0.346713    4.095154    0.000000
      6          1           0       -0.661089    2.527216    0.000000
 ---------------------------------------------------------------------

 SCF Done:  E(RHF) =  -152.107541256     A.U. after   10 cycles
 E2 =    -0.5258686031D+00 EUMP2 =    -0.15263340985917D+03
 CCSD(T)
 CCSD(T)= -0.15266062705D+03

 The electronic state is 1-A'.
 Alpha  occ. eigenvalues --  -20.55675 -20.55142  -1.32974  -1.32441  -0.70380
 Alpha  occ. eigenvalues --   -0.69840  -0.56428  -0.55891  -0.50087  -0.49555
 Alpha virt. eigenvalues --    0.13997   0.14554   0.20092   0.20664   0.54179
 Alpha virt. eigenvalues --    0.54732   0.57110   0.57642   0.67722   0.68328
 Alpha virt. eigenvalues --    0.78793   0.79316   0.80221   0.80775   0.82167

 Mulliken charges:
               1
     1  O   -0.509684
     2  H    0.253638
     3  H    0.256048
     4  O   -0.509360
     5  H    0.252252
     6  H    0.257106
 Sum of Mulliken charges =  -0.00000

 Dipole moment (field-independent basis, Debye):
    X=             -1.9278    Y=             -1.6040    Z=              0.0000  Tot=              2.5078
 Quadrupole moment (field-independent basis, Debye-Ang):
   XX=             -9.7842   YY=              4.9099   ZZ=            -14.7124
   XY=             -5.9410   XZ=              0.0000   YZ=              0.0000

 Normal termination of Gaussian 16 at Sat Aug 27 07:21:52 2022.
