 Gaussian 16, Revision A.03,
 Gaussian 16:  ES64L-G16RevA.03 25-Dec-2016

 ------------------
 #p CCSD(T)/cc-pVTZ
 ------------------

 -----------
 H2O_H2O_599
 -----------
 Symbolic Z-matrix:
 Charge =  0 Multiplicity = 1

                         Standard orientation:
 ---------------------------------------------------------------------
 Center     Atomic      Atomic             Coordinates (Angstroms)
 Number     Number       Type             X           Y           Z
 ---------------------------------------------------------------------
      1          8           0        0.057367   -1.047641    0.000000
      2          1           0       -0.744739   -1.615208    0.000000
      3          1           0        0.854388   -1.622326    0.000000
      4          8           0        0.057367    1.161357    0.000000
      5          1           0       -0.510200    1.963464    0.000000
      6          1           0       -0.517319    0.364337    0.000000
 ---------------------------------------------------------------------

 SCF Done:  E(RHF) =  -152.079517870     A.U. after   11 cycles
 E2 =    -0.5342045978D+00 EUMP2 =    -0.15261372246797D+03
 CCSD(T)
 CCSD(T)= -0.15264012494D+03

 The electronic state is 1-A'.
 Alpha  occ. eigenvalues --  -20.57483 -20.49873  -1.36525  -1.27849  -0.73817
 Alpha  occ. eigenvalues --   -0.70210  -0.54195  -0.53060  -0.51440  -0.44819
 Alpha virt. eigenvalues --    0.12647   0.18653   0.19303   0.27920   0.49160
 Alpha virt. eigenvalues --    0.54852   0.62081   0.66023   0.71589   0.73710
 Alpha virt. eigenvalues --    0.76277   0.81267   0.83509   0.84375   0.87029

 Mulliken charges:
               1
     1  O   -0.408957
     2  H    0.220692
     3  H    0.247554
     4  O   -0.533092
     5  H    0.205259
     6  H    0.268545
 Sum of Mulliken charges =  -0.00000

 Dipole moment (field-independent basis, Debye):
    X=             -1.7254    Y=             -2.6833    Z=              0.0000  Tot=              3.1902
 Quadrupole moment (field-independent basis, Debye-Ang):
   XX=             -9.8322   YY=             -6.5712   ZZ=            -14.6703
   XY=             -2.5256   XZ=              0.0000   YZ=              0.0000

 Normal termination of Gaussian 16 at Fri Aug 26 18:04:49 2022.
