 Gaussian 16, Revision A.03,
 Gaussian 16:  ES64L-G16RevA.03 25-Dec-2016

 ------------------
 #p CCSD(T)/cc-pVTZ
 ------------------

 ------------
 H2O_H2O_1313
 ------------
 Symbolic Z-matrix:
 Charge =  0 Multiplicity = 1

                         Standard orientation:
 ---------------------------------------------------------------------
 Center     Atomic      Atomic             Coordinates (Angstroms)
 Number     Number       Type             X           Y           Z
 ---------------------------------------------------------------------
      1          8           0        0.042988   -1.473967    0.000000
      2          1           0       -0.757994   -2.043118    0.000000
      3          1           0        0.841143   -2.047076    0.000000
      4          8           0        0.042988    1.512666    0.000000
      5          1           0        0.143202    2.490144    0.000000
      6          1           0       -0.914159    1.290458    0.000000
 ---------------------------------------------------------------------

 SCF Done:  E(RHF) =  -152.103881233     A.U. after   10 cycles
 E2 =    -0.5274125557D+00 EUMP2 =    -0.15263129378898D+03
 CCSD(T)
 CCSD(T)= -0.15265851576D+03

 The electronic state is 1-A'.
 Alpha  occ. eigenvalues --  -20.54745 -20.53706  -1.32069  -1.30955  -0.69495
 Alpha  occ. eigenvalues --   -0.68376  -0.55852  -0.53680  -0.49200  -0.48021
 Alpha virt. eigenvalues --    0.13906   0.16808   0.20229   0.22656   0.53650
 Alpha virt. eigenvalues --    0.57241   0.57824   0.58566   0.66793   0.76118
 Alpha virt. eigenvalues --    0.77157   0.77293   0.80190   0.82486   0.85424

 Mulliken charges:
               1
     1  O   -0.480531
     2  H    0.235181
     3  H    0.248115
     4  O   -0.479424
     5  H    0.229020
     6  H    0.247639
 Sum of Mulliken charges =  -0.00000

 Dipole moment (field-independent basis, Debye):
    X=             -1.3994    Y=             -0.7391    Z=              0.0000  Tot=              1.5826
 Quadrupole moment (field-independent basis, Debye-Ang):
   XX=             -9.0210   YY=             -1.3274   ZZ=            -14.7159
   XY=             -1.4364   XZ=              0.0000   YZ=              0.0000

 Normal termination of Gaussian 16 at Sat Aug 27 03:50:06 2022.
