 Gaussian 16, Revision A.03,
 Gaussian 16:  ES64L-G16RevA.03 25-Dec-2016

 ------------------
 #p CCSD(T)/cc-pVTZ
 ------------------

 ----------
 H2O_H2O_15
 ----------
 Symbolic Z-matrix:
 Charge =  0 Multiplicity = 1

                         Standard orientation:
 ---------------------------------------------------------------------
 Center     Atomic      Atomic             Coordinates (Angstroms)
 Number     Number       Type             X           Y           Z
 ---------------------------------------------------------------------
      1          8           0        0.047617   -0.776284    0.000000
      2          1           0       -0.754857   -1.343330    0.000000
      3          1           0        0.844264   -1.351487    0.000000
      4          8           0        0.047617    0.826565    0.000000
      5          1           0        0.021966    1.808831    0.000000
      6          1           0       -0.873241    0.483741    0.000000
 ---------------------------------------------------------------------

 SCF Done:  E(RHF) =  -151.908323363     A.U. after   12 cycles
 E2 =    -0.5522202747D+00 EUMP2 =    -0.15246054363735D+03
 CCSD(T)
 CCSD(T)= -0.15248506678D+03

 The electronic state is 1-A'.
 Alpha  occ. eigenvalues --  -20.53487 -20.51224  -1.40093  -1.26309  -0.76019
 Alpha  occ. eigenvalues --   -0.71424  -0.57546  -0.54798  -0.43204  -0.36647
 Alpha virt. eigenvalues --    0.13709   0.18945   0.19909   0.24081   0.51839
 Alpha virt. eigenvalues --    0.56375   0.58920   0.66464   0.73479   0.76925
 Alpha virt. eigenvalues --    0.80301   0.81652   0.82718   0.83736   0.89289

 Mulliken charges:
               1
     1  O   -0.304879
     2  H    0.138269
     3  H    0.185784
     4  O   -0.337814
     5  H    0.079993
     6  H    0.238647
 Sum of Mulliken charges =   0.00000

 Dipole moment (field-independent basis, Debye):
    X=             -1.2255    Y=             -1.2028    Z=              0.0000  Tot=              1.7171
 Quadrupole moment (field-independent basis, Debye-Ang):
   XX=             -9.5018   YY=             -9.3632   ZZ=            -14.6104
   XY=             -0.7453   XZ=              0.0000   YZ=              0.0000

 Normal termination of Gaussian 16 at Fri Aug 26 11:54:05 2022.
