 Gaussian 16, Revision A.03,
 Gaussian 16:  ES64L-G16RevA.03 25-Dec-2016

 ------------------
 #p CCSD(T)/cc-pVTZ
 ------------------

 ------------
 H2O_H2O_2900
 ------------
 Symbolic Z-matrix:
 Charge =  0 Multiplicity = 1

                         Standard orientation:
 ---------------------------------------------------------------------
 Center     Atomic      Atomic             Coordinates (Angstroms)
 Number     Number       Type             X           Y           Z
 ---------------------------------------------------------------------
      1          8           0        0.000000   -0.000000    2.345925
      2          1           0        0.000000    0.799571    2.917057
      3          1           0       -0.000000   -0.799571    2.917057
      4          8           0        0.000000   -0.000000   -2.345925
      5          1           0       -0.000000   -0.799571   -2.917057
      6          1           0        0.000000    0.799571   -2.917057
 ---------------------------------------------------------------------

 SCF Done:  E(RHF) =  -152.105897906     A.U. after   10 cycles
 E2 =    -0.5260690711D+00 EUMP2 =    -0.15263196697686D+03
 CCSD(T)
 CCSD(T)= -0.15265921507D+03

 The electronic state is 1-AG.
 Alpha  occ. eigenvalues --  -20.54828 -20.54828  -1.32121  -1.32119  -0.69533
 Alpha  occ. eigenvalues --   -0.69530  -0.55526  -0.55457  -0.49224  -0.49217
 Alpha virt. eigenvalues --    0.14398   0.15036   0.20621   0.20815   0.54835
 Alpha virt. eigenvalues --    0.55254   0.57783   0.57880   0.66491   0.71027
 Alpha virt. eigenvalues --    0.79599   0.79707   0.81074   0.81157   0.82466

 Mulliken charges:
               1
     1  O   -0.499943
     2  H    0.249972
     3  H    0.249972
     4  O   -0.499943
     5  H    0.249972
     6  H    0.249972
 Sum of Mulliken charges =   0.00000

 Dipole moment (field-independent basis, Debye):
    X=             -0.0000    Y=              0.0000    Z=              0.0000  Tot=              0.0000
 Quadrupole moment (field-independent basis, Debye-Ang):
   XX=            -14.7096   YY=             -7.8193   ZZ=              6.6847
   XY=              0.0000   XZ=              0.0000   YZ=             -0.0000

 \MP4DQ=-152.6410818\MP4SDQ=-152.6441513\CCSD=-152.6435593\CCSD(T)=-152
 Normal termination of Gaussian 16 at Fri Aug 26 17:17:20 2022.
