 Gaussian 16, Revision A.03,
 Gaussian 16:  ES64L-G16RevA.03 25-Dec-2016

 ------------------
 #p CCSD(T)/cc-pVTZ
 ------------------

 -----------
 H2O_H2O_784
 -----------
 Symbolic Z-matrix:
 Charge =  0 Multiplicity = 1

                         Standard orientation:
 ---------------------------------------------------------------------
 Center     Atomic      Atomic             Coordinates (Angstroms)
 Number     Number       Type             X           Y           Z
 ---------------------------------------------------------------------
      1          8           0        0.031752   -1.205393    0.000000
      2          1           0       -0.769101   -1.774726    0.000000
      3          1           0        0.830037   -1.778321    0.000000
      4          8           0        0.031752    1.224501    0.000000
      5          1           0        0.381332    2.142814    0.000000
      6          1           0       -0.950300    1.257369    0.000000
 ---------------------------------------------------------------------

 SCF Done:  E(RHF) =  -152.092075352     A.U. after   11 cycles
 E2 =    -0.5296574772D+00 EUMP2 =    -0.15262173282911D+03
 CCSD(T)
 CCSD(T)= -0.15264897200D+03

 The electronic state is 1-A'.
 Alpha  occ. eigenvalues --  -20.53535 -20.52933  -1.31434  -1.30078  -0.68732
 Alpha  occ. eigenvalues --   -0.67739  -0.57085  -0.50253  -0.48703  -0.46869
 Alpha virt. eigenvalues --    0.14314   0.17459   0.20411   0.22818   0.52261
 Alpha virt. eigenvalues --    0.58434   0.58507   0.62065   0.70664   0.76280
 Alpha virt. eigenvalues --    0.77130   0.79870   0.83753   0.86109   0.87108

 Mulliken charges:
               1
     1  O   -0.465109
     2  H    0.224665
     3  H    0.239340
     4  O   -0.448684
     5  H    0.211798
     6  H    0.237991
 Sum of Mulliken charges =  -0.00000

 Dipole moment (field-independent basis, Debye):
    X=             -0.9850    Y=             -0.3731    Z=              0.0000  Tot=              1.0533
 Quadrupole moment (field-independent basis, Debye-Ang):
   XX=             -8.5933   YY=             -3.3473   ZZ=            -14.7263
   XY=             -0.5930   XZ=              0.0000   YZ=              0.0000

 Normal termination of Gaussian 16 at Fri Aug 26 19:57:34 2022.
