 Gaussian 16, Revision A.03,
 Gaussian 16:  ES64L-G16RevA.03 25-Dec-2016

 ------------------
 #p CCSD(T)/cc-pVTZ
 ------------------

 ------------
 H2O_H2O_3615
 ------------
 Symbolic Z-matrix:
 Charge =  0 Multiplicity = 1

                         Standard orientation:
 ---------------------------------------------------------------------
 Center     Atomic      Atomic             Coordinates (Angstroms)
 Number     Number       Type             X           Y           Z
 ---------------------------------------------------------------------
      1          8           0        0.047526   -2.690717    0.000000
      2          1           0       -0.752904   -3.260645    0.000000
      3          1           0        0.846237   -3.263052    0.000000
      4          8           0        0.047526    2.741339    0.000000
      5          1           0        0.018343    3.723507    0.000000
      6          1           0       -0.872093    2.395208    0.000000
 ---------------------------------------------------------------------

 SCF Done:  E(RHF) =  -152.107064822     A.U. after   10 cycles
 E2 =    -0.5259311809D+00 EUMP2 =    -0.15263299600331D+03
 CCSD(T)
 CCSD(T)= -0.15266022189D+03

 The electronic state is 1-A'.
 Alpha  occ. eigenvalues --  -20.55397 -20.54994  -1.32694  -1.32288  -0.70101
 Alpha  occ. eigenvalues --   -0.69686  -0.56125  -0.55719  -0.49803  -0.49399
 Alpha virt. eigenvalues --    0.14137   0.14743   0.20283   0.20768   0.54443
 Alpha virt. eigenvalues --    0.54894   0.57350   0.57750   0.67766   0.68867
 Alpha virt. eigenvalues --    0.79077   0.79473   0.80503   0.80900   0.82552

 Mulliken charges:
               1
     1  O   -0.506879
     2  H    0.251797
     3  H    0.255096
     4  O   -0.506505
     5  H    0.250533
     6  H    0.255957
 Sum of Mulliken charges =  -0.00000

 Dipole moment (field-independent basis, Debye):
    X=             -1.6286    Y=             -0.8902    Z=              0.0000  Tot=              1.8560
 Quadrupole moment (field-independent basis, Debye-Ang):
   XX=             -9.2251   YY=              6.2250   ZZ=            -14.7115
   XY=             -3.7110   XZ=              0.0000   YZ=              0.0000

 49675\MP4DQ=-152.6421175\MP4SDQ=-152.6451763\CCSD=-152.644588\CCSD(T)=
 Normal termination of Gaussian 16 at Sat Aug 27 01:55:02 2022.
