 Gaussian 16, Revision A.03,
 Gaussian 16:  ES64L-G16RevA.03 25-Dec-2016

 ------------------
 #p CCSD(T)/cc-pVTZ
 ------------------

 ------------
 H2O_H2O_4660
 ------------
 Symbolic Z-matrix:
 Charge =  0 Multiplicity = 1

                         Standard orientation:
 ---------------------------------------------------------------------
 Center     Atomic      Atomic             Coordinates (Angstroms)
 Number     Number       Type             X           Y           Z
 ---------------------------------------------------------------------
      1          8           0        0.034779   -3.263853    0.000000
      2          1           0       -0.765313   -3.834254    0.000000
      3          1           0        0.833828   -3.835715    0.000000
      4          8           0        0.034779    3.287394    0.000000
      5          1           0        0.322298    4.226989    0.000000
      6          1           0       -0.947277    3.254653    0.000000
 ---------------------------------------------------------------------

 SCF Done:  E(RHF) =  -152.107046451     A.U. after   10 cycles
 E2 =    -0.5259084868D+00 EUMP2 =    -0.15263295493794D+03
 CCSD(T)
 CCSD(T)= -0.15266018291D+03

 The electronic state is 1-A'.
 Alpha  occ. eigenvalues --  -20.55337 -20.55211  -1.32634  -1.32507  -0.70041
 Alpha  occ. eigenvalues --   -0.69912  -0.56065  -0.55938  -0.49743  -0.49617
 Alpha virt. eigenvalues --    0.14308   0.14437   0.20365   0.20497   0.54525
 Alpha virt. eigenvalues --    0.54661   0.57412   0.57538   0.68150   0.68283
 Alpha virt. eigenvalues --    0.79136   0.79261   0.80575   0.80712   0.82501

 Mulliken charges:
               1
     1  O   -0.506739
     2  H    0.252660
     3  H    0.254079
     4  O   -0.506640
     5  H    0.252234
     6  H    0.254406
 Sum of Mulliken charges =  -0.00000

 Dipole moment (field-independent basis, Debye):
    X=             -1.1957    Y=             -0.4105    Z=              0.0000  Tot=              1.2642
 Quadrupole moment (field-independent basis, Debye-Ang):
   XX=             -8.5635   YY=             12.2002   ZZ=            -14.7111
   XY=             -3.0814   XZ=              0.0000   YZ=              0.0000

 Normal termination of Gaussian 16 at Sat Aug 27 08:36:19 2022.
