 Gaussian 16, Revision A.03,
 Gaussian 16:  ES64L-G16RevA.03 25-Dec-2016

 ------------------
 #p CCSD(T)/cc-pVTZ
 ------------------

 ------------
 H2O_H2O_1267
 ------------
 Symbolic Z-matrix:
 Charge =  0 Multiplicity = 1

                         Standard orientation:
 ---------------------------------------------------------------------
 Center     Atomic      Atomic             Coordinates (Angstroms)
 Number     Number       Type             X           Y           Z
 ---------------------------------------------------------------------
      1          8           0        0.051319   -1.433961    0.000000
      2          1           0       -0.749967   -2.002685    0.000000
      3          1           0        0.849168   -2.007496    0.000000
      4          8           0        0.051319    1.497358    0.000000
      5          1           0       -0.104354    2.467549    0.000000
      6          1           0       -0.815949    1.035456    0.000000
 ---------------------------------------------------------------------

 SCF Done:  E(RHF) =  -152.105369471     A.U. after   10 cycles
 E2 =    -0.5275632219D+00 EUMP2 =    -0.15263293269298D+03
 CCSD(T)
 CCSD(T)= -0.15266010325D+03

 The electronic state is 1-A'.
 Alpha  occ. eigenvalues --  -20.55373 -20.53482  -1.32712  -1.30739  -0.70132
 Alpha  occ. eigenvalues --   -0.68205  -0.56156  -0.53901  -0.49831  -0.47834
 Alpha virt. eigenvalues --    0.13596   0.17042   0.19970   0.23499   0.53794
 Alpha virt. eigenvalues --    0.56648   0.57346   0.58340   0.68265   0.75543
 Alpha virt. eigenvalues --    0.76326   0.77054   0.80477   0.82367   0.84926

 Mulliken charges:
               1
     1  O   -0.482733
     2  H    0.237043
     3  H    0.252575
     4  O   -0.489667
     5  H    0.229439
     6  H    0.253343
 Sum of Mulliken charges =  -0.00000

 Dipole moment (field-independent basis, Debye):
    X=             -1.6643    Y=             -1.2289    Z=              0.0000  Tot=              2.0688
 Quadrupole moment (field-independent basis, Debye-Ang):
   XX=             -9.4923   YY=             -2.2843   ZZ=            -14.7208
   XY=             -2.0669   XZ=              0.0000   YZ=              0.0000

 Normal termination of Gaussian 16 at Sat Aug 27 03:29:40 2022.
