 Gaussian 16, Revision A.03,
 Gaussian 16:  ES64L-G16RevA.03 25-Dec-2016

 ------------------
 #p CCSD(T)/cc-pVTZ
 ------------------

 ------------
 H2O_H2O_1550
 ------------
 Symbolic Z-matrix:
 Charge =  0 Multiplicity = 1

                         Standard orientation:
 ---------------------------------------------------------------------
 Center     Atomic      Atomic             Coordinates (Angstroms)
 Number     Number       Type             X           Y           Z
 ---------------------------------------------------------------------
      1          8           0        0.000000   -0.000000    1.627945
      2          1           0        0.000000    0.799571    2.199077
      3          1           0       -0.000000   -0.799571    2.199077
      4          8           0        0.000000   -0.000000   -1.627945
      5          1           0       -0.000000   -0.799571   -2.199077
      6          1           0        0.000000    0.799571   -2.199077
 ---------------------------------------------------------------------

 SCF Done:  E(RHF) =  -152.102929712     A.U. after   10 cycles
 E2 =    -0.5269619978D+00 EUMP2 =    -0.15262989171016D+03
 CCSD(T)
 CCSD(T)= -0.15265716732D+03

 The electronic state is 1-AG.
 Alpha  occ. eigenvalues --  -20.54079 -20.54079  -1.31422  -1.31308  -0.68842
 Alpha  occ. eigenvalues --   -0.68750  -0.55401  -0.53720  -0.48587  -0.48314
 Alpha virt. eigenvalues --    0.14326   0.16394   0.20589   0.21621   0.52527
 Alpha virt. eigenvalues --    0.58139   0.58544   0.58796   0.62586   0.76023
 Alpha virt. eigenvalues --    0.78471   0.78541   0.79723   0.81957   0.85538

 Mulliken charges:
               1
     1  O   -0.478589
     2  H    0.239294
     3  H    0.239294
     4  O   -0.478589
     5  H    0.239294
     6  H    0.239294
 Sum of Mulliken charges =  -0.00000

 Dipole moment (field-independent basis, Debye):
    X=             -0.0000    Y=              0.0000    Z=              0.0000  Tot=              0.0000
 Quadrupole moment (field-independent basis, Debye-Ang):
   XX=            -14.7089   YY=             -7.8753   ZZ=              0.7038
   XY=              0.0000   XZ=              0.0000   YZ=             -0.0000

 \MP4DQ=-152.6388633\MP4SDQ=-152.6419895\CCSD=-152.6413743\CCSD(T)=-152
 Normal termination of Gaussian 16 at Sat Aug 27 05:25:09 2022.
