 Gaussian 16, Revision A.03,
 Gaussian 16:  ES64L-G16RevA.03 25-Dec-2016

 ------------------
 #p CCSD(T)/cc-pVTZ
 ------------------

 ------------
 H2O_H2O_3418
 ------------
 Symbolic Z-matrix:
 Charge =  0 Multiplicity = 1

                         Standard orientation:
 ---------------------------------------------------------------------
 Center     Atomic      Atomic             Coordinates (Angstroms)
 Number     Number       Type             X           Y           Z
 ---------------------------------------------------------------------
      1          8           0        0.052827   -2.573647    0.000000
      2          1           0       -0.747737   -3.143385    0.000000
      3          1           0        0.851402   -3.146170    0.000000
      4          8           0        0.052827    2.643976    0.000000
      5          1           0       -0.167180    3.601632    0.000000
      6          1           0       -0.781717    2.125285    0.000000
 ---------------------------------------------------------------------

 SCF Done:  E(RHF) =  -152.107314598     A.U. after   10 cycles
 E2 =    -0.5259248270D+00 EUMP2 =    -0.15263323942535D+03
 CCSD(T)
 CCSD(T)= -0.15266045831D+03

 The electronic state is 1-A'.
 Alpha  occ. eigenvalues --  -20.55537 -20.54921  -1.32834  -1.32216  -0.70241
 Alpha  occ. eigenvalues --   -0.69610  -0.56276  -0.55656  -0.49945  -0.49330
 Alpha virt. eigenvalues --    0.13904   0.14907   0.20165   0.20930   0.54279
 Alpha virt. eigenvalues --    0.54931   0.57232   0.57808   0.67367   0.69250
 Alpha virt. eigenvalues --    0.78938   0.79538   0.80312   0.80789   0.82683

 Mulliken charges:
               1
     1  O   -0.508249
     2  H    0.252129
     3  H    0.256193
     4  O   -0.507789
     5  H    0.250237
     6  H    0.257479
 Sum of Mulliken charges =  -0.00000

 Dipole moment (field-independent basis, Debye):
    X=             -1.8086    Y=             -1.2413    Z=              0.0000  Tot=              2.1936
 Quadrupole moment (field-independent basis, Debye-Ang):
   XX=             -9.5589   YY=              4.0639   ZZ=            -14.7122
   XY=             -4.2602   XZ=              0.0000   YZ=              0.0000

 Normal termination of Gaussian 16 at Fri Aug 26 22:09:59 2022.
