 Gaussian 16, Revision A.03,
 Gaussian 16:  ES64L-G16RevA.03 25-Dec-2016

 ------------------
 #p CCSD(T)/cc-pVTZ
 ------------------

 ------------
 H2O_H2O_1703
 ------------
 Symbolic Z-matrix:
 Charge =  0 Multiplicity = 1

                         Standard orientation:
 ---------------------------------------------------------------------
 Center     Atomic      Atomic             Coordinates (Angstroms)
 Number     Number       Type             X           Y           Z
 ---------------------------------------------------------------------
      1          8           0        0.011143   -1.706536    0.000000
      2          1           0       -0.788749   -2.277218    0.000000
      3          1           0        0.810393   -2.278117    0.000000
      4          8           0        0.011143    1.708718    0.000000
      5          1           0        0.684330    2.424486    0.000000
      6          1           0       -0.884260    2.113390    0.000000
 ---------------------------------------------------------------------

 SCF Done:  E(RHF) =  -152.103750745     A.U. after   10 cycles
 E2 =    -0.5267580812D+00 EUMP2 =    -0.15263050882577D+03
 CCSD(T)
 CCSD(T)= -0.15265776933D+03

 The electronic state is 1-A'.
 Alpha  occ. eigenvalues --  -20.54252 -20.54207  -1.31553  -1.31465  -0.68975
 Alpha  occ. eigenvalues --   -0.68896  -0.55349  -0.54136  -0.48698  -0.48501
 Alpha virt. eigenvalues --    0.14246   0.16211   0.20586   0.21514   0.53037
 Alpha virt. eigenvalues --    0.57758   0.58072   0.58474   0.61739   0.76067
 Alpha virt. eigenvalues --    0.78817   0.79083   0.80100   0.81486   0.84423

 Mulliken charges:
               1
     1  O   -0.483064
     2  H    0.240263
     3  H    0.242889
     4  O   -0.483006
     5  H    0.240040
     6  H    0.242877
 Sum of Mulliken charges =  -0.00000

 Dipole moment (field-independent basis, Debye):
    X=             -0.3712    Y=             -0.0407    Z=              0.0000  Tot=              0.3734
 Quadrupole moment (field-independent basis, Debye-Ang):
   XX=             -7.9398   YY=              1.3446   ZZ=            -14.7089
   XY=             -0.3242   XZ=              0.0000   YZ=              0.0000

 Normal termination of Gaussian 16 at Sat Aug 27 06:18:34 2022.
