 Gaussian 16, Revision A.03,
 Gaussian 16:  ES64L-G16RevA.03 25-Dec-2016

 ------------------
 #p CCSD(T)/cc-pVTZ
 ------------------

 -----------
 H2O_H2O_544
 -----------
 Symbolic Z-matrix:
 Charge =  0 Multiplicity = 1

                         Standard orientation:
 ---------------------------------------------------------------------
 Center     Atomic      Atomic             Coordinates (Angstroms)
 Number     Number       Type             X           Y           Z
 ---------------------------------------------------------------------
      1          8           0        0.054249   -1.040966    0.000000
      2          1           0       -0.747778   -1.608644    0.000000
      3          1           0        0.851349   -1.615541    0.000000
      4          8           0        0.054249    1.118008    0.000000
      5          1           0       -0.225500    2.059945    0.000000
      6          1           0       -0.746053    0.547900    0.000000
 ---------------------------------------------------------------------

 SCF Done:  E(RHF) =  -152.077425094     A.U. after   11 cycles
 E2 =    -0.5335262567D+00 EUMP2 =    -0.15261095135034D+03
 CCSD(T)
 CCSD(T)= -0.15263776899D+03

 The electronic state is 1-A'.
 Alpha  occ. eigenvalues --  -20.55305 -20.51498  -1.34200  -1.28803  -0.71606
 Alpha  occ. eigenvalues --   -0.68800  -0.55033  -0.51027  -0.50999  -0.45744
 Alpha virt. eigenvalues --    0.13470   0.18413   0.19624   0.25112   0.51360
 Alpha virt. eigenvalues --    0.56438   0.60680   0.62972   0.71941   0.74645
 Alpha virt. eigenvalues --    0.78870   0.82486   0.84016   0.84593   0.87659

 Mulliken charges:
               1
     1  O   -0.429613
     2  H    0.212793
     3  H    0.237935
     4  O   -0.466232
     5  H    0.192930
     6  H    0.252187
 Sum of Mulliken charges =  -0.00000

 Dipole moment (field-independent basis, Debye):
    X=             -1.6158    Y=             -1.6368    Z=              0.0000  Tot=              2.3000
 Quadrupole moment (field-independent basis, Debye-Ang):
   XX=             -9.7049   YY=             -5.6143   ZZ=            -14.7003
   XY=             -1.7273   XZ=              0.0000   YZ=              0.0000

 Normal termination of Gaussian 16 at Fri Aug 26 17:30:14 2022.
