 Gaussian 16, Revision A.03,
 Gaussian 16:  ES64L-G16RevA.03 25-Dec-2016

 ------------------
 #p CCSD(T)/cc-pVTZ
 ------------------

 ------------
 H2O_H2O_2485
 ------------
 Symbolic Z-matrix:
 Charge =  0 Multiplicity = 1

                         Standard orientation:
 ---------------------------------------------------------------------
 Center     Atomic      Atomic             Coordinates (Angstroms)
 Number     Number       Type             X           Y           Z
 ---------------------------------------------------------------------
      1          8           0        0.034785   -2.107127    0.000000
      2          1           0       -0.765592   -2.677129    0.000000
      3          1           0        0.833548   -2.679388    0.000000
      4          8           0        0.034785    2.130633    0.000000
      5          1           0        0.322772    3.070085    0.000000
      6          1           0       -0.947288    2.098381    0.000000
 ---------------------------------------------------------------------

 SCF Done:  E(RHF) =  -152.106014237     A.U. after   10 cycles
 E2 =    -0.5261541562D+00 EUMP2 =    -0.15263216839290D+03
 CCSD(T)
 CCSD(T)= -0.15265940403D+03

 The electronic state is 1-A'.
 Alpha  occ. eigenvalues --  -20.54949 -20.54634  -1.32237  -1.31918  -0.69650
 Alpha  occ. eigenvalues --   -0.69319  -0.55628  -0.55271  -0.49339  -0.49022
 Alpha virt. eigenvalues --    0.13993   0.15472   0.20443   0.21160   0.54194
 Alpha virt. eigenvalues --    0.55388   0.57710   0.58037   0.64717   0.73451
 Alpha virt. eigenvalues --    0.79431   0.79947   0.80699   0.81250   0.82592

 Mulliken charges:
               1
     1  O   -0.499807
     2  H    0.247622
     3  H    0.252386
     4  O   -0.499453
     5  H    0.246417
     6  H    0.252836
 Sum of Mulliken charges =  -0.00000

 Dipole moment (field-independent basis, Debye):
    X=             -1.1799    Y=             -0.4224    Z=              0.0000  Tot=              1.2532
 Quadrupole moment (field-independent basis, Debye-Ang):
   XX=             -8.5790   YY=              3.8327   ZZ=            -14.7106
   XY=             -1.7187   XZ=              0.0000   YZ=              0.0000

 Normal termination of Gaussian 16 at Sat Aug 27 10:49:05 2022.
