 Gaussian 16, Revision A.03,
 Gaussian 16:  ES64L-G16RevA.03 25-Dec-2016

 ------------------
 #p CCSD(T)/cc-pVTZ
 ------------------

 -----------
 H2O_H2O_164
 -----------
 Symbolic Z-matrix:
 Charge =  0 Multiplicity = 1

                         Standard orientation:
 ---------------------------------------------------------------------
 Center     Atomic      Atomic             Coordinates (Angstroms)
 Number     Number       Type             X           Y           Z
 ---------------------------------------------------------------------
      1          8           0        0.045409   -0.859315    0.000000
      2          1           0       -0.756681   -1.426904    0.000000
      3          1           0        0.842445   -1.433980    0.000000
      4          8           0        0.045409    0.903604    0.000000
      5          1           0        0.083394    1.885470    0.000000
      6          1           0       -0.895708    0.621106    0.000000
 ---------------------------------------------------------------------

 SCF Done:  E(RHF) =  -151.993982301     A.U. after   11 cycles
 E2 =    -0.5429687088D+00 EUMP2 =    -0.15253695101009D+03
 CCSD(T)
 CCSD(T)= -0.15256285722D+03

 The electronic state is 1-A'.
 Alpha  occ. eigenvalues --  -20.53007 -20.51264  -1.35923  -1.27297  -0.72775
 Alpha  occ. eigenvalues --   -0.69161  -0.58181  -0.52059  -0.44017  -0.41538
 Alpha virt. eigenvalues --    0.13997   0.18837   0.19765   0.23981   0.52867
 Alpha virt. eigenvalues --    0.56713   0.58831   0.65102   0.72954   0.77116
 Alpha virt. eigenvalues --    0.81157   0.82247   0.82350   0.84235   0.88777

 Mulliken charges:
               1
     1  O   -0.376751
     2  H    0.175998
     3  H    0.207004
     4  O   -0.373698
     5  H    0.132940
     6  H    0.234506
 Sum of Mulliken charges =  -0.00000

 Dipole moment (field-independent basis, Debye):
    X=             -1.2366    Y=             -0.9770    Z=              0.0000  Tot=              1.5760
 Quadrupole moment (field-independent basis, Debye-Ang):
   XX=             -9.3211   YY=             -7.6302   ZZ=            -14.6689
   XY=             -0.7472   XZ=              0.0000   YZ=              0.0000

 Normal termination of Gaussian 16 at Fri Aug 26 13:31:29 2022.
