 Gaussian 16, Revision A.03,
 Gaussian 16:  ES64L-G16RevA.03 25-Dec-2016

 ------------------
 #p CCSD(T)/cc-pVTZ
 ------------------

 -----------
 H2O_H2O_307
 -----------
 Symbolic Z-matrix:
 Charge =  0 Multiplicity = 1

                         Standard orientation:
 ---------------------------------------------------------------------
 Center     Atomic      Atomic             Coordinates (Angstroms)
 Number     Number       Type             X           Y           Z
 ---------------------------------------------------------------------
      1          8           0        0.025274   -0.956813    0.000000
      2          1           0       -0.775585   -1.526137    0.000000
      3          1           0        0.823553   -1.529749    0.000000
      4          8           0        0.025274    0.968478    0.000000
      5          1           0        0.491737    1.833301    0.000000
      6          1           0       -0.944084    1.129259    0.000000
 ---------------------------------------------------------------------

 SCF Done:  E(RHF) =  -152.037785674     A.U. after   11 cycles
 E2 =    -0.5371399648D+00 EUMP2 =    -0.15257492563902D+03
 CCSD(T)
 CCSD(T)= -0.15260150963D+03

 The electronic state is 1-A'.
 Alpha  occ. eigenvalues --  -20.52019 -20.51656  -1.32740  -1.28214  -0.69279
 Alpha  occ. eigenvalues --   -0.66855  -0.61089  -0.49803  -0.44663  -0.42690
 Alpha virt. eigenvalues --    0.14526   0.18432   0.20285   0.23170   0.51939
 Alpha virt. eigenvalues --    0.58169   0.58847   0.65356   0.69975   0.77935
 Alpha virt. eigenvalues --    0.79004   0.82872   0.83957   0.86238   0.87965

 Mulliken charges:
               1
     1  O   -0.427278
     2  H    0.204445
     3  H    0.220780
     4  O   -0.401722
     5  H    0.175090
     6  H    0.228685
 Sum of Mulliken charges =   0.00000

 Dipole moment (field-independent basis, Debye):
    X=             -0.7260    Y=             -0.2522    Z=              0.0000  Tot=              0.7686
 Quadrupole moment (field-independent basis, Debye-Ang):
   XX=             -8.5361   YY=             -6.2799   ZZ=            -14.7403
   XY=             -0.2835   XZ=              0.0000   YZ=              0.0000

 Normal termination of Gaussian 16 at Fri Aug 26 15:06:53 2022.
