 Gaussian 16, Revision A.03,
 Gaussian 16:  ES64L-G16RevA.03 25-Dec-2016

 ------------------
 #p CCSD(T)/cc-pVTZ
 ------------------

 ------------
 H2O_H2O_1435
 ------------
 Symbolic Z-matrix:
 Charge =  0 Multiplicity = 1

                         Standard orientation:
 ---------------------------------------------------------------------
 Center     Atomic      Atomic             Coordinates (Angstroms)
 Number     Number       Type             X           Y           Z
 ---------------------------------------------------------------------
      1          8           0        0.034791   -1.548717    0.000000
      2          1           0       -0.765874   -2.118315    0.000000
      3          1           0        0.833265   -2.121382    0.000000
      4          8           0        0.034791    1.572188    0.000000
      5          1           0        0.323253    2.511494    0.000000
      6          1           0       -0.947298    1.540433    0.000000
 ---------------------------------------------------------------------

 SCF Done:  E(RHF) =  -152.103626969     A.U. after   10 cycles
 E2 =    -0.5271519764D+00 EUMP2 =    -0.15263077894503D+03
 CCSD(T)
 CCSD(T)= -0.15265802389D+03

 The electronic state is 1-A'.
 Alpha  occ. eigenvalues --  -20.54471 -20.53906  -1.31777  -1.31162  -0.69203
 Alpha  occ. eigenvalues --   -0.68576  -0.55639  -0.53775  -0.48909  -0.48218
 Alpha virt. eigenvalues --    0.14053   0.16598   0.20387   0.22133   0.53002
 Alpha virt. eigenvalues --    0.57330   0.58042   0.58793   0.65255   0.76760
 Alpha virt. eigenvalues --    0.77833   0.78562   0.79264   0.82223   0.85657

 Mulliken charges:
               1
     1  O   -0.480828
     2  H    0.235993
     3  H    0.246025
     4  O   -0.478859
     5  H    0.232470
     6  H    0.245200
 Sum of Mulliken charges =  -0.00000

 Dipole moment (field-independent basis, Debye):
    X=             -1.1425    Y=             -0.4433    Z=              0.0000  Tot=              1.2255
 Quadrupole moment (field-independent basis, Debye-Ang):
   XX=             -8.6248   YY=             -0.4026   ZZ=            -14.7123
   XY=             -1.0737   XZ=              0.0000   YZ=              0.0000

 Normal termination of Gaussian 16 at Sat Aug 27 04:44:58 2022.
