 Gaussian 16, Revision A.03,
 Gaussian 16:  ES64L-G16RevA.03 25-Dec-2016

 ------------------
 #p CCSD(T)/cc-pVTZ
 ------------------

 -----------
 H2O_H2O_344
 -----------
 Symbolic Z-matrix:
 Charge =  0 Multiplicity = 1

                         Standard orientation:
 ---------------------------------------------------------------------
 Center     Atomic      Atomic             Coordinates (Angstroms)
 Number     Number       Type             X           Y           Z
 ---------------------------------------------------------------------
      1          8           0        0.054267   -0.934625    0.000000
      2          1           0       -0.748027   -1.501925    0.000000
      3          1           0        0.851097   -1.509576    0.000000
      4          8           0        0.054267    1.011616    0.000000
      5          1           0       -0.225038    1.953686    0.000000
      6          1           0       -0.746304    0.441886    0.000000
 ---------------------------------------------------------------------

 SCF Done:  E(RHF) =  -152.040958562     A.U. after   11 cycles
 E2 =    -0.5381908295D+00 EUMP2 =    -0.15257914939154D+03
 CCSD(T)
 CCSD(T)= -0.15260552287D+03

 The electronic state is 1-A'.
 Alpha  occ. eigenvalues --  -20.54952 -20.50641  -1.35635  -1.27830  -0.73195
 Alpha  occ. eigenvalues --   -0.69692  -0.54203  -0.51924  -0.48239  -0.44740
 Alpha virt. eigenvalues --    0.13465   0.18827   0.19517   0.25230   0.51036
 Alpha virt. eigenvalues --    0.55886   0.61111   0.64912   0.72508   0.75620
 Alpha virt. eigenvalues --    0.79923   0.81309   0.83959   0.84816   0.88078

 Mulliken charges:
               1
     1  O   -0.391050
     2  H    0.192907
     3  H    0.227538
     4  O   -0.450076
     5  H    0.169824
     6  H    0.250857
 Sum of Mulliken charges =  -0.00000

 Dipole moment (field-independent basis, Debye):
    X=             -1.5433    Y=             -1.7026    Z=              0.0000  Tot=              2.2980
 Quadrupole moment (field-independent basis, Debye-Ang):
   XX=             -9.7184   YY=             -6.7161   ZZ=            -14.6628
   XY=             -1.5149   XZ=              0.0000   YZ=              0.0000

 Normal termination of Gaussian 16 at Fri Aug 26 15:29:49 2022.
