 Gaussian 16, Revision A.03,
 Gaussian 16:  ES64L-G16RevA.03 25-Dec-2016

 ------------------
 #p CCSD(T)/cc-pVTZ
 ------------------

 ------------
 H2O_H2O_1015
 ------------
 Symbolic Z-matrix:
 Charge =  0 Multiplicity = 1

                         Standard orientation:
 ---------------------------------------------------------------------
 Center     Atomic      Atomic             Coordinates (Angstroms)
 Number     Number       Type             X           Y           Z
 ---------------------------------------------------------------------
      1          8           0        0.047566   -1.308019    0.000000
      2          1           0       -0.753753   -1.876697    0.000000
      3          1           0        0.845382   -1.881600    0.000000
      4          8           0        0.047566    1.358493    0.000000
      5          1           0        0.019916    2.340707    0.000000
      6          1           0       -0.872593    1.013798    0.000000
 ---------------------------------------------------------------------

 SCF Done:  E(RHF) =  -152.101460237     A.U. after   11 cycles
 E2 =    -0.5284366633D+00 EUMP2 =    -0.15262989689987D+03
 CCSD(T)
 CCSD(T)= -0.15265709231D+03

 The electronic state is 1-A'.
 Alpha  occ. eigenvalues --  -20.54848 -20.53198  -1.32328  -1.30437  -0.69739
 Alpha  occ. eigenvalues --   -0.68032  -0.56179  -0.52877  -0.49474  -0.47460
 Alpha virt. eigenvalues --    0.13817   0.17272   0.20084   0.23400   0.53463
 Alpha virt. eigenvalues --    0.57627   0.58276   0.58939   0.70187   0.75744
 Alpha virt. eigenvalues --    0.76723   0.77730   0.82567   0.82982   0.85237

 Mulliken charges:
               1
     1  O   -0.475171
     2  H    0.231741
     3  H    0.248884
     4  O   -0.473624
     5  H    0.220139
     6  H    0.248030
 Sum of Mulliken charges =  -0.00000

 Dipole moment (field-independent basis, Debye):
    X=             -1.5111    Y=             -0.9868    Z=              0.0000  Tot=              1.8048
 Quadrupole moment (field-independent basis, Debye-Ang):
   XX=             -9.2940   YY=             -2.8589   ZZ=            -14.7223
   XY=             -1.5198   XZ=              0.0000   YZ=              0.0000

 Normal termination of Gaussian 16 at Sat Aug 27 01:24:01 2022.
