 Gaussian 16, Revision A.03,
 Gaussian 16:  ES64L-G16RevA.03 25-Dec-2016

 ------------------
 #p CCSD(T)/cc-pVTZ
 ------------------

 ------------
 H2O_H2O_4229
 ------------
 Symbolic Z-matrix:
 Charge =  0 Multiplicity = 1

                         Standard orientation:
 ---------------------------------------------------------------------
 Center     Atomic      Atomic             Coordinates (Angstroms)
 Number     Number       Type             X           Y           Z
 ---------------------------------------------------------------------
      1          8           0        0.014783   -3.048500    0.000000
      2          1           0       -0.785026   -3.619299    0.000000
      3          1           0        0.814115   -3.619966    0.000000
      4          8           0        0.014783    3.052380    0.000000
      5          1           0        0.639606    3.810736    0.000000
      6          1           0       -0.905220    3.397491    0.000000
 ---------------------------------------------------------------------

 SCF Done:  E(RHF) =  -152.106772633     A.U. after   10 cycles
 E2 =    -0.5259372027D+00 EUMP2 =    -0.15263270983618D+03
 CCSD(T)
 CCSD(T)= -0.15265994334D+03

 The electronic state is 1-A'.
 Alpha  occ. eigenvalues --  -20.55176 -20.55152  -1.32472  -1.32448  -0.69879
 Alpha  occ. eigenvalues --   -0.69854  -0.55890  -0.55866  -0.49579  -0.49555
 Alpha virt. eigenvalues --    0.14434   0.14486   0.20486   0.20519   0.54689
 Alpha virt. eigenvalues --    0.54718   0.57552   0.57578   0.68304   0.68420
 Alpha virt. eigenvalues --    0.79300   0.79324   0.80745   0.80771   0.82674

 Mulliken charges:
               1
     1  O   -0.505120
     2  H    0.252190
     3  H    0.252930
     4  O   -0.505093
     5  H    0.252028
     6  H    0.253064
 Sum of Mulliken charges =  -0.00000

 Dipole moment (field-independent basis, Debye):
    X=             -0.5076    Y=             -0.0678    Z=              0.0000  Tot=              0.5121
 Quadrupole moment (field-independent basis, Debye-Ang):
   XX=             -7.9416   YY=             12.0863   ZZ=            -14.7106
   XY=             -1.1045   XZ=              0.0000   YZ=              0.0000

 Normal termination of Gaussian 16 at Sat Aug 27 06:08:48 2022.
