 Gaussian 16, Revision A.03,
 Gaussian 16:  ES64L-G16RevA.03 25-Dec-2016

 ------------------
 #p CCSD(T)/cc-pVTZ
 ------------------

 ------------
 H2O_H2O_2071
 ------------
 Symbolic Z-matrix:
 Charge =  0 Multiplicity = 1

                         Standard orientation:
 ---------------------------------------------------------------------
 Center     Atomic      Atomic             Coordinates (Angstroms)
 Number     Number       Type             X           Y           Z
 ---------------------------------------------------------------------
      1          8           0        0.056133   -1.844084    0.000000
      2          1           0       -0.744893   -2.413174    0.000000
      3          1           0        0.854244   -2.417254    0.000000
      4          8           0        0.056133    1.935740    0.000000
      5          1           0       -0.345750    2.832398    0.000000
      6          1           0       -0.661728    1.264784    0.000000
 ---------------------------------------------------------------------

 SCF Done:  E(RHF) =  -152.108313645     A.U. after   10 cycles
 E2 =    -0.5263061810D+00 EUMP2 =    -0.15263461982597D+03
 CCSD(T)
 CCSD(T)= -0.15266177798D+03

 The electronic state is 1-A'.
 Alpha  occ. eigenvalues --  -20.55931 -20.54187  -1.33202  -1.31480  -0.70610
 Alpha  occ. eigenvalues --   -0.68847  -0.56654  -0.54936  -0.50320  -0.48607
 Alpha virt. eigenvalues --    0.13105   0.16239   0.19867   0.23069   0.53874
 Alpha virt. eigenvalues --    0.54818   0.56933   0.58542   0.65805   0.74585
 Alpha virt. eigenvalues --    0.78267   0.79059   0.79918   0.80440   0.84326

 Mulliken charges:
               1
     1  O   -0.501972
     2  H    0.248362
     3  H    0.257593
     4  O   -0.510563
     5  H    0.244502
     6  H    0.262079
 Sum of Mulliken charges =  -0.00000

 Dipole moment (field-independent basis, Debye):
    X=             -1.8880    Y=             -1.6997    Z=              0.0000  Tot=              2.5403
 Quadrupole moment (field-independent basis, Debye-Ang):
   XX=             -9.7832   YY=             -1.1591   ZZ=            -14.7173
   XY=             -3.5443   XZ=              0.0000   YZ=              0.0000

 Normal termination of Gaussian 16 at Sat Aug 27 08:25:18 2022.
