 Gaussian 16, Revision A.03,
 Gaussian 16:  ES64L-G16RevA.03 25-Dec-2016

 ------------------
 #p CCSD(T)/cc-pVTZ
 ------------------

 -----------
 H2O_H2O_607
 -----------
 Symbolic Z-matrix:
 Charge =  0 Multiplicity = 1

                         Standard orientation:
 ---------------------------------------------------------------------
 Center     Atomic      Atomic             Coordinates (Angstroms)
 Number     Number       Type             X           Y           Z
 ---------------------------------------------------------------------
      1          8           0        0.025272   -1.116355    0.000000
      2          1           0       -0.775404   -1.685937    0.000000
      3          1           0        0.823735   -1.689035    0.000000
      4          8           0        0.025272    1.128037    0.000000
      5          1           0        0.491457    1.993009    0.000000
      6          1           0       -0.944138    1.288507    0.000000
 ---------------------------------------------------------------------

 SCF Done:  E(RHF) =  -152.080739854     A.U. after   11 cycles
 E2 =    -0.5313199439D+00 EUMP2 =    -0.15261205979774D+03
 CCSD(T)
 CCSD(T)= -0.15263921701D+03

 The electronic state is 1-A'.
 Alpha  occ. eigenvalues --  -20.52885 -20.52513  -1.31434  -1.29511  -0.68559
 Alpha  occ. eigenvalues --   -0.67322  -0.58275  -0.48728  -0.47994  -0.46159
 Alpha virt. eigenvalues --    0.14469   0.17788   0.20463   0.22840   0.51571
 Alpha virt. eigenvalues --    0.58686   0.58718   0.63769   0.70701   0.76695
 Alpha virt. eigenvalues --    0.77591   0.81322   0.84025   0.86388   0.87262

 Mulliken charges:
               1
     1  O   -0.455324
     2  H    0.219946
     3  H    0.233400
     4  O   -0.437522
     5  H    0.204741
     6  H    0.234760
 Sum of Mulliken charges =  -0.00000

 Dipole moment (field-independent basis, Debye):
    X=             -0.7650    Y=             -0.2326    Z=              0.0000  Tot=              0.7995
 Quadrupole moment (field-independent basis, Debye-Ang):
   XX=             -8.4217   YY=             -4.2642   ZZ=            -14.7349
   XY=             -0.3540   XZ=              0.0000   YZ=              0.0000

 818\MP4DQ=-152.6201855\MP4SDQ=-152.6235318\CCSD=-152.6228362\CCSD(T)=-
 Normal termination of Gaussian 16 at Fri Aug 26 18:10:06 2022.
