 Gaussian 16, Revision A.03,
 Gaussian 16:  ES64L-G16RevA.03 25-Dec-2016

 ------------------
 #p CCSD(T)/cc-pVTZ
 ------------------

 ------------
 H2O_H2O_4162
 ------------
 Symbolic Z-matrix:
 Charge =  0 Multiplicity = 1

                         Standard orientation:
 ---------------------------------------------------------------------
 Center     Atomic      Atomic             Coordinates (Angstroms)
 Number     Number       Type             X           Y           Z
 ---------------------------------------------------------------------
      1          8           0        0.040404   -2.992601    0.000000
      2          1           0       -0.759826   -3.562808    0.000000
      3          1           0        0.839315   -3.564656    0.000000
      4          8           0        0.040404    3.025963    0.000000
      5          1           0        0.203055    3.995009    0.000000
      6          1           0       -0.929016    2.865552    0.000000
 ---------------------------------------------------------------------

 SCF Done:  E(RHF) =  -152.107009774     A.U. after   10 cycles
 E2 =    -0.5259190825D+00 EUMP2 =    -0.15263292885663D+03
 CCSD(T)
 CCSD(T)= -0.15266015715D+03

 The electronic state is 1-A'.
 Alpha  occ. eigenvalues --  -20.55338 -20.55125  -1.32635  -1.32420  -0.70042
 Alpha  occ. eigenvalues --   -0.69823  -0.56064  -0.55849  -0.49744  -0.49530
 Alpha virt. eigenvalues --    0.14290   0.14532   0.20356   0.20588   0.54522
 Alpha virt. eigenvalues --    0.54756   0.57407   0.57623   0.68115   0.68415
 Alpha virt. eigenvalues --    0.79136   0.79346   0.80574   0.80806   0.82506

 Mulliken charges:
               1
     1  O   -0.506536
     2  H    0.252219
     3  H    0.254318
     4  O   -0.506349
     5  H    0.251535
     6  H    0.254814
 Sum of Mulliken charges =  -0.00000

 Dipole moment (field-independent basis, Debye):
    X=             -1.3873    Y=             -0.5835    Z=              0.0000  Tot=              1.5050
 Quadrupole moment (field-independent basis, Debye-Ang):
   XX=             -8.8308   YY=              9.5062   ZZ=            -14.7112
   XY=             -3.3381   XZ=              0.0000   YZ=              0.0000

 Normal termination of Gaussian 16 at Sat Aug 27 05:43:53 2022.
