 Gaussian 16, Revision A.03,
 Gaussian 16:  ES64L-G16RevA.03 25-Dec-2016

 ------------------
 #p CCSD(T)/cc-pVTZ
 ------------------

 -----------
 H2O_H2O_314
 -----------
 Symbolic Z-matrix:
 Charge =  0 Multiplicity = 1

                         Standard orientation:
 ---------------------------------------------------------------------
 Center     Atomic      Atomic             Coordinates (Angstroms)
 Number     Number       Type             X           Y           Z
 ---------------------------------------------------------------------
      1          8           0        0.045401   -0.939074    0.000000
      2          1           0       -0.756481   -1.506956    0.000000
      3          1           0        0.842648   -1.513445    0.000000
      4          8           0        0.045401    0.983395    0.000000
      5          1           0        0.083025    1.965276    0.000000
      6          1           0       -0.895612    0.700551    0.000000
 ---------------------------------------------------------------------

 SCF Done:  E(RHF) =  -152.041760796     A.U. after   11 cycles
 E2 =    -0.5373780053D+00 EUMP2 =    -0.15257913880174D+03
 CCSD(T)
 CCSD(T)= -0.15260572044D+03

 The electronic state is 1-A'.
 Alpha  occ. eigenvalues --  -20.53321 -20.51595  -1.33967  -1.28201  -0.71096
 Alpha  occ. eigenvalues --   -0.68331  -0.57846  -0.50711  -0.45329  -0.44911
 Alpha virt. eigenvalues --    0.14053   0.18426   0.19928   0.23922   0.52995
 Alpha virt. eigenvalues --    0.57106   0.58775   0.63982   0.72265   0.76515
 Alpha virt. eigenvalues --    0.80505   0.82418   0.82921   0.84668   0.88417

 Mulliken charges:
               1
     1  O   -0.415553
     2  H    0.197325
     3  H    0.221132
     4  O   -0.402156
     5  H    0.162246
     6  H    0.237006
 Sum of Mulliken charges =  -0.00000

 Dipole moment (field-independent basis, Debye):
    X=             -1.2875    Y=             -0.9273    Z=              0.0000  Tot=              1.5867
 Quadrupole moment (field-independent basis, Debye-Ang):
   XX=             -9.2815   YY=             -6.3991   ZZ=            -14.7004
   XY=             -0.8425   XZ=              0.0000   YZ=              0.0000

 Normal termination of Gaussian 16 at Fri Aug 26 15:10:27 2022.
