 Gaussian 16, Revision A.03,
 Gaussian 16:  ES64L-G16RevA.03 25-Dec-2016

 ------------------
 #p CCSD(T)/cc-pVTZ
 ------------------

 -----------
 H2O_H2O_422
 -----------
 Symbolic Z-matrix:
 Charge =  0 Multiplicity = 1

                         Standard orientation:
 ---------------------------------------------------------------------
 Center     Atomic      Atomic             Coordinates (Angstroms)
 Number     Number       Type             X           Y           Z
 ---------------------------------------------------------------------
      1          8           0        0.056863   -0.962685    0.000000
      2          1           0       -0.745449   -1.529959    0.000000
      3          1           0        0.853674   -1.537662    0.000000
      4          8           0        0.056863    1.061455    0.000000
      5          1           0       -0.400835    1.930949    0.000000
      6          1           0       -0.617199    0.346511    0.000000
 ---------------------------------------------------------------------

 SCF Done:  E(RHF) =  -152.051363408     A.U. after   11 cycles
 E2 =    -0.5374104054D+00 EUMP2 =    -0.15258877381308D+03
 CCSD(T)
 CCSD(T)= -0.15261497847D+03

 The electronic state is 1-A'.
 Alpha  occ. eigenvalues --  -20.56462 -20.49667  -1.36714  -1.27501  -0.74305
 Alpha  occ. eigenvalues --   -0.70490  -0.52882  -0.52000  -0.50850  -0.44439
 Alpha virt. eigenvalues --    0.12951   0.18759   0.19465   0.26700   0.49723
 Alpha virt. eigenvalues --    0.54906   0.62260   0.66324   0.72296   0.74782
 Alpha virt. eigenvalues --    0.78385   0.80606   0.83774   0.85265   0.87705

 Mulliken charges:
               1
     1  O   -0.382513
     2  H    0.202212
     3  H    0.236462
     4  O   -0.501859
     5  H    0.184397
     6  H    0.261300
 Sum of Mulliken charges =  -0.00000

 Dipole moment (field-independent basis, Debye):
    X=             -1.6462    Y=             -2.3290    Z=              0.0000  Tot=              2.8520
 Quadrupole moment (field-independent basis, Debye-Ang):
   XX=             -9.8252   YY=             -6.8484   ZZ=            -14.6488
   XY=             -2.0496   XZ=              0.0000   YZ=              0.0000

 035781\MP4DQ=-152.595233\MP4SDQ=-152.598686\CCSD=-152.5979327\CCSD(T)=
 Normal termination of Gaussian 16 at Fri Aug 26 16:19:05 2022.
