 Gaussian 16, Revision A.03,
 Gaussian 16:  ES64L-G16RevA.03 25-Dec-2016

 ------------------
 #p CCSD(T)/cc-pVTZ
 ------------------

 -----------
 H2O_H2O_185
 -----------
 Symbolic Z-matrix:
 Charge =  0 Multiplicity = 1

                         Standard orientation:
 ---------------------------------------------------------------------
 Center     Atomic      Atomic             Coordinates (Angstroms)
 Number     Number       Type             X           Y           Z
 ---------------------------------------------------------------------
      1          8           0        0.034808   -0.883973    0.000000
      2          1           0       -0.766668   -1.452430    0.000000
      3          1           0        0.832466   -1.457774    0.000000
      4          8           0        0.034808    0.907346    0.000000
      5          1           0        0.324607    1.846239    0.000000
      6          1           0       -0.947325    0.876988    0.000000
 ---------------------------------------------------------------------

 SCF Done:  E(RHF) =  -152.003846248     A.U. after   11 cycles
 E2 =    -0.5415744267D+00 EUMP2 =    -0.15254542067444D+03
 CCSD(T)
 CCSD(T)= -0.15257144649D+03

 The electronic state is 1-A'.
 Alpha  occ. eigenvalues --  -20.52198 -20.51447  -1.34550  -1.27552  -0.70956
 Alpha  occ. eigenvalues --   -0.67914  -0.60810  -0.51157  -0.44059  -0.40400
 Alpha virt. eigenvalues --    0.14311   0.18720   0.19990   0.23524   0.53387
 Alpha virt. eigenvalues --    0.56625   0.58665   0.65091   0.71589   0.77875
 Alpha virt. eigenvalues --    0.79696   0.82528   0.83361   0.85243   0.88609

 Mulliken charges:
               1
     1  O   -0.399684
     2  H    0.188842
     3  H    0.209826
     4  O   -0.372367
     5  H    0.144736
     6  H    0.228647
 Sum of Mulliken charges =  -0.00000

 Dipole moment (field-independent basis, Debye):
    X=             -0.9689    Y=             -0.5251    Z=              0.0000  Tot=              1.1020
 Quadrupole moment (field-independent basis, Debye-Ang):
   XX=             -8.8882   YY=             -7.3428   ZZ=            -14.7132
   XY=             -0.4528   XZ=              0.0000   YZ=              0.0000

 Normal termination of Gaussian 16 at Fri Aug 26 13:45:48 2022.
