 Gaussian 16, Revision A.03,
 Gaussian 16:  ES64L-G16RevA.03 25-Dec-2016

 ------------------
 #p CCSD(T)/cc-pVTZ
 ------------------

 ------------
 H2O_H2O_1795
 ------------
 Symbolic Z-matrix:
 Charge =  0 Multiplicity = 1

                         Standard orientation:
 ---------------------------------------------------------------------
 Center     Atomic      Atomic             Coordinates (Angstroms)
 Number     Number       Type             X           Y           Z
 ---------------------------------------------------------------------
      1          8           0        0.055282   -1.701790    0.000000
      2          1           0       -0.745841   -2.270743    0.000000
      3          1           0        0.853295   -2.275097    0.000000
      4          8           0        0.055282    1.786152    0.000000
      5          1           0       -0.286938    2.707233    0.000000
      6          1           0       -0.705031    1.163713    0.000000
 ---------------------------------------------------------------------

 SCF Done:  E(RHF) =  -152.108060346     A.U. after   10 cycles
 E2 =    -0.5265718013D+00 EUMP2 =    -0.15263463214773D+03
 CCSD(T)
 CCSD(T)= -0.15266178308D+03

 The electronic state is 1-A'.
 Alpha  occ. eigenvalues --  -20.55868 -20.53968  -1.33139  -1.31252  -0.70551
 Alpha  occ. eigenvalues --   -0.68625  -0.56566  -0.54696  -0.50257  -0.48380
 Alpha virt. eigenvalues --    0.13223   0.16529   0.19868   0.23443   0.53739
 Alpha virt. eigenvalues --    0.54921   0.56956   0.58382   0.65733   0.75560
 Alpha virt. eigenvalues --    0.77809   0.78034   0.78890   0.80964   0.84582

 Mulliken charges:
               1
     1  O   -0.496566
     2  H    0.245410
     3  H    0.256540
     4  O   -0.507405
     5  H    0.241187
     6  H    0.260833
 Sum of Mulliken charges =  -0.00000

 Dipole moment (field-independent basis, Debye):
    X=             -1.8431    Y=             -1.5891    Z=              0.0000  Tot=              2.4336
 Quadrupole moment (field-independent basis, Debye-Ang):
   XX=             -9.7276   YY=             -1.5081   ZZ=            -14.7184
   XY=             -3.0958   XZ=              0.0000   YZ=              0.0000

 Normal termination of Gaussian 16 at Sat Aug 27 06:49:51 2022.
