 Gaussian 16, Revision A.03,
 Gaussian 16:  ES64L-G16RevA.03 25-Dec-2016

 ------------------
 #p CCSD(T)/cc-pVTZ
 ------------------

 ------------
 H2O_H2O_3827
 ------------
 Symbolic Z-matrix:
 Charge =  0 Multiplicity = 1

                         Standard orientation:
 ---------------------------------------------------------------------
 Center     Atomic      Atomic             Coordinates (Angstroms)
 Number     Number       Type             X           Y           Z
 ---------------------------------------------------------------------
      1          8           0        0.007455   -2.837344    0.000000
      2          1           0       -0.792245   -3.408295    0.000000
      3          1           0        0.806897   -3.408657    0.000000
      4          8           0        0.007455    2.838318    0.000000
      5          1           0        0.725789    3.508767    0.000000
      6          1           0       -0.859720    3.300395    0.000000
 ---------------------------------------------------------------------

 SCF Done:  E(RHF) =  -152.106572280     A.U. after   10 cycles
 E2 =    -0.5259621793D+00 EUMP2 =    -0.15263253445890D+03
 CCSD(T)
 CCSD(T)= -0.15265977178D+03

 The electronic state is 1-A'.
 Alpha  occ. eigenvalues --  -20.55085 -20.55078  -1.32379  -1.32372  -0.69787
 Alpha  occ. eigenvalues --   -0.69780  -0.55788  -0.55780  -0.49485  -0.49478
 Alpha virt. eigenvalues --    0.14471   0.14582   0.20537   0.20580   0.54769
 Alpha virt. eigenvalues --    0.54806   0.57622   0.57644   0.68276   0.68669
 Alpha virt. eigenvalues --    0.79393   0.79400   0.80836   0.80855   0.82762

 Mulliken charges:
               1
     1  O   -0.503941
     2  H    0.251742
     3  H    0.252199
     4  O   -0.503931
     5  H    0.251656
     6  H    0.252276
 Sum of Mulliken charges =  -0.00000

 Dipole moment (field-independent basis, Debye):
    X=             -0.2556    Y=             -0.0171    Z=              0.0000  Tot=              0.2562
 Quadrupole moment (field-independent basis, Debye-Ang):
   XX=             -7.8422   YY=             10.5983   ZZ=            -14.7103
   XY=             -0.4963   XZ=              0.0000   YZ=              0.0000

 2203\MP4DQ=-152.6416587\MP4SDQ=-152.6447211\CCSD=-152.6441319\CCSD(T)=
 Normal termination of Gaussian 16 at Sat Aug 27 03:37:10 2022.
