 Gaussian 16, Revision A.03,
 Gaussian 16:  ES64L-G16RevA.03 25-Dec-2016

 ------------------
 #p CCSD(T)/cc-pVTZ
 ------------------

 ------------
 H2O_H2O_2206
 ------------
 Symbolic Z-matrix:
 Charge =  0 Multiplicity = 1

                         Standard orientation:
 ---------------------------------------------------------------------
 Center     Atomic      Atomic             Coordinates (Angstroms)
 Number     Number       Type             X           Y           Z
 ---------------------------------------------------------------------
      1          8           0        0.021860   -1.968939    0.000000
      2          1           0       -0.778255   -2.539308    0.000000
      3          1           0        0.820886   -2.540833    0.000000
      4          8           0        0.021860    1.977592    0.000000
      5          1           0        0.542800    2.810736    0.000000
      6          1           0       -0.935198    2.200180    0.000000
 ---------------------------------------------------------------------

 SCF Done:  E(RHF) =  -152.105271367     A.U. after   10 cycles
 E2 =    -0.5263106025D+00 EUMP2 =    -0.15263158196955D+03
 CCSD(T)
 CCSD(T)= -0.15265882505D+03

 The electronic state is 1-A'.
 Alpha  occ. eigenvalues --  -20.54656 -20.54522  -1.31939  -1.31802  -0.69356
 Alpha  occ. eigenvalues --   -0.69213  -0.55400  -0.54990  -0.49041  -0.48896
 Alpha virt. eigenvalues --    0.14110   0.15686   0.20562   0.21204   0.54036
 Alpha virt. eigenvalues --    0.55998   0.57882   0.58168   0.62632   0.74848
 Alpha virt. eigenvalues --    0.79449   0.80331   0.80449   0.81182   0.82358

 Mulliken charges:
               1
     1  O   -0.494538
     2  H    0.245548
     3  H    0.249129
     4  O   -0.494369
     5  H    0.244896
     6  H    0.249334
 Sum of Mulliken charges =   0.00000

 Dipole moment (field-independent basis, Debye):
    X=             -0.7379    Y=             -0.1572    Z=              0.0000  Tot=              0.7545
 Quadrupole moment (field-independent basis, Debye-Ang):
   XX=             -8.1331   YY=              3.3325   ZZ=            -14.7098
   XY=             -0.8721   XZ=              0.0000   YZ=              0.0000

 Normal termination of Gaussian 16 at Sat Aug 27 09:12:35 2022.
