 Gaussian 16, Revision A.03,
 Gaussian 16:  ES64L-G16RevA.03 25-Dec-2016

 ------------------
 #p CCSD(T)/cc-pVTZ
 ------------------

 ------------
 H2O_H2O_1117
 ------------
 Symbolic Z-matrix:
 Charge =  0 Multiplicity = 1

                         Standard orientation:
 ---------------------------------------------------------------------
 Center     Atomic      Atomic             Coordinates (Angstroms)
 Number     Number       Type             X           Y           Z
 ---------------------------------------------------------------------
      1          8           0        0.051324   -1.354194    0.000000
      2          1           0       -0.750060   -1.922780    0.000000
      3          1           0        0.849074   -1.927868    0.000000
      4          8           0        0.051324    1.417574    0.000000
      5          1           0       -0.104180    2.387792    0.000000
      6          1           0       -0.816023    0.955822    0.000000
 ---------------------------------------------------------------------

 SCF Done:  E(RHF) =  -152.103994860     A.U. after   10 cycles
 E2 =    -0.5280711012D+00 EUMP2 =    -0.15263206596070D+03
 CCSD(T)
 CCSD(T)= -0.15265923154D+03

 The electronic state is 1-A'.
 Alpha  occ. eigenvalues --  -20.55315 -20.53250  -1.32724  -1.30506  -0.70141
 Alpha  occ. eigenvalues --   -0.68075  -0.56172  -0.53521  -0.49847  -0.47579
 Alpha virt. eigenvalues --    0.13616   0.17249   0.19955   0.23714   0.53382
 Alpha virt. eigenvalues --    0.57335   0.57787   0.58527   0.69776   0.75675
 Alpha virt. eigenvalues --    0.75790   0.77906   0.81515   0.82668   0.84921

 Mulliken charges:
               1
     1  O   -0.479115
     2  H    0.234998
     3  H    0.252024
     4  O   -0.485277
     5  H    0.225011
     6  H    0.252358
 Sum of Mulliken charges =  -0.00000

 Dipole moment (field-independent basis, Debye):
    X=             -1.6454    Y=             -1.2420    Z=              0.0000  Tot=              2.0615
 Quadrupole moment (field-independent basis, Debye-Ang):
   XX=             -9.5016   YY=             -2.8318   ZZ=            -14.7227
   XY=             -1.9348   XZ=              0.0000   YZ=              0.0000

 Normal termination of Gaussian 16 at Sat Aug 27 02:15:55 2022.
