 Gaussian 16, Revision A.03,
 Gaussian 16:  ES64L-G16RevA.03 25-Dec-2016

 ------------------
 #p CCSD(T)/cc-pVTZ
 ------------------

 ----------
 H2O_H2O_24
 ----------
 Symbolic Z-matrix:
 Charge =  0 Multiplicity = 1

                         Standard orientation:
 ---------------------------------------------------------------------
 Center     Atomic      Atomic             Coordinates (Angstroms)
 Number     Number       Type             X           Y           Z
 ---------------------------------------------------------------------
      1          8           0        0.057464   -0.741937    0.000000
      2          1           0       -0.745608   -1.308136    0.000000
      3          1           0        0.853504   -1.317980    0.000000
      4          8           0        0.057464    0.855458    0.000000
      5          1           0       -0.508736    1.658530    0.000000
      6          1           0       -0.518579    0.059417    0.000000
 ---------------------------------------------------------------------

 SCF Done:  E(RHF) =  -151.801645712     A.U. after   12 cycles
 E2 =    -0.5570647759D+00 EUMP2 =    -0.15235871048836D+03
 CCSD(T)
 CCSD(T)= -0.15238157124D+03

 The electronic state is 1-A'.
 Alpha  occ. eigenvalues --  -20.59061 -20.44091  -1.49642  -1.24006  -0.85275
 Alpha  occ. eigenvalues --   -0.76274  -0.59844  -0.48650  -0.40586  -0.37280
 Alpha virt. eigenvalues --    0.11908   0.16499   0.21783   0.27489   0.47461
 Alpha virt. eigenvalues --    0.51550   0.63896   0.70852   0.71866   0.75202
 Alpha virt. eigenvalues --    0.76830   0.77954   0.85097   0.85401   0.90016

 Mulliken charges:
               1
     1  O   -0.167007
     2  H    0.153111
     3  H    0.220042
     4  O   -0.585506
     5  H    0.111826
     6  H    0.267535
 Sum of Mulliken charges =   0.00000

 Dipole moment (field-independent basis, Debye):
    X=             -1.3481    Y=             -3.3993    Z=              0.0000  Tot=              3.6568
 Quadrupole moment (field-independent basis, Debye-Ang):
   XX=             -9.8421   YY=            -10.2001   ZZ=            -14.4379
   XY=             -1.8499   XZ=              0.0000   YZ=              0.0000

 Normal termination of Gaussian 16 at Fri Aug 26 11:59:19 2022.
