 Gaussian 16, Revision A.03,
 Gaussian 16:  ES64L-G16RevA.03 25-Dec-2016

 ------------------
 #p CCSD(T)/cc-pVTZ
 ------------------

 -----------
 H2O_H2O_589
 -----------
 Symbolic Z-matrix:
 Charge =  0 Multiplicity = 1

                         Standard orientation:
 ---------------------------------------------------------------------
 Center     Atomic      Atomic             Coordinates (Angstroms)
 Number     Number       Type             X           Y           Z
 ---------------------------------------------------------------------
      1          8           0        0.045389   -1.085303    0.000000
      2          1           0       -0.756188   -1.653616    0.000000
      3          1           0        0.842944   -1.659248    0.000000
      4          8           0        0.045389    1.129674    0.000000
      5          1           0        0.082487    2.111574    0.000000
      6          1           0       -0.895472    0.846325    0.000000
 ---------------------------------------------------------------------

 SCF Done:  E(RHF) =  -152.082724259     A.U. after   11 cycles
 E2 =    -0.5318072834D+00 EUMP2 =    -0.15261453154213D+03
 CCSD(T)
 CCSD(T)= -0.15264159991D+03

 The electronic state is 1-A'.
 Alpha  occ. eigenvalues --  -20.54013 -20.52352  -1.32501  -1.29430  -0.69777
 Alpha  occ. eigenvalues --   -0.67879  -0.57090  -0.49635  -0.49587  -0.46242
 Alpha virt. eigenvalues --    0.14010   0.17866   0.20089   0.23705   0.53053
 Alpha virt. eigenvalues --    0.57607   0.58499   0.62050   0.71325   0.75535
 Alpha virt. eigenvalues --    0.79118   0.81765   0.83281   0.85258   0.87847

 Mulliken charges:
               1
     1  O   -0.454281
     2  H    0.218876
     3  H    0.238275
     4  O   -0.439538
     5  H    0.193343
     6  H    0.243324
 Sum of Mulliken charges =  -0.00000

 Dipole moment (field-independent basis, Debye):
    X=             -1.3638    Y=             -0.8889    Z=              0.0000  Tot=              1.6279
 Quadrupole moment (field-independent basis, Debye-Ang):
   XX=             -9.2314   YY=             -4.7104   ZZ=            -14.7238
   XY=             -1.0417   XZ=              0.0000   YZ=              0.0000

 05476\MP4DQ=-152.6225469\MP4SDQ=-152.62589\CCSD=-152.6251938\CCSD(T)=-
 Normal termination of Gaussian 16 at Fri Aug 26 17:55:03 2022.
