 Gaussian 16, Revision A.03,
 Gaussian 16:  ES64L-G16RevA.03 25-Dec-2016

 ------------------
 #p CCSD(T)/cc-pVTZ
 ------------------

 ------------
 H2O_H2O_2566
 ------------
 Symbolic Z-matrix:
 Charge =  0 Multiplicity = 1

                         Standard orientation:
 ---------------------------------------------------------------------
 Center     Atomic      Atomic             Coordinates (Angstroms)
 Number     Number       Type             X           Y           Z
 ---------------------------------------------------------------------
      1          8           0        0.049518   -2.128869    0.000000
      2          1           0       -0.751179   -2.698422    0.000000
      3          1           0        0.847960   -2.701578    0.000000
      4          8           0        0.049518    2.185787    0.000000
      5          1           0       -0.043381    3.163987    0.000000
      6          1           0       -0.845684    1.780670    0.000000
 ---------------------------------------------------------------------

 SCF Done:  E(RHF) =  -152.106949394     A.U. after   10 cycles
 E2 =    -0.5260857477D+00 EUMP2 =    -0.15263303514169D+03
 CCSD(T)
 CCSD(T)= -0.15266024865D+03

 The electronic state is 1-A'.
 Alpha  occ. eigenvalues --  -20.55373 -20.54611  -1.32661  -1.31899  -0.70072
 Alpha  occ. eigenvalues --   -0.69285  -0.56077  -0.55316  -0.49770  -0.49012
 Alpha virt. eigenvalues --    0.13600   0.15541   0.20188   0.21456   0.54026
 Alpha virt. eigenvalues --    0.54913   0.57396   0.58080   0.65780   0.73120
 Alpha virt. eigenvalues --    0.79079   0.79884   0.80067   0.81905   0.83066

 Mulliken charges:
               1
     1  O   -0.504249
     2  H    0.249245
     3  H    0.255638
     4  O   -0.504784
     5  H    0.246958
     6  H    0.257193
 Sum of Mulliken charges =  -0.00000

 Dipole moment (field-independent basis, Debye):
    X=             -1.6815    Y=             -1.0243    Z=              0.0000  Tot=              1.9689
 Quadrupole moment (field-independent basis, Debye-Ang):
   XX=             -9.3489   YY=              2.3504   ZZ=            -14.7125
   XY=             -3.0300   XZ=              0.0000   YZ=              0.0000

 Normal termination of Gaussian 16 at Fri Aug 26 13:48:23 2022.
