 Gaussian 16, Revision A.03,
 Gaussian 16:  ES64L-G16RevA.03 25-Dec-2016

 ------------------
 #p CCSD(T)/cc-pVTZ
 ------------------

 -----------
 H2O_H2O_504
 -----------
 Symbolic Z-matrix:
 Charge =  0 Multiplicity = 1

                         Standard orientation:
 ---------------------------------------------------------------------
 Center     Atomic      Atomic             Coordinates (Angstroms)
 Number     Number       Type             X           Y           Z
 ---------------------------------------------------------------------
      1          8           0        0.014784   -1.067422    0.000000
      2          1           0       -0.785466   -1.637602    0.000000
      3          1           0        0.813675   -1.639505    0.000000
      4          8           0        0.014784    1.071279    0.000000
      5          1           0        0.640194    1.829150    0.000000
      6          1           0       -0.904952    1.417100    0.000000
 ---------------------------------------------------------------------

 SCF Done:  E(RHF) =  -152.069437426     A.U. after   11 cycles
 E2 =    -0.5327532779D+00 EUMP2 =    -0.15260219070384D+03
 CCSD(T)
 CCSD(T)= -0.15262924710D+03

 The electronic state is 1-A'.
 Alpha  occ. eigenvalues --  -20.52313 -20.52192  -1.31479  -1.29068  -0.68400
 Alpha  occ. eigenvalues --   -0.66908  -0.59431  -0.48769  -0.46064  -0.45608
 Alpha virt. eigenvalues --    0.14592   0.18098   0.20510   0.22764   0.50659
 Alpha virt. eigenvalues --    0.58977   0.59060   0.65175   0.70656   0.77287
 Alpha virt. eigenvalues --    0.78235   0.82072   0.84300   0.86634   0.87172

 Mulliken charges:
               1
     1  O   -0.444231
     2  H    0.217395
     3  H    0.225747
     4  O   -0.435540
     5  H    0.207256
     6  H    0.229372
 Sum of Mulliken charges =  -0.00000

 Dipole moment (field-independent basis, Debye):
    X=             -0.4411    Y=             -0.0788    Z=              0.0000  Tot=              0.4480
 Quadrupole moment (field-independent basis, Debye-Ang):
   XX=             -8.2173   YY=             -4.8675   ZZ=            -14.7435
   XY=             -0.1596   XZ=              0.0000   YZ=              0.0000

 Normal termination of Gaussian 16 at Fri Aug 26 17:07:52 2022.
