 Gaussian 16, Revision A.03,
 Gaussian 16:  ES64L-G16RevA.03 25-Dec-2016

 ------------------
 #p CCSD(T)/cc-pVTZ
 ------------------

 -----------
 H2O_H2O_797
 -----------
 Symbolic Z-matrix:
 Charge =  0 Multiplicity = 1

                         Standard orientation:
 ---------------------------------------------------------------------
 Center     Atomic      Atomic             Coordinates (Angstroms)
 Number     Number       Type             X           Y           Z
 ---------------------------------------------------------------------
      1          8           0        0.056824   -1.162077    0.000000
      2          1           0       -0.745039   -1.729987    0.000000
      3          1           0        0.854091   -1.736421    0.000000
      4          8           0        0.056824    1.260937    0.000000
      5          1           0       -0.401564    2.130067    0.000000
      6          1           0       -0.616671    0.545458    0.000000
 ---------------------------------------------------------------------

 SCF Done:  E(RHF) =  -152.097642491     A.U. after   11 cycles
 E2 =    -0.5308326401D+00 EUMP2 =    -0.15262847513152D+03
 CCSD(T)
 CCSD(T)= -0.15265535487D+03

 The electronic state is 1-A'.
 Alpha  occ. eigenvalues --  -20.56569 -20.51712  -1.34558  -1.29202  -0.71900
 Alpha  occ. eigenvalues --   -0.68488  -0.55842  -0.52805  -0.51518  -0.46249
 Alpha virt. eigenvalues --    0.13069   0.18292   0.19395   0.26261   0.50706
 Alpha virt. eigenvalues --    0.56038   0.60541   0.61848   0.71528   0.73642
 Alpha virt. eigenvalues --    0.76295   0.82650   0.83005   0.83681   0.86894

 Mulliken charges:
               1
     1  O   -0.454067
     2  H    0.230537
     3  H    0.250710
     4  O   -0.507483
     5  H    0.216198
     6  H    0.264106
 Sum of Mulliken charges =  -0.00000

 Dipole moment (field-independent basis, Debye):
    X=             -1.7640    Y=             -2.1171    Z=              0.0000  Tot=              2.7557
 Quadrupole moment (field-independent basis, Debye-Ang):
   XX=             -9.8316   YY=             -5.2386   ZZ=            -14.7123
   XY=             -2.4511   XZ=              0.0000   YZ=              0.0000

 Normal termination of Gaussian 16 at Fri Aug 26 20:07:07 2022.
