 Gaussian 16, Revision A.03,
 Gaussian 16:  ES64L-G16RevA.03 25-Dec-2016

 ------------------
 #p CCSD(T)/cc-pVTZ
 ------------------

 ------------
 H2O_H2O_3712
 ------------
 Symbolic Z-matrix:
 Charge =  0 Multiplicity = 1

                         Standard orientation:
 ---------------------------------------------------------------------
 Center     Atomic      Atomic             Coordinates (Angstroms)
 Number     Number       Type             X           Y           Z
 ---------------------------------------------------------------------
      1          8           0        0.040406   -2.753278    0.000000
      2          1           0       -0.759881   -3.323406    0.000000
      3          1           0        0.839260   -3.325413    0.000000
      4          8           0        0.040406    2.786633    0.000000
      5          1           0        0.203153    3.755664    0.000000
      6          1           0       -0.929030    2.626319    0.000000
 ---------------------------------------------------------------------

 SCF Done:  E(RHF) =  -152.106879208     A.U. after   10 cycles
 E2 =    -0.5259416644D+00 EUMP2 =    -0.15263282087241D+03
 CCSD(T)
 CCSD(T)= -0.15266005124D+03

 The electronic state is 1-A'.
 Alpha  occ. eigenvalues --  -20.55284 -20.55031  -1.32581  -1.32325  -0.69988
 Alpha  occ. eigenvalues --   -0.69727  -0.56003  -0.55748  -0.49688  -0.49434
 Alpha virt. eigenvalues --    0.14279   0.14662   0.20378   0.20682   0.54567
 Alpha virt. eigenvalues --    0.54859   0.57449   0.57707   0.67993   0.68735
 Alpha virt. eigenvalues --    0.79191   0.79440   0.80629   0.80901   0.82590

 Mulliken charges:
               1
     1  O   -0.505781
     2  H    0.251562
     3  H    0.254224
     4  O   -0.505510
     5  H    0.250712
     6  H    0.254794
 Sum of Mulliken charges =  -0.00000

 Dipole moment (field-independent basis, Debye):
    X=             -1.3850    Y=             -0.5855    Z=              0.0000  Tot=              1.5037
 Quadrupole moment (field-independent basis, Debye-Ang):
   XX=             -8.8321   YY=              7.8655   ZZ=            -14.7110
   XY=             -3.0093   XZ=              0.0000   YZ=              0.0000

 Normal termination of Gaussian 16 at Sat Aug 27 02:41:23 2022.
