 Gaussian 16, Revision A.03,
 Gaussian 16:  ES64L-G16RevA.03 25-Dec-2016

 ------------------
 #p CCSD(T)/cc-pVTZ
 ------------------

 ------------
 H2O_H2O_1802
 ------------
 Symbolic Z-matrix:
 Charge =  0 Multiplicity = 1

                         Standard orientation:
 ---------------------------------------------------------------------
 Center     Atomic      Atomic             Coordinates (Angstroms)
 Number     Number       Type             X           Y           Z
 ---------------------------------------------------------------------
      1          8           0        0.007455   -1.760377    0.000000
      2          1           0       -0.792324   -2.331217    0.000000
      3          1           0        0.806818   -2.331800    0.000000
      4          8           0        0.007455    1.761349    0.000000
      5          1           0        0.725882    2.431698    0.000000
      6          1           0       -0.859656    2.223545    0.000000
 ---------------------------------------------------------------------

 SCF Done:  E(RHF) =  -152.104063145     A.U. after   10 cycles
 E2 =    -0.5266466258D+00 EUMP2 =    -0.15263070977090D+03
 CCSD(T)
 CCSD(T)= -0.15265796643D+03

 The electronic state is 1-A'.
 Alpha  occ. eigenvalues --  -20.54306 -20.54287  -1.31604  -1.31546  -0.69026
 Alpha  occ. eigenvalues --   -0.68974  -0.55321  -0.54328  -0.48743  -0.48591
 Alpha virt. eigenvalues --    0.14235   0.16091   0.20605   0.21419   0.53371
 Alpha virt. eigenvalues --    0.57523   0.58014   0.58407   0.61166   0.75881
 Alpha virt. eigenvalues --    0.79028   0.79510   0.80304   0.81216   0.83831

 Mulliken charges:
               1
     1  O   -0.485376
     2  H    0.241897
     3  H    0.243514
     4  O   -0.485367
     5  H    0.241763
     6  H    0.243569
 Sum of Mulliken charges =  -0.00000

 Dipole moment (field-independent basis, Debye):
    X=             -0.2492    Y=             -0.0180    Z=              0.0000  Tot=              0.2498
 Quadrupole moment (field-independent basis, Debye-Ang):
   XX=             -7.8913   YY=              1.8284   ZZ=            -14.7089
   XY=             -0.2271   XZ=              0.0000   YZ=              0.0000

 Normal termination of Gaussian 16 at Sat Aug 27 06:52:09 2022.
