 Gaussian 16, Revision A.03,
 Gaussian 16:  ES64L-G16RevA.03 25-Dec-2016

 ------------------
 #p CCSD(T)/cc-pVTZ
 ------------------

 ------------
 H2O_H2O_3854
 ------------
 Symbolic Z-matrix:
 Charge =  0 Multiplicity = 1

                         Standard orientation:
 ---------------------------------------------------------------------
 Center     Atomic      Atomic             Coordinates (Angstroms)
 Number     Number       Type             X           Y           Z
 ---------------------------------------------------------------------
      1          8           0        0.014783   -2.849062    0.000000
      2          1           0       -0.785043   -3.419837    0.000000
      3          1           0        0.814099   -3.420551    0.000000
      4          8           0        0.014783    2.852941    0.000000
      5          1           0        0.639628    3.611277    0.000000
      6          1           0       -0.905210    3.198079    0.000000
 ---------------------------------------------------------------------

 SCF Done:  E(RHF) =  -152.106614789     A.U. after   10 cycles
 E2 =    -0.5259581033D+00 EUMP2 =    -0.15263257289260D+03
 CCSD(T)
 CCSD(T)= -0.15265980934D+03

 The electronic state is 1-A'.
 Alpha  occ. eigenvalues --  -20.55109 -20.55081  -1.32404  -1.32376  -0.69812
 Alpha  occ. eigenvalues --   -0.69783  -0.55814  -0.55786  -0.49509  -0.49482
 Alpha virt. eigenvalues --    0.14457   0.14574   0.20523   0.20578   0.54750
 Alpha virt. eigenvalues --    0.54798   0.57605   0.57640   0.68268   0.68638
 Alpha virt. eigenvalues --    0.79369   0.79396   0.80814   0.80849   0.82745

 Mulliken charges:
               1
     1  O   -0.504194
     2  H    0.251649
     3  H    0.252545
     4  O   -0.504156
     5  H    0.251463
     6  H    0.252693
 Sum of Mulliken charges =  -0.00000

 Dipole moment (field-independent basis, Debye):
    X=             -0.5069    Y=             -0.0679    Z=              0.0000  Tot=              0.5114
 Quadrupole moment (field-independent basis, Debye-Ang):
   XX=             -7.9442   YY=             10.5126   ZZ=            -14.7104
   XY=             -1.0043   XZ=              0.0000   YZ=              0.0000

 Normal termination of Gaussian 16 at Sat Aug 27 03:48:52 2022.
