 Gaussian 16, Revision A.03,
 Gaussian 16:  ES64L-G16RevA.03 25-Dec-2016

 ------------------
 #p CCSD(T)/cc-pVTZ
 ------------------

 ------------
 H2O_H2O_1148
 ------------
 Symbolic Z-matrix:
 Charge =  0 Multiplicity = 1

                         Standard orientation:
 ---------------------------------------------------------------------
 Center     Atomic      Atomic             Coordinates (Angstroms)
 Number     Number       Type             X           Y           Z
 ---------------------------------------------------------------------
      1          8           0        0.057178   -1.344151    0.000000
      2          1           0       -0.744393   -1.912472    0.000000
      3          1           0        0.854739   -1.918087    0.000000
      4          8           0        0.057178    1.450506    0.000000
      5          1           0       -0.457501    2.287531    0.000000
      6          1           0       -0.567692    0.692189    0.000000
 ---------------------------------------------------------------------

 SCF Done:  E(RHF) =  -152.107888503     A.U. after   10 cycles
 E2 =    -0.5283389277D+00 EUMP2 =    -0.15263622743109D+03
 CCSD(T)
 CCSD(T)= -0.15266324759D+03

 The electronic state is 1-A'.
 Alpha  occ. eigenvalues --  -20.56740 -20.52674  -1.34183  -1.30058  -0.71553
 Alpha  occ. eigenvalues --   -0.67996  -0.57172  -0.53586  -0.51271  -0.47172
 Alpha virt. eigenvalues --    0.12966   0.17709   0.19471   0.26154   0.51356
 Alpha virt. eigenvalues --    0.56219   0.57692   0.59720   0.70195   0.74180
 Alpha virt. eigenvalues --    0.74413   0.79269   0.82397   0.83846   0.84570

 Mulliken charges:
               1
     1  O   -0.484019
     2  H    0.242945
     3  H    0.259091
     4  O   -0.517235
     5  H    0.231427
     6  H    0.267791
 Sum of Mulliken charges =   0.00000

 Dipole moment (field-independent basis, Debye):
    X=             -1.8423    Y=             -2.1684    Z=              0.0000  Tot=              2.8454
 Quadrupole moment (field-independent basis, Debye-Ang):
   XX=             -9.8523   YY=             -4.4198   ZZ=            -14.7267
   XY=             -2.9486   XZ=              0.0000   YZ=              0.0000

 Normal termination of Gaussian 16 at Sat Aug 27 02:30:14 2022.
