 Gaussian 16, Revision A.03,
 Gaussian 16:  ES64L-G16RevA.03 25-Dec-2016

 ------------------
 #p CCSD(T)/cc-pVTZ
 ------------------

 -----------
 H2O_H2O_443
 -----------
 Symbolic Z-matrix:
 Charge =  0 Multiplicity = 1

                         Standard orientation:
 ---------------------------------------------------------------------
 Center     Atomic      Atomic             Coordinates (Angstroms)
 Number     Number       Type             X           Y           Z
 ---------------------------------------------------------------------
      1          8           0        0.052921   -0.991581    0.000000
      2          1           0       -0.749169   -1.559170    0.000000
      3          1           0        0.849957   -1.566246    0.000000
      4          8           0        0.052921    1.061628    0.000000
      5          1           0       -0.164515    2.019869    0.000000
      6          1           0       -0.783012    0.545176    0.000000
 ---------------------------------------------------------------------

 SCF Done:  E(RHF) =  -152.063844503     A.U. after   11 cycles
 E2 =    -0.5352044475D+00 EUMP2 =    -0.15259904895053D+03
 CCSD(T)
 CCSD(T)= -0.15262576806D+03

 The electronic state is 1-A'.
 Alpha  occ. eigenvalues --  -20.54778 -20.51361  -1.34338  -1.28511  -0.71765
 Alpha  occ. eigenvalues --   -0.68922  -0.55296  -0.51052  -0.49381  -0.45401
 Alpha virt. eigenvalues --    0.13608   0.18500   0.19679   0.24820   0.51616
 Alpha virt. eigenvalues --    0.56530   0.60441   0.63543   0.72148   0.75226
 Alpha virt. eigenvalues --    0.79618   0.82334   0.84089   0.84403   0.87944

 Mulliken charges:
               1
     1  O   -0.418200
     2  H    0.204441
     3  H    0.231914
     4  O   -0.447642
     5  H    0.181140
     6  H    0.248347
 Sum of Mulliken charges =  -0.00000

 Dipole moment (field-independent basis, Debye):
    X=             -1.5434    Y=             -1.4874    Z=              0.0000  Tot=              2.1434
 Quadrupole moment (field-independent basis, Debye-Ang):
   XX=             -9.6424   YY=             -5.9803   ZZ=            -14.6923
   XY=             -1.4740   XZ=              0.0000   YZ=              0.0000

 Normal termination of Gaussian 16 at Fri Aug 26 16:30:19 2022.
