 Gaussian 16, Revision A.03,
 Gaussian 16:  ES64L-G16RevA.03 25-Dec-2016

 ------------------
 #p CCSD(T)/cc-pVTZ
 ------------------

 ------------
 H2O_H2O_1403
 ------------
 Symbolic Z-matrix:
 Charge =  0 Multiplicity = 1

                         Standard orientation:
 ---------------------------------------------------------------------
 Center     Atomic      Atomic             Coordinates (Angstroms)
 Number     Number       Type             X           Y           Z
 ---------------------------------------------------------------------
      1          8           0        0.011143   -1.546985    0.000000
      2          1           0       -0.788782   -2.117622    0.000000
      3          1           0        0.810360   -2.118612    0.000000
      4          8           0        0.011143    1.549166    0.000000
      5          1           0        0.684371    2.264895    0.000000
      6          1           0       -0.884237    1.953890    0.000000
 ---------------------------------------------------------------------

 SCF Done:  E(RHF) =  -152.102092455     A.U. after   10 cycles
 E2 =    -0.5272142755D+00 EUMP2 =    -0.15262930673094D+03
 CCSD(T)
 CCSD(T)= -0.15265659350D+03

 The electronic state is 1-A'.
 Alpha  occ. eigenvalues --  -20.53972 -20.53921  -1.31337  -1.31151  -0.68751
 Alpha  occ. eigenvalues --   -0.68602  -0.55534  -0.53286  -0.48522  -0.48128
 Alpha virt. eigenvalues --    0.14344   0.16597   0.20562   0.21789   0.52033
 Alpha virt. eigenvalues --    0.58261   0.58597   0.59354   0.64747   0.76311
 Alpha virt. eigenvalues --    0.78014   0.78158   0.79371   0.82429   0.86045

 Mulliken charges:
               1
     1  O   -0.475068
     2  H    0.235823
     3  H    0.239310
     4  O   -0.474488
     5  H    0.235628
     6  H    0.238796
 Sum of Mulliken charges =   0.00000

 Dipole moment (field-independent basis, Debye):
    X=             -0.3663    Y=             -0.0411    Z=              0.0000  Tot=              0.3686
 Quadrupole moment (field-independent basis, Debye-Ang):
   XX=             -7.9653   YY=             -0.0444   ZZ=            -14.7098
   XY=             -0.2665   XZ=              0.0000   YZ=              0.0000

 Normal termination of Gaussian 16 at Sat Aug 27 04:32:26 2022.
