 Gaussian 16, Revision A.03,
 Gaussian 16:  ES64L-G16RevA.03 25-Dec-2016

 ------------------
 #p CCSD(T)/cc-pVTZ
 ------------------

 ------------
 H2O_H2O_4601
 ------------
 Symbolic Z-matrix:
 Charge =  0 Multiplicity = 1

                         Standard orientation:
 ---------------------------------------------------------------------
 Center     Atomic      Atomic             Coordinates (Angstroms)
 Number     Number       Type             X           Y           Z
 ---------------------------------------------------------------------
      1          8           0        0.003735   -3.249914    0.000000
      2          1           0       -0.795892   -3.820967    0.000000
      3          1           0        0.803250   -3.821125    0.000000
      4          8           0        0.003735    3.250158    0.000000
      5          1           0        0.764303    3.872286    0.000000
      6          1           0       -0.831426    3.767855    0.000000
 ---------------------------------------------------------------------

 SCF Done:  E(RHF) =  -152.106870010     A.U. after   10 cycles
 E2 =    -0.5259237151D+00 EUMP2 =    -0.15263279372473D+03
 CCSD(T)
 CCSD(T)= -0.15266002545D+03

 The electronic state is 1-A'.
 Alpha  occ. eigenvalues --  -20.55214 -20.55213  -1.32510  -1.32509  -0.69917
 Alpha  occ. eigenvalues --   -0.69916  -0.55933  -0.55931  -0.49618  -0.49616
 Alpha virt. eigenvalues --    0.14411   0.14427   0.20463   0.20470   0.54651
 Alpha virt. eigenvalues --    0.54655   0.57521   0.57525   0.68285   0.68315
 Alpha virt. eigenvalues --    0.79261   0.79263   0.80704   0.80706   0.82631

 Mulliken charges:
               1
     1  O   -0.505689
     2  H    0.252766
     3  H    0.252923
     4  O   -0.505688
     5  H    0.252734
     6  H    0.252954
 Sum of Mulliken charges =   0.00000

 Dipole moment (field-independent basis, Debye):
    X=             -0.1284    Y=             -0.0043    Z=              0.0000  Tot=              0.1285
 Quadrupole moment (field-independent basis, Debye-Ang):
   XX=             -7.8108   YY=             13.9465   ZZ=            -14.7107
   XY=             -0.3002   XZ=              0.0000   YZ=              0.0000

 Normal termination of Gaussian 16 at Sat Aug 27 08:16:32 2022.
