 Gaussian 16, Revision A.03,
 Gaussian 16:  ES64L-G16RevA.03 25-Dec-2016

 ------------------
 #p CCSD(T)/cc-pVTZ
 ------------------

 ------------
 H2O_H2O_3100
 ------------
 Symbolic Z-matrix:
 Charge =  0 Multiplicity = 1

                         Standard orientation:
 ---------------------------------------------------------------------
 Center     Atomic      Atomic             Coordinates (Angstroms)
 Number     Number       Type             X           Y           Z
 ---------------------------------------------------------------------
      1          8           0        0.000000   -0.000000    2.452292
      2          1           0        0.000000    0.799571    3.023424
      3          1           0       -0.000000   -0.799571    3.023424
      4          8           0        0.000000   -0.000000   -2.452292
      5          1           0       -0.000000   -0.799571   -3.023424
      6          1           0        0.000000    0.799571   -3.023424
 ---------------------------------------------------------------------

 SCF Done:  E(RHF) =  -152.106079450     A.U. after   10 cycles
 E2 =    -0.5260353016D+00 EUMP2 =    -0.15263211475200D+03
 CCSD(T)
 CCSD(T)= -0.15265936055D+03

 The electronic state is 1-AG.
 Alpha  occ. eigenvalues --  -20.54893 -20.54893  -1.32186  -1.32186  -0.69597
 Alpha  occ. eigenvalues --   -0.69596  -0.55587  -0.55549  -0.49290  -0.49286
 Alpha virt. eigenvalues --    0.14439   0.14901   0.20607   0.20750   0.54851
 Alpha virt. eigenvalues --    0.55105   0.57747   0.57817   0.67262   0.70155
 Alpha virt. eigenvalues --    0.79560   0.79614   0.80997   0.81094   0.82653

 Mulliken charges:
               1
     1  O   -0.501044
     2  H    0.250522
     3  H    0.250522
     4  O   -0.501044
     5  H    0.250522
     6  H    0.250522
 Sum of Mulliken charges =  -0.00000

 Dipole moment (field-independent basis, Debye):
    X=             -0.0000    Y=              0.0000    Z=             -0.0000  Tot=              0.0000
 Quadrupole moment (field-independent basis, Debye-Ang):
   XX=            -14.7098   YY=             -7.8159   ZZ=              7.5484
   XY=              0.0000   XZ=              0.0000   YZ=             -0.0000

 P4DQ=-152.6412334\MP4SDQ=-152.6443008\CCSD=-152.6437096\CCSD(T)=-152.6
 Normal termination of Gaussian 16 at Fri Aug 26 19:25:57 2022.
