 Gaussian 16, Revision A.03,
 Gaussian 16:  ES64L-G16RevA.03 25-Dec-2016

 ------------------
 #p CCSD(T)/cc-pVTZ
 ------------------

 ------------
 H2O_H2O_1820
 ------------
 Symbolic Z-matrix:
 Charge =  0 Multiplicity = 1

                         Standard orientation:
 ---------------------------------------------------------------------
 Center     Atomic      Atomic             Coordinates (Angstroms)
 Number     Number       Type             X           Y           Z
 ---------------------------------------------------------------------
      1          8           0        0.055281   -1.715085    0.000000
      2          1           0       -0.745830   -2.284054    0.000000
      3          1           0        0.853306   -2.288376    0.000000
      4          8           0        0.055281    1.799449    0.000000
      5          1           0       -0.286958    2.720523    0.000000
      6          1           0       -0.705019    1.176994    0.000000
 ---------------------------------------------------------------------

 SCF Done:  E(RHF) =  -152.108058766     A.U. after   10 cycles
 E2 =    -0.5265427546D+00 EUMP2 =    -0.15263460152074D+03
 CCSD(T)
 CCSD(T)= -0.15266175383D+03

 The electronic state is 1-A'.
 Alpha  occ. eigenvalues --  -20.55862 -20.53993  -1.33133  -1.31278  -0.70545
 Alpha  occ. eigenvalues --   -0.68649  -0.56561  -0.54722  -0.50251  -0.48405
 Alpha virt. eigenvalues --    0.13219   0.16498   0.19874   0.23389   0.53758
 Alpha virt. eigenvalues --    0.54892   0.56963   0.58405   0.65672   0.75510
 Alpha virt. eigenvalues --    0.77879   0.78224   0.78870   0.80909   0.84586

 Mulliken charges:
               1
     1  O   -0.497041
     2  H    0.245645
     3  H    0.256578
     4  O   -0.507565
     5  H    0.241496
     6  H    0.260887
 Sum of Mulliken charges =  -0.00000

 Dipole moment (field-independent basis, Debye):
    X=             -1.8448    Y=             -1.5864    Z=              0.0000  Tot=              2.4331
 Quadrupole moment (field-independent basis, Debye-Ang):
   XX=             -9.7273   YY=             -1.4369   ZZ=            -14.7182
   XY=             -3.1201   XZ=              0.0000   YZ=              0.0000

 Normal termination of Gaussian 16 at Sat Aug 27 06:58:21 2022.
