 Gaussian 16, Revision A.03,
 Gaussian 16:  ES64L-G16RevA.03 25-Dec-2016

 ------------------
 #p CCSD(T)/cc-pVTZ
 ------------------

 ------------
 H2O_H2O_1091
 ------------
 Symbolic Z-matrix:
 Charge =  0 Multiplicity = 1

                         Standard orientation:
 ---------------------------------------------------------------------
 Center     Atomic      Atomic             Coordinates (Angstroms)
 Number     Number       Type             X           Y           Z
 ---------------------------------------------------------------------
      1          8           0        0.049550   -1.344468    0.000000
      2          1           0       -0.751789   -1.913117    0.000000
      3          1           0        0.847346   -1.918077    0.000000
      4          8           0        0.049550    1.401274    0.000000
      5          1           0       -0.042245    2.379579    0.000000
      6          1           0       -0.846108    0.997167    0.000000
 ---------------------------------------------------------------------

 SCF Done:  E(RHF) =  -152.103142671     A.U. after   10 cycles
 E2 =    -0.5281408127D+00 EUMP2 =    -0.15263128348332D+03
 CCSD(T)
 CCSD(T)= -0.15265846586D+03

 The electronic state is 1-A'.
 Alpha  occ. eigenvalues --  -20.55100 -20.53270  -1.32523  -1.30518  -0.69939
 Alpha  occ. eigenvalues --   -0.68076  -0.56133  -0.53320  -0.49654  -0.47574
 Alpha virt. eigenvalues --    0.13714   0.17223   0.20022   0.23510   0.53507
 Alpha virt. eigenvalues --    0.57485   0.58110   0.58422   0.69802   0.75801
 Alpha virt. eigenvalues --    0.76073   0.77594   0.81766   0.82785   0.85078

 Mulliken charges:
               1
     1  O   -0.477740
     2  H    0.233739
     3  H    0.250617
     4  O   -0.480377
     5  H    0.223461
     6  H    0.250300
 Sum of Mulliken charges =  -0.00000

 Dipole moment (field-independent basis, Debye):
    X=             -1.5850    Y=             -1.1100    Z=              0.0000  Tot=              1.9350
 Quadrupole moment (field-independent basis, Debye-Ang):
   XX=             -9.3996   YY=             -2.7292   ZZ=            -14.7220
   XY=             -1.7446   XZ=              0.0000   YZ=              0.0000

 Normal termination of Gaussian 16 at Sat Aug 27 02:03:42 2022.
