 Gaussian 16, Revision A.03,
 Gaussian 16:  ES64L-G16RevA.03 25-Dec-2016

 ------------------
 #p CCSD(T)/cc-pVTZ
 ------------------

 ------------
 H2O_H2O_2968
 ------------
 Symbolic Z-matrix:
 Charge =  0 Multiplicity = 1

                         Standard orientation:
 ---------------------------------------------------------------------
 Center     Atomic      Atomic             Coordinates (Angstroms)
 Number     Number       Type             X           Y           Z
 ---------------------------------------------------------------------
      1          8           0        0.052833   -2.334330    0.000000
      2          1           0       -0.747831   -2.903928    0.000000
      3          1           0        0.851308   -2.906994    0.000000
      4          8           0        0.052833    2.404641    0.000000
      5          1           0       -0.167005    3.362335    0.000000
      6          1           0       -0.781802    1.886096    0.000000
 ---------------------------------------------------------------------

 SCF Done:  E(RHF) =  -152.107307729     A.U. after   10 cycles
 E2 =    -0.5259769918D+00 EUMP2 =    -0.15263328472040D+03
 CCSD(T)
 CCSD(T)= -0.15266049821D+03

 The electronic state is 1-A'.
 Alpha  occ. eigenvalues --  -20.55532 -20.54766  -1.32826  -1.32059  -0.70234
 Alpha  occ. eigenvalues --   -0.69447  -0.56264  -0.55495  -0.49937  -0.49174
 Alpha virt. eigenvalues --    0.13659   0.15233   0.20132   0.21215   0.54182
 Alpha virt. eigenvalues --    0.54932   0.57252   0.57912   0.66730   0.70731
 Alpha virt. eigenvalues --    0.78947   0.79691   0.80106   0.80972   0.82803

 Mulliken charges:
               1
     1  O   -0.507488
     2  H    0.251257
     3  H    0.256555
     4  O   -0.507382
     5  H    0.248906
     6  H    0.258151
 Sum of Mulliken charges =  -0.00000

 Dipole moment (field-independent basis, Debye):
    X=             -1.8028    Y=             -1.2522    Z=              0.0000  Tot=              2.1950
 Quadrupole moment (field-independent basis, Debye-Ang):
   XX=             -9.5591   YY=              2.7317   ZZ=            -14.7127
   XY=             -3.8327   XZ=              0.0000   YZ=              0.0000

 Normal termination of Gaussian 16 at Fri Aug 26 17:54:14 2022.
