 Gaussian 16, Revision A.03,
 Gaussian 16:  ES64L-G16RevA.03 25-Dec-2016

 ------------------
 #p CCSD(T)/cc-pVTZ
 ------------------

 ------------
 H2O_H2O_2131
 ------------
 Symbolic Z-matrix:
 Charge =  0 Multiplicity = 1

                         Standard orientation:
 ---------------------------------------------------------------------
 Center     Atomic      Atomic             Coordinates (Angstroms)
 Number     Number       Type             X           Y           Z
 ---------------------------------------------------------------------
      1          8           0        0.021860   -1.929052    0.000000
      2          1           0       -0.778266   -2.499405    0.000000
      3          1           0        0.820875   -2.500962    0.000000
      4          8           0        0.021860    1.937704    0.000000
      5          1           0        0.542816    2.770838    0.000000
      6          1           0       -0.935193    2.160310    0.000000
 ---------------------------------------------------------------------

 SCF Done:  E(RHF) =  -152.105147909     A.U. after   10 cycles
 E2 =    -0.5263588381D+00 EUMP2 =    -0.15263150674742D+03
 CCSD(T)
 CCSD(T)= -0.15265874943D+03

 The electronic state is 1-A'.
 Alpha  occ. eigenvalues --  -20.54621 -20.54481  -1.31903  -1.31759  -0.69322
 Alpha  occ. eigenvalues --   -0.69171  -0.55387  -0.54906  -0.49007  -0.48851
 Alpha virt. eigenvalues --    0.14102   0.15764   0.20558   0.21254   0.53887
 Alpha virt. eigenvalues --    0.56113   0.57903   0.58209   0.62320   0.75166
 Alpha virt. eigenvalues --    0.79393   0.80251   0.80455   0.81116   0.82516

 Mulliken charges:
               1
     1  O   -0.493341
     2  H    0.244871
     3  H    0.248638
     4  O   -0.493220
     5  H    0.244198
     6  H    0.248853
 Sum of Mulliken charges =  -0.00000

 Dipole moment (field-independent basis, Debye):
    X=             -0.7368    Y=             -0.1578    Z=              0.0000  Tot=              0.7535
 Quadrupole moment (field-independent basis, Debye-Ang):
   XX=             -8.1357   YY=              3.0145   ZZ=            -14.7097
   XY=             -0.8430   XZ=              0.0000   YZ=              0.0000

 Normal termination of Gaussian 16 at Sat Aug 27 08:45:47 2022.
