 Gaussian 16, Revision A.03,
 Gaussian 16:  ES64L-G16RevA.03 25-Dec-2016

 ------------------
 #p CCSD(T)/cc-pVTZ
 ------------------

 ------------
 H2O_H2O_4459
 ------------
 Symbolic Z-matrix:
 Charge =  0 Multiplicity = 1

                         Standard orientation:
 ---------------------------------------------------------------------
 Center     Atomic      Atomic             Coordinates (Angstroms)
 Number     Number       Type             X           Y           Z
 ---------------------------------------------------------------------
      1          8           0        0.031739   -3.159846    0.000000
      2          1           0       -0.768324   -3.730288    0.000000
      3          1           0        0.830817   -3.731667    0.000000
      4          8           0        0.031739    3.179042    0.000000
      5          1           0        0.380046    4.097839    0.000000
      6          1           0       -0.950358    3.210548    0.000000
 ---------------------------------------------------------------------

 SCF Done:  E(RHF) =  -152.106967247     A.U. after   10 cycles
 E2 =    -0.5259176152D+00 EUMP2 =    -0.15263288486235D+03
 CCSD(T)
 CCSD(T)= -0.15266011438D+03

 The electronic state is 1-A'.
 Alpha  occ. eigenvalues --  -20.55293 -20.55183  -1.32589  -1.32479  -0.69996
 Alpha  occ. eigenvalues --   -0.69883  -0.56016  -0.55906  -0.49698  -0.49587
 Alpha virt. eigenvalues --    0.14344   0.14461   0.20399   0.20515   0.54571
 Alpha virt. eigenvalues --    0.54690   0.57450   0.57561   0.68198   0.68328
 Alpha virt. eigenvalues --    0.79181   0.79290   0.80622   0.80742   0.82549

 Mulliken charges:
               1
     1  O   -0.506272
     2  H    0.252423
     3  H    0.253849
     4  O   -0.506175
     5  H    0.252022
     6  H    0.254153
 Sum of Mulliken charges =  -0.00000

 Dipole moment (field-independent basis, Debye):
    X=             -1.0906    Y=             -0.3350    Z=              0.0000  Tot=              1.1409
 Quadrupole moment (field-independent basis, Debye-Ang):
   XX=             -8.4367   YY=             11.7994   ZZ=            -14.7110
   XY=             -2.6535   XZ=              0.0000   YZ=              0.0000

 Normal termination of Gaussian 16 at Sat Aug 27 07:26:03 2022.
