 Gaussian 16, Revision A.03,
 Gaussian 16:  ES64L-G16RevA.03 25-Dec-2016

 ------------------
 #p CCSD(T)/cc-pVTZ
 ------------------

 ------------
 H2O_H2O_4157
 ------------
 Symbolic Z-matrix:
 Charge =  0 Multiplicity = 1

                         Standard orientation:
 ---------------------------------------------------------------------
 Center     Atomic      Atomic             Coordinates (Angstroms)
 Number     Number       Type             X           Y           Z
 ---------------------------------------------------------------------
      1          8           0        0.025265   -3.004342    0.000000
      2          1           0       -0.774719   -3.574896    0.000000
      3          1           0        0.824423   -3.576052    0.000000
      4          8           0        0.025265    3.016085    0.000000
      5          1           0        0.490398    3.881624    0.000000
      6          1           0       -0.944339    3.175377    0.000000
 ---------------------------------------------------------------------

 SCF Done:  E(RHF) =  -152.106814168     A.U. after   10 cycles
 E2 =    -0.5259351547D+00 EUMP2 =    -0.15263274932264D+03
 CCSD(T)
 CCSD(T)= -0.15265998185D+03

 The electronic state is 1-A'.
 Alpha  occ. eigenvalues --  -20.55210 -20.55136  -1.32506  -1.32431  -0.69913
 Alpha  occ. eigenvalues --   -0.69836  -0.55926  -0.55851  -0.49613  -0.49538
 Alpha virt. eigenvalues --    0.14403   0.14506   0.20458   0.20543   0.54654
 Alpha virt. eigenvalues --    0.54739   0.57521   0.57598   0.68262   0.68435
 Alpha virt. eigenvalues --    0.79266   0.79339   0.80709   0.80792   0.82639

 Mulliken charges:
               1
     1  O   -0.505370
     2  H    0.252028
     3  H    0.253342
     4  O   -0.505288
     5  H    0.251700
     6  H    0.253588
 Sum of Mulliken charges =   0.00000

 Dipole moment (field-independent basis, Debye):
    X=             -0.8673    Y=             -0.2053    Z=              0.0000  Tot=              0.8913
 Quadrupole moment (field-independent basis, Debye-Ang):
   XX=             -8.2058   YY=             11.1943   ZZ=            -14.7107
   XY=             -1.9158   XZ=              0.0000   YZ=              0.0000

 Normal termination of Gaussian 16 at Sat Aug 27 05:42:07 2022.
