 Gaussian 16, Revision A.03,
 Gaussian 16:  ES64L-G16RevA.03 25-Dec-2016

 ------------------
 #p CCSD(T)/cc-pVTZ
 ------------------

 -----------
 H2O_H2O_509
 -----------
 Symbolic Z-matrix:
 Charge =  0 Multiplicity = 1

                         Standard orientation:
 ---------------------------------------------------------------------
 Center     Atomic      Atomic             Coordinates (Angstroms)
 Number     Number       Type             X           Y           Z
 ---------------------------------------------------------------------
      1          8           0        0.031755   -1.059148    0.000000
      2          1           0       -0.769273   -1.628234    0.000000
      3          1           0        0.829864   -1.632322    0.000000
      4          8           0        0.031755    1.078236    0.000000
      5          1           0        0.381618    1.996442    0.000000
      6          1           0       -0.950287    1.111407    0.000000
 ---------------------------------------------------------------------

 SCF Done:  E(RHF) =  -152.072577264     A.U. after   11 cycles
 E2 =    -0.5326962132D+00 EUMP2 =    -0.15260527347678D+03
 CCSD(T)
 CCSD(T)= -0.15263231128D+03

 The electronic state is 1-A'.
 Alpha  occ. eigenvalues --  -20.52891 -20.52261  -1.31884  -1.29175  -0.68938
 Alpha  occ. eigenvalues --   -0.67300  -0.58719  -0.49120  -0.47047  -0.45798
 Alpha virt. eigenvalues --    0.14404   0.17915   0.20351   0.23127   0.52406
 Alpha virt. eigenvalues --    0.58138   0.58539   0.63696   0.70572   0.76727
 Alpha virt. eigenvalues --    0.78262   0.81697   0.83822   0.86143   0.87707

 Mulliken charges:
               1
     1  O   -0.451483
     2  H    0.216007
     3  H    0.233263
     4  O   -0.424889
     5  H    0.191153
     6  H    0.235950
 Sum of Mulliken charges =  -0.00000

 Dipole moment (field-independent basis, Debye):
    X=             -0.9439    Y=             -0.3849    Z=              0.0000  Tot=              1.0193
 Quadrupole moment (field-independent basis, Debye-Ang):
   XX=             -8.6605   YY=             -4.9030   ZZ=            -14.7344
   XY=             -0.4675   XZ=              0.0000   YZ=              0.0000

 Normal termination of Gaussian 16 at Fri Aug 26 17:10:33 2022.
