 Gaussian 16, Revision A.03,
 Gaussian 16:  ES64L-G16RevA.03 25-Dec-2016

 ------------------
 #p CCSD(T)/cc-pVTZ
 ------------------

 -----------
 H2O_H2O_742
 -----------
 Symbolic Z-matrix:
 Charge =  0 Multiplicity = 1

                         Standard orientation:
 ---------------------------------------------------------------------
 Center     Atomic      Atomic             Coordinates (Angstroms)
 Number     Number       Type             X           Y           Z
 ---------------------------------------------------------------------
      1          8           0        0.051341   -1.154784    0.000000
      2          1           0       -0.750347   -1.722941    0.000000
      3          1           0        0.848784   -1.728884    0.000000
      4          8           0        0.051341    1.218108    0.000000
      5          1           0       -0.103645    2.188410    0.000000
      6          1           0       -0.816253    0.756822    0.000000
 ---------------------------------------------------------------------

 SCF Done:  E(RHF) =  -152.093786196     A.U. after   11 cycles
 E2 =    -0.5304426802D+00 EUMP2 =    -0.15262422887604D+03
 CCSD(T)
 CCSD(T)= -0.15265131648D+03

 The electronic state is 1-A'.
 Alpha  occ. eigenvalues --  -20.54999 -20.52472  -1.32961  -1.29708  -0.70334
 Alpha  occ. eigenvalues --   -0.68048  -0.56150  -0.51882  -0.50052  -0.46672
 Alpha virt. eigenvalues --    0.13673   0.17829   0.19900   0.24220   0.52481
 Alpha virt. eigenvalues --    0.57212   0.59350   0.60795   0.71317   0.74713
 Alpha virt. eigenvalues --    0.78158   0.82857   0.83026   0.84742   0.87422

 Mulliken charges:
               1
     1  O   -0.460752
     2  H    0.225648
     3  H    0.244867
     4  O   -0.467080
     5  H    0.207084
     6  H    0.250233
 Sum of Mulliken charges =  -0.00000

 Dipole moment (field-independent basis, Debye):
    X=             -1.5797    Y=             -1.2783    Z=              0.0000  Tot=              2.0321
 Quadrupole moment (field-independent basis, Debye-Ang):
   XX=             -9.5307   YY=             -4.3452   ZZ=            -14.7222
   XY=             -1.6038   XZ=              0.0000   YZ=              0.0000

 64038\MP4DQ=-152.632478\MP4SDQ=-152.635747\CCSD=-152.6350788\CCSD(T)=-
 Normal termination of Gaussian 16 at Fri Aug 26 19:36:01 2022.
