 Gaussian 16, Revision A.03,
 Gaussian 16:  ES64L-G16RevA.03 25-Dec-2016

 ------------------
 #p CCSD(T)/cc-pVTZ
 ------------------

 ------------
 H2O_H2O_1471
 ------------
 Symbolic Z-matrix:
 Charge =  0 Multiplicity = 1

                         Standard orientation:
 ---------------------------------------------------------------------
 Center     Atomic      Atomic             Coordinates (Angstroms)
 Number     Number       Type             X           Y           Z
 ---------------------------------------------------------------------
      1          8           0        0.056157   -1.525013    0.000000
      2          1           0       -0.745164   -2.093687    0.000000
      3          1           0        0.853971   -2.098596    0.000000
      4          8           0        0.056157    1.616610    0.000000
      5          1           0       -0.345261    2.513478    0.000000
      6          1           0       -0.662052    0.946027    0.000000
 ---------------------------------------------------------------------

 SCF Done:  E(RHF) =  -152.108346720     A.U. after   10 cycles
 E2 =    -0.5271140071D+00 EUMP2 =    -0.15263546072699D+03
 CCSD(T)
 CCSD(T)= -0.15266257907D+03

 The electronic state is 1-A'.
 Alpha  occ. eigenvalues --  -20.56130 -20.53517  -1.33426  -1.30812  -0.70833
 Alpha  occ. eigenvalues --   -0.68255  -0.56802  -0.54279  -0.50542  -0.47941
 Alpha virt. eigenvalues --    0.13180   0.17020   0.19731   0.24457   0.53096
 Alpha virt. eigenvalues --    0.55458   0.56839   0.58397   0.67702   0.75478
 Alpha virt. eigenvalues --    0.76331   0.76784   0.80246   0.81704   0.84379

 Mulliken charges:
               1
     1  O   -0.491436
     2  H    0.243401
     3  H    0.257774
     4  O   -0.508172
     5  H    0.236951
     6  H    0.261483
 Sum of Mulliken charges =  -0.00000

 Dipole moment (field-independent basis, Debye):
    X=             -1.8461    Y=             -1.7761    Z=              0.0000  Tot=              2.5618
 Quadrupole moment (field-independent basis, Debye-Ang):
   XX=             -9.7895   YY=             -2.7960   ZZ=            -14.7232
   XY=             -2.9532   XZ=              0.0000   YZ=              0.0000

 Normal termination of Gaussian 16 at Sat Aug 27 04:56:58 2022.
