 Gaussian 16, Revision A.03,
 Gaussian 16:  ES64L-G16RevA.03 25-Dec-2016

 ------------------
 #p CCSD(T)/cc-pVTZ
 ------------------

 ------------
 H2O_H2O_3906
 ------------
 Symbolic Z-matrix:
 Charge =  0 Multiplicity = 1

                         Standard orientation:
 ---------------------------------------------------------------------
 Center     Atomic      Atomic             Coordinates (Angstroms)
 Number     Number       Type             X           Y           Z
 ---------------------------------------------------------------------
      1          8           0        0.021859   -2.873054    0.000000
      2          1           0       -0.778085   -3.443663    0.000000
      3          1           0        0.821056   -3.444709    0.000000
      4          8           0        0.021859    2.881720    0.000000
      5          1           0        0.542549    3.715020    0.000000
      6          1           0       -0.935266    3.104021    0.000000
 ---------------------------------------------------------------------

 SCF Done:  E(RHF) =  -152.106686786     A.U. after   10 cycles
 E2 =    -0.5259510220D+00 EUMP2 =    -0.15263263780837D+03
 CCSD(T)
 CCSD(T)= -0.15265987277D+03

 The electronic state is 1-A'.
 Alpha  occ. eigenvalues --  -20.55150 -20.55089  -1.32445  -1.32384  -0.69853
 Alpha  occ. eigenvalues --   -0.69790  -0.55858  -0.55798  -0.49551  -0.49490
 Alpha virt. eigenvalues --    0.14433   0.14562   0.20496   0.20577   0.54712
 Alpha virt. eigenvalues --    0.54789   0.57571   0.57636   0.68253   0.68586
 Alpha virt. eigenvalues --    0.79327   0.79387   0.80773   0.80841   0.82706

 Mulliken charges:
               1
     1  O   -0.504621
     2  H    0.251665
     3  H    0.252957
     4  O   -0.504543
     5  H    0.251366
     6  H    0.253177
 Sum of Mulliken charges =  -0.00000

 Dipole moment (field-independent basis, Debye):
    X=             -0.7497    Y=             -0.1517    Z=              0.0000  Tot=              0.7649
 Quadrupole moment (field-independent basis, Debye-Ang):
   XX=             -8.1065   YY=             10.3958   ZZ=            -14.7105
   XY=             -1.5376   XZ=              0.0000   YZ=              0.0000

 Normal termination of Gaussian 16 at Sat Aug 27 04:12:25 2022.
