 Gaussian 16, Revision A.03,
 Gaussian 16:  ES64L-G16RevA.03 25-Dec-2016

 ------------------
 #p CCSD(T)/cc-pVTZ
 ------------------

 ------------
 H2O_H2O_2593
 ------------
 Symbolic Z-matrix:
 Charge =  0 Multiplicity = 1

                         Standard orientation:
 ---------------------------------------------------------------------
 Center     Atomic      Atomic             Coordinates (Angstroms)
 Number     Number       Type             X           Y           Z
 ---------------------------------------------------------------------
      1          8           0        0.052839   -2.134901    0.000000
      2          1           0       -0.747925   -2.704358    0.000000
      3          1           0        0.851213   -2.707705    0.000000
      4          8           0        0.052839    2.205194    0.000000
      5          1           0       -0.166830    3.162927    0.000000
      6          1           0       -0.781888    1.686795    0.000000
 ---------------------------------------------------------------------

 SCF Done:  E(RHF) =  -152.107326351     A.U. after   10 cycles
 E2 =    -0.5260641482D+00 EUMP2 =    -0.15263339049880D+03
 CCSD(T)
 CCSD(T)= -0.15266059441D+03

 The electronic state is 1-A'.
 Alpha  occ. eigenvalues --  -20.55539 -20.54597  -1.32826  -1.31887  -0.70236
 Alpha  occ. eigenvalues --   -0.69269  -0.56257  -0.55320  -0.49938  -0.49003
 Alpha virt. eigenvalues --    0.13448   0.15574   0.20097   0.21602   0.54039
 Alpha virt. eigenvalues --    0.54782   0.57266   0.58122   0.66028   0.72839
 Alpha virt. eigenvalues --    0.78926   0.79848   0.79879   0.81822   0.82595

 Mulliken charges:
               1
     1  O   -0.505748
     2  H    0.250002
     3  H    0.256630
     4  O   -0.506916
     5  H    0.247334
     6  H    0.258699
 Sum of Mulliken charges =  -0.00000

 Dipole moment (field-independent basis, Debye):
    X=             -1.7950    Y=             -1.2664    Z=              0.0000  Tot=              2.1968
 Quadrupole moment (field-independent basis, Debye-Ang):
   XX=             -9.5601   YY=              1.6177   ZZ=            -14.7134
   XY=             -3.4779   XZ=              0.0000   YZ=              0.0000

 Normal termination of Gaussian 16 at Fri Aug 26 14:09:41 2022.
