 Gaussian 16, Revision A.03,
 Gaussian 16:  ES64L-G16RevA.03 25-Dec-2016

 ------------------
 #p CCSD(T)/cc-pVTZ
 ------------------

 ------------
 H2O_H2O_1730
 ------------
 Symbolic Z-matrix:
 Charge =  0 Multiplicity = 1

                         Standard orientation:
 ---------------------------------------------------------------------
 Center     Atomic      Atomic             Coordinates (Angstroms)
 Number     Number       Type             X           Y           Z
 ---------------------------------------------------------------------
      1          8           0        0.018361   -1.717742    0.000000
      2          1           0       -0.781734   -2.288139    0.000000
      3          1           0        0.817407   -2.289608    0.000000
      4          8           0        0.018361    1.723770    0.000000
      5          1           0        0.592648    2.521079    0.000000
      6          1           0       -0.922100    2.008443    0.000000
 ---------------------------------------------------------------------

 SCF Done:  E(RHF) =  -152.104026957     A.U. after   10 cycles
 E2 =    -0.5267241770D+00 EUMP2 =    -0.15263075113352D+03
 CCSD(T)
 CCSD(T)= -0.15265800489D+03

 The electronic state is 1-A'.
 Alpha  occ. eigenvalues --  -20.54342 -20.54220  -1.31631  -1.31487  -0.69054
 Alpha  occ. eigenvalues --   -0.68910  -0.55369  -0.54245  -0.48761  -0.48542
 Alpha virt. eigenvalues --    0.14186   0.16193   0.20555   0.21537   0.53054
 Alpha virt. eigenvalues --    0.57252   0.58064   0.58461   0.62094   0.76240
 Alpha virt. eigenvalues --    0.78834   0.79084   0.80218   0.81392   0.84222

 Mulliken charges:
               1
     1  O   -0.484396
     2  H    0.240195
     3  H    0.244442
     4  O   -0.484304
     5  H    0.239629
     6  H    0.244435
 Sum of Mulliken charges =  -0.00000

 Dipole moment (field-independent basis, Debye):
    X=             -0.6120    Y=             -0.1122    Z=              0.0000  Tot=              0.6222
 Quadrupole moment (field-independent basis, Debye-Ang):
   XX=             -8.0688   YY=              1.3585   ZZ=            -14.7092
   XY=             -0.5639   XZ=              0.0000   YZ=              0.0000

 Normal termination of Gaussian 16 at Sat Aug 27 06:27:40 2022.
