 Gaussian 16, Revision A.03,
 Gaussian 16:  ES64L-G16RevA.03 25-Dec-2016

 ------------------
 #p CCSD(T)/cc-pVTZ
 ------------------

 ------------
 H2O_H2O_3907
 ------------
 Symbolic Z-matrix:
 Charge =  0 Multiplicity = 1

                         Standard orientation:
 ---------------------------------------------------------------------
 Center     Atomic      Atomic             Coordinates (Angstroms)
 Number     Number       Type             X           Y           Z
 ---------------------------------------------------------------------
      1          8           0        0.025265   -2.871384    0.000000
      2          1           0       -0.774737   -3.441912    0.000000
      3          1           0        0.824404   -3.443120    0.000000
      4          8           0        0.025265    2.883126    0.000000
      5          1           0        0.490427    3.748648    0.000000
      6          1           0       -0.944334    3.042450    0.000000
 ---------------------------------------------------------------------

 SCF Done:  E(RHF) =  -152.106718113     A.U. after   10 cycles
 E2 =    -0.5259484941D+00 EUMP2 =    -0.15263266660705D+03
 CCSD(T)
 CCSD(T)= -0.15265990089D+03

 The electronic state is 1-A'.
 Alpha  occ. eigenvalues --  -20.55169 -20.55088  -1.32465  -1.32382  -0.69873
 Alpha  occ. eigenvalues --   -0.69788  -0.55880  -0.55798  -0.49571  -0.49489
 Alpha virt. eigenvalues --    0.14417   0.14564   0.20481   0.20583   0.54692
 Alpha virt. eigenvalues --    0.54791   0.57553   0.57640   0.68234   0.68579
 Alpha virt. eigenvalues --    0.79307   0.79388   0.80752   0.80843   0.82686

 Mulliken charges:
               1
     1  O   -0.504808
     2  H    0.251657
     3  H    0.253151
     4  O   -0.504706
     5  H    0.251293
     6  H    0.253413
 Sum of Mulliken charges =  -0.00000

 Dipole moment (field-independent basis, Debye):
    X=             -0.8666    Y=             -0.2056    Z=              0.0000  Tot=              0.8906
 Quadrupole moment (field-independent basis, Debye-Ang):
   XX=             -8.2072   YY=             10.1820   ZZ=            -14.7106
   XY=             -1.8016   XZ=              0.0000   YZ=              0.0000

 Normal termination of Gaussian 16 at Sat Aug 27 04:12:51 2022.
