 Gaussian 16, Revision A.03,
 Gaussian 16:  ES64L-G16RevA.03 25-Dec-2016

 ------------------
 #p CCSD(T)/cc-pVTZ
 ------------------

 ------------
 H2O_H2O_3102
 ------------
 Symbolic Z-matrix:
 Charge =  0 Multiplicity = 1

                         Standard orientation:
 ---------------------------------------------------------------------
 Center     Atomic      Atomic             Coordinates (Angstroms)
 Number     Number       Type             X           Y           Z
 ---------------------------------------------------------------------
      1          8           0        0.007455   -2.451763    0.000000
      2          1           0       -0.792265   -3.022686    0.000000
      3          1           0        0.806876   -3.023104    0.000000
      4          8           0        0.007455    2.452736    0.000000
      5          1           0        0.725813    3.123159    0.000000
      6          1           0       -0.859703    2.914844    0.000000
 ---------------------------------------------------------------------

 SCF Done:  E(RHF) =  -152.106094927     A.U. after   10 cycles
 E2 =    -0.5260341788D+00 EUMP2 =    -0.15263212910596D+03
 CCSD(T)
 CCSD(T)= -0.15265937456D+03

 The electronic state is 1-A'.
 Alpha  occ. eigenvalues --  -20.54902 -20.54893  -1.32195  -1.32185  -0.69605
 Alpha  occ. eigenvalues --   -0.69595  -0.55592  -0.55554  -0.49297  -0.49287
 Alpha virt. eigenvalues --    0.14432   0.14902   0.20602   0.20752   0.54844
 Alpha virt. eigenvalues --    0.55103   0.57743   0.57816   0.67261   0.70149
 Alpha virt. eigenvalues --    0.79555   0.79611   0.80991   0.81092   0.82655

 Mulliken charges:
               1
     1  O   -0.501137
     2  H    0.250226
     3  H    0.250912
     4  O   -0.501116
     5  H    0.250118
     6  H    0.250998
 Sum of Mulliken charges =  -0.00000

 Dipole moment (field-independent basis, Debye):
    X=             -0.2546    Y=             -0.0172    Z=              0.0000  Tot=              0.2551
 Quadrupole moment (field-independent basis, Debye-Ang):
   XX=             -7.8506   YY=              7.4983   ZZ=            -14.7098
   XY=             -0.3991   XZ=              0.0000   YZ=              0.0000

 Normal termination of Gaussian 16 at Fri Aug 26 19:27:01 2022.
