 Gaussian 16, Revision A.03,
 Gaussian 16:  ES64L-G16RevA.03 25-Dec-2016

 ------------------
 #p CCSD(T)/cc-pVTZ
 ------------------

 -----------
 H2O_H2O_340
 -----------
 Symbolic Z-matrix:
 Charge =  0 Multiplicity = 1

                         Standard orientation:
 ---------------------------------------------------------------------
 Center     Atomic      Atomic             Coordinates (Angstroms)
 Number     Number       Type             X           Y           Z
 ---------------------------------------------------------------------
      1          8           0        0.047594   -0.949086    0.000000
      2          1           0       -0.754366   -1.516858    0.000000
      3          1           0        0.844761   -1.523568    0.000000
      4          8           0        0.047594    0.999452    0.000000
      5          1           0        0.021054    1.981696    0.000000
      6          1           0       -0.872953    0.655797    0.000000
 ---------------------------------------------------------------------

 SCF Done:  E(RHF) =  -152.047059525     A.U. after   11 cycles
 E2 =    -0.5368554322D+00 EUMP2 =    -0.15258391495753D+03
 CCSD(T)
 CCSD(T)= -0.15261054745D+03

 The electronic state is 1-A'.
 Alpha  occ. eigenvalues --  -20.53639 -20.51564  -1.34027  -1.28289  -0.71262
 Alpha  occ. eigenvalues --   -0.68497  -0.57175  -0.50758  -0.46301  -0.45049
 Alpha virt. eigenvalues --    0.13957   0.18431   0.19879   0.24088   0.52681
 Alpha virt. eigenvalues --    0.57063   0.59114   0.63829   0.72286   0.76207
 Alpha virt. eigenvalues --    0.80413   0.82765   0.82912   0.84498   0.88335

 Mulliken charges:
               1
     1  O   -0.415829
     2  H    0.198273
     3  H    0.223284
     4  O   -0.411101
     5  H    0.165978
     6  H    0.239395
 Sum of Mulliken charges =  -0.00000

 Dipole moment (field-independent basis, Debye):
    X=             -1.3567    Y=             -1.0520    Z=              0.0000  Tot=              1.7168
 Quadrupole moment (field-independent basis, Debye-Ang):
   XX=             -9.3827   YY=             -6.2851   ZZ=            -14.6973
   XY=             -0.9760   XZ=              0.0000   YZ=              0.0000

 Normal termination of Gaussian 16 at Fri Aug 26 15:27:25 2022.
