 Gaussian 16, Revision A.03,
 Gaussian 16:  ES64L-G16RevA.03 25-Dec-2016

 ------------------
 #p CCSD(T)/cc-pVTZ
 ------------------

 ------------
 H2O_H2O_3543
 ------------
 Symbolic Z-matrix:
 Charge =  0 Multiplicity = 1

                         Standard orientation:
 ---------------------------------------------------------------------
 Center     Atomic      Atomic             Coordinates (Angstroms)
 Number     Number       Type             X           Y           Z
 ---------------------------------------------------------------------
      1          8           0        0.052825   -2.640124    0.000000
      2          1           0       -0.747714   -3.209897    0.000000
      3          1           0        0.851426   -3.212612    0.000000
      4          8           0        0.052825    2.710458    0.000000
      5          1           0       -0.167223    3.668104    0.000000
      6          1           0       -0.781696    2.191729    0.000000
 ---------------------------------------------------------------------

 SCF Done:  E(RHF) =  -152.107320111     A.U. after   10 cycles
 E2 =    -0.5259160959D+00 EUMP2 =    -0.15263323620670D+03
 CCSD(T)
 CCSD(T)= -0.15266045580D+03

 The electronic state is 1-A'.
 Alpha  occ. eigenvalues --  -20.55540 -20.54957  -1.32837  -1.32252  -0.70244
 Alpha  occ. eigenvalues --   -0.69647  -0.56280  -0.55693  -0.49948  -0.49366
 Alpha virt. eigenvalues --    0.13955   0.14835   0.20171   0.20874   0.54290
 Alpha virt. eigenvalues --    0.54910   0.57228   0.57785   0.67497   0.69012
 Alpha virt. eigenvalues --    0.78934   0.79503   0.80335   0.80800   0.82606

 Mulliken charges:
               1
     1  O   -0.508340
     2  H    0.252302
     3  H    0.256083
     4  O   -0.507886
     5  H    0.250535
     6  H    0.257306
 Sum of Mulliken charges =  -0.00000

 Dipole moment (field-independent basis, Debye):
    X=             -1.8098    Y=             -1.2391    Z=              0.0000  Tot=              2.1934
 Quadrupole moment (field-independent basis, Debye-Ang):
   XX=             -9.5589   YY=              4.4334   ZZ=            -14.7121
   XY=             -4.3793   XZ=              0.0000   YZ=              0.0000

 Normal termination of Gaussian 16 at Sat Aug 27 01:21:25 2022.
