 Gaussian 16, Revision A.03,
 Gaussian 16:  ES64L-G16RevA.03 25-Dec-2016

 ------------------
 #p CCSD(T)/cc-pVTZ
 ------------------

 ------------
 H2O_H2O_3166
 ------------
 Symbolic Z-matrix:
 Charge =  0 Multiplicity = 1

                         Standard orientation:
 ---------------------------------------------------------------------
 Center     Atomic      Atomic             Coordinates (Angstroms)
 Number     Number       Type             X           Y           Z
 ---------------------------------------------------------------------
      1          8           0        0.049510   -2.447958    0.000000
      2          1           0       -0.751041   -3.017714    0.000000
      3          1           0        0.848098   -3.020464    0.000000
      4          8           0        0.049510    2.504901    0.000000
      5          1           0       -0.043637    3.483077    0.000000
      6          1           0       -0.845588    2.099555    0.000000
 ---------------------------------------------------------------------

 SCF Done:  E(RHF) =  -152.107065146     A.U. after   10 cycles
 E2 =    -0.5259631254D+00 EUMP2 =    -0.15263302827149D+03
 CCSD(T)
 CCSD(T)= -0.15266025107D+03

 The electronic state is 1-A'.
 Alpha  occ. eigenvalues --  -20.55412 -20.54856  -1.32708  -1.32149  -0.70116
 Alpha  occ. eigenvalues --   -0.69543  -0.56137  -0.55578  -0.49816  -0.49261
 Alpha virt. eigenvalues --    0.13919   0.15028   0.20232   0.20989   0.54354
 Alpha virt. eigenvalues --    0.54981   0.57340   0.57846   0.67143   0.69922
 Alpha virt. eigenvalues --    0.79065   0.79607   0.80387   0.80984   0.82789

 Mulliken charges:
               1
     1  O   -0.506686
     2  H    0.251172
     3  H    0.255622
     4  O   -0.506261
     5  H    0.249392
     6  H    0.256761
 Sum of Mulliken charges =  -0.00000

 Dipole moment (field-independent basis, Debye):
    X=             -1.6921    Y=             -1.0084    Z=              0.0000  Tot=              1.9698
 Quadrupole moment (field-independent basis, Debye-Ang):
   XX=             -9.3463   YY=              4.2875   ZZ=            -14.7118
   XY=             -3.5625   XZ=              0.0000   YZ=              0.0000

 Normal termination of Gaussian 16 at Fri Aug 26 19:59:16 2022.
