 Gaussian 16, Revision A.03,
 Gaussian 16:  ES64L-G16RevA.03 25-Dec-2016

 ------------------
 #p CCSD(T)/cc-pVTZ
 ------------------

 ------------
 H2O_H2O_2214
 ------------
 Symbolic Z-matrix:
 Charge =  0 Multiplicity = 1

                         Standard orientation:
 ---------------------------------------------------------------------
 Center     Atomic      Atomic             Coordinates (Angstroms)
 Number     Number       Type             X           Y           Z
 ---------------------------------------------------------------------
      1          8           0        0.045355   -1.949464    0.000000
      2          1           0       -0.755344   -2.519013    0.000000
      3          1           0        0.843795   -2.522177    0.000000
      4          8           0        0.045355    1.993975    0.000000
      5          1           0        0.080937    2.975932    0.000000
      6          1           0       -0.895068    1.709174    0.000000
 ---------------------------------------------------------------------

 SCF Done:  E(RHF) =  -152.106428200     A.U. after   10 cycles
 E2 =    -0.5262584884D+00 EUMP2 =    -0.15263268668868D+03
 CCSD(T)
 CCSD(T)= -0.15265989967D+03

 The electronic state is 1-A'.
 Alpha  occ. eigenvalues --  -20.55170 -20.54450  -1.32451  -1.31728  -0.69866
 Alpha  occ. eigenvalues --   -0.69115  -0.55849  -0.55097  -0.49557  -0.48839
 Alpha virt. eigenvalues --    0.13646   0.15840   0.20254   0.21657   0.53598
 Alpha virt. eigenvalues --    0.55037   0.57559   0.58280   0.64440   0.75221
 Alpha virt. eigenvalues --    0.79099   0.79693   0.80230   0.81364   0.83703

 Mulliken charges:
               1
     1  O   -0.499364
     2  H    0.246472
     3  H    0.253851
     4  O   -0.500443
     5  H    0.244274
     6  H    0.255208
 Sum of Mulliken charges =   0.00000

 Dipole moment (field-independent basis, Debye):
    X=             -1.5304    Y=             -0.8112    Z=              0.0000  Tot=              1.7320
 Quadrupole moment (field-independent basis, Debye-Ang):
   XX=             -9.1084   YY=              1.8229   ZZ=            -14.7123
   XY=             -2.3158   XZ=              0.0000   YZ=              0.0000

 Normal termination of Gaussian 16 at Sat Aug 27 09:15:11 2022.
