 Gaussian 16, Revision A.03,
 Gaussian 16:  ES64L-G16RevA.03 25-Dec-2016

 ------------------
 #p CCSD(T)/cc-pVTZ
 ------------------

 -----------
 H2O_H2O_940
 -----------
 Symbolic Z-matrix:
 Charge =  0 Multiplicity = 1

                         Standard orientation:
 ---------------------------------------------------------------------
 Center     Atomic      Atomic             Coordinates (Angstroms)
 Number     Number       Type             X           Y           Z
 ---------------------------------------------------------------------
      1          8           0        0.047568   -1.268136    0.000000
      2          1           0       -0.753804   -1.836738    0.000000
      3          1           0        0.845330   -1.841793    0.000000
      4          8           0        0.047568    1.318602    0.000000
      5          1           0        0.020011    2.300817    0.000000
      6          1           0       -0.872623    0.973993    0.000000
 ---------------------------------------------------------------------

 SCF Done:  E(RHF) =  -152.099930330     A.U. after   11 cycles
 E2 =    -0.5288134517D+00 EUMP2 =    -0.15262874378128D+03
 CCSD(T)
 CCSD(T)= -0.15265593258D+03

 The electronic state is 1-A'.
 Alpha  occ. eigenvalues --  -20.54776 -20.53065  -1.32337  -1.30297  -0.69737
 Alpha  occ. eigenvalues --   -0.67978  -0.56261  -0.52530  -0.49488  -0.47295
 Alpha virt. eigenvalues --    0.13831   0.17379   0.20079   0.23498   0.53323
 Alpha virt. eigenvalues --    0.57623   0.58354   0.59467   0.70582   0.75517
 Alpha virt. eigenvalues --    0.77198   0.78647   0.83074   0.83473   0.85239

 Mulliken charges:
               1
     1  O   -0.472957
     2  H    0.230358
     3  H    0.248160
     4  O   -0.470179
     5  H    0.216979
     6  H    0.247639
 Sum of Mulliken charges =  -0.00000

 Dipole moment (field-independent basis, Debye):
    X=             -1.4997    Y=             -0.9911    Z=              0.0000  Tot=              1.7976
 Quadrupole moment (field-independent basis, Debye-Ang):
   XX=             -9.3016   YY=             -3.1725   ZZ=            -14.7233
   XY=             -1.4592   XZ=              0.0000   YZ=              0.0000

 Normal termination of Gaussian 16 at Fri Aug 26 21:21:59 2022.
