 Gaussian 16, Revision A.03,
 Gaussian 16:  ES64L-G16RevA.03 25-Dec-2016

 ------------------
 #p CCSD(T)/cc-pVTZ
 ------------------

 ------------
 H2O_H2O_3064
 ------------
 Symbolic Z-matrix:
 Charge =  0 Multiplicity = 1

                         Standard orientation:
 ---------------------------------------------------------------------
 Center     Atomic      Atomic             Coordinates (Angstroms)
 Number     Number       Type             X           Y           Z
 ---------------------------------------------------------------------
      1          8           0        0.045347   -2.401508    0.000000
      2          1           0       -0.755142   -2.971352    0.000000
      3          1           0        0.843998   -2.973926    0.000000
      4          8           0        0.045347    2.446052    0.000000
      5          1           0        0.080566    3.428021    0.000000
      6          1           0       -0.894971    2.160904    0.000000
 ---------------------------------------------------------------------

 SCF Done:  E(RHF) =  -152.106812209     A.U. after   10 cycles
 E2 =    -0.5259897920D+00 EUMP2 =    -0.15263280200059D+03
 CCSD(T)
 CCSD(T)= -0.15266003005D+03

 The electronic state is 1-A'.
 Alpha  occ. eigenvalues --  -20.55288 -20.54836  -1.32583  -1.32127  -0.69992
 Alpha  occ. eigenvalues --   -0.69523  -0.56000  -0.55546  -0.49690  -0.49238
 Alpha virt. eigenvalues --    0.14004   0.15057   0.20308   0.20971   0.54442
 Alpha virt. eigenvalues --    0.55026   0.57443   0.57861   0.67017   0.70284
 Alpha virt. eigenvalues --    0.79188   0.79634   0.80520   0.81151   0.82862

 Mulliken charges:
               1
     1  O   -0.505230
     2  H    0.250489
     3  H    0.254832
     4  O   -0.504794
     5  H    0.248975
     6  H    0.255727
 Sum of Mulliken charges =  -0.00000

 Dipole moment (field-independent basis, Debye):
    X=             -1.5484    Y=             -0.7895    Z=              0.0000  Tot=              1.7381
 Quadrupole moment (field-independent basis, Debye-Ang):
   XX=             -9.0997   YY=              4.7843   ZZ=            -14.7114
   XY=             -3.0055   XZ=              0.0000   YZ=              0.0000

 94774\MP4DQ=-152.6419156\MP4SDQ=-152.644978\CCSD=-152.644388\CCSD(T)=-
 Normal termination of Gaussian 16 at Fri Aug 26 19:03:56 2022.
