 Gaussian 16, Revision A.03,
 Gaussian 16:  ES64L-G16RevA.03 25-Dec-2016

 ------------------
 #p CCSD(T)/cc-pVTZ
 ------------------

 -----------
 H2O_H2O_237
 -----------
 Symbolic Z-matrix:
 Charge =  0 Multiplicity = 1

                         Standard orientation:
 ---------------------------------------------------------------------
 Center     Atomic      Atomic             Coordinates (Angstroms)
 Number     Number       Type             X           Y           Z
 ---------------------------------------------------------------------
      1          8           0        0.040448   -0.905253    0.000000
      2          1           0       -0.761271   -1.473365    0.000000
      3          1           0        0.837859   -1.479396    0.000000
      4          8           0        0.040448    0.938404    0.000000
      5          1           0        0.205633    1.907022    0.000000
      6          1           0       -0.929388    0.780530    0.000000
 ---------------------------------------------------------------------

 SCF Done:  E(RHF) =  -152.021585338     A.U. after   11 cycles
 E2 =    -0.5396088045D+00 EUMP2 =    -0.15256119414251D+03
 CCSD(T)
 CCSD(T)= -0.15258750525D+03

 The electronic state is 1-A'.
 Alpha  occ. eigenvalues --  -20.52684 -20.51522  -1.34280  -1.27823  -0.71083
 Alpha  occ. eigenvalues --   -0.68131  -0.59341  -0.50941  -0.44430  -0.42662
 Alpha virt. eigenvalues --    0.14203   0.18556   0.19966   0.23692   0.53442
 Alpha virt. eigenvalues --    0.56783   0.58551   0.64580   0.72159   0.77255
 Alpha virt. eigenvalues --    0.80260   0.82121   0.83132   0.84928   0.88584

 Mulliken charges:
               1
     1  O   -0.406892
     2  H    0.192141
     3  H    0.214583
     4  O   -0.383309
     5  H    0.151119
     6  H    0.232359
 Sum of Mulliken charges =  -0.00000

 Dipole moment (field-independent basis, Debye):
    X=             -1.1305    Y=             -0.7133    Z=              0.0000  Tot=              1.3367
 Quadrupole moment (field-independent basis, Debye-Ang):
   XX=             -9.0812   YY=             -6.9133   ZZ=            -14.7037
   XY=             -0.6088   XZ=              0.0000   YZ=              0.0000

 Normal termination of Gaussian 16 at Fri Aug 26 14:22:14 2022.
