 Gaussian 16, Revision A.03,
 Gaussian 16:  ES64L-G16RevA.03 25-Dec-2016

 ------------------
 #p CCSD(T)/cc-pVTZ
 ------------------

 ------------
 H2O_H2O_2642
 ------------
 Symbolic Z-matrix:
 Charge =  0 Multiplicity = 1

                         Standard orientation:
 ---------------------------------------------------------------------
 Center     Atomic      Atomic             Coordinates (Angstroms)
 Number     Number       Type             X           Y           Z
 ---------------------------------------------------------------------
      1          8           0        0.051287   -2.165182    0.000000
      2          1           0       -0.749429   -2.734708    0.000000
      3          1           0        0.849710   -2.737918    0.000000
      4          8           0        0.051287    2.228682    0.000000
      5          1           0       -0.105357    3.198717    0.000000
      6          1           0       -0.815518    1.765912    0.000000
 ---------------------------------------------------------------------

 SCF Done:  E(RHF) =  -152.107138378     A.U. after   10 cycles
 E2 =    -0.5260558009D+00 EUMP2 =    -0.15263319417892D+03
 CCSD(T)
 CCSD(T)= -0.15266040481D+03

 The electronic state is 1-A'.
 Alpha  occ. eigenvalues --  -20.55456 -20.54635  -1.32745  -1.31924  -0.70155
 Alpha  occ. eigenvalues --   -0.69310  -0.56170  -0.55351  -0.49855  -0.49039
 Alpha virt. eigenvalues --    0.13555   0.15497   0.20148   0.21457   0.54069
 Alpha virt. eigenvalues --    0.54871   0.57328   0.58056   0.66058   0.72596
 Alpha virt. eigenvalues --    0.79011   0.79842   0.80012   0.81747   0.82776

 Mulliken charges:
               1
     1  O   -0.505406
     2  H    0.249880
     3  H    0.256169
     4  O   -0.505994
     5  H    0.247453
     6  H    0.257898
 Sum of Mulliken charges =  -0.00000

 Dipole moment (field-independent basis, Debye):
    X=             -1.7435    Y=             -1.1409    Z=              0.0000  Tot=              2.0836
 Quadrupole moment (field-independent basis, Debye-Ang):
   XX=             -9.4594   YY=              2.1936   ZZ=            -14.7128
   XY=             -3.3127   XZ=              0.0000   YZ=              0.0000

 Normal termination of Gaussian 16 at Fri Aug 26 14:39:23 2022.
