 Gaussian 16, Revision A.03,
 Gaussian 16:  ES64L-G16RevA.03 25-Dec-2016

 ------------------
 #p CCSD(T)/cc-pVTZ
 ------------------

 ------------
 H2O_H2O_3425
 ------------
 Symbolic Z-matrix:
 Charge =  0 Multiplicity = 1

                         Standard orientation:
 ---------------------------------------------------------------------
 Center     Atomic      Atomic             Coordinates (Angstroms)
 Number     Number       Type             X           Y           Z
 ---------------------------------------------------------------------
      1          8           0        0.000000   -0.000000    2.625139
      2          1           0        0.000000    0.799571    3.196271
      3          1           0       -0.000000   -0.799571    3.196271
      4          8           0        0.000000   -0.000000   -2.625139
      5          1           0       -0.000000   -0.799571   -3.196271
      6          1           0        0.000000    0.799571   -3.196271
 ---------------------------------------------------------------------

 SCF Done:  E(RHF) =  -152.106326671     A.U. after   10 cycles
 E2 =    -0.5259960007D+00 EUMP2 =    -0.15263232267151D+03
 CCSD(T)
 CCSD(T)= -0.15265956448D+03

 The electronic state is 1-AG.
 Alpha  occ. eigenvalues --  -20.54985 -20.54985  -1.32279  -1.32279  -0.69688
 Alpha  occ. eigenvalues --   -0.69688  -0.55681  -0.55668  -0.49383  -0.49382
 Alpha virt. eigenvalues --    0.14474   0.14728   0.20579   0.20663   0.54831
 Alpha virt. eigenvalues --    0.54939   0.57690   0.57730   0.67972   0.69229
 Alpha virt. eigenvalues --    0.79486   0.79502   0.80917   0.80978   0.82778

 Mulliken charges:
               1
     1  O   -0.502501
     2  H    0.251250
     3  H    0.251250
     4  O   -0.502501
     5  H    0.251250
     6  H    0.251250
 Sum of Mulliken charges =   0.00000

 Dipole moment (field-independent basis, Debye):
    X=             -0.0000    Y=              0.0000    Z=             -0.0000  Tot=              0.0000
 Quadrupole moment (field-independent basis, Debye-Ang):
   XX=            -14.7100   YY=             -7.8114   ZZ=              8.9472
   XY=              0.0000   XZ=              0.0000   YZ=             -0.0000

 4\MP4DQ=-152.6414447\MP4SDQ=-152.6445095\CCSD=-152.6439194\CCSD(T)=-15
 Normal termination of Gaussian 16 at Fri Aug 26 22:13:34 2022.
