 Gaussian 16, Revision A.03,
 Gaussian 16:  ES64L-G16RevA.03 25-Dec-2016

 ------------------
 #p CCSD(T)/cc-pVTZ
 ------------------

 ------------
 H2O_H2O_1369
 ------------
 Symbolic Z-matrix:
 Charge =  0 Multiplicity = 1

                         Standard orientation:
 ---------------------------------------------------------------------
 Center     Atomic      Atomic             Coordinates (Angstroms)
 Number     Number       Type             X           Y           Z
 ---------------------------------------------------------------------
      1          8           0        0.054201   -1.479660    0.000000
      2          1           0       -0.747118   -2.048338    0.000000
      3          1           0        0.852017   -2.053241    0.000000
      4          8           0        0.054201    1.556838    0.000000
      5          1           0       -0.226722    2.498426    0.000000
      6          1           0       -0.745390    0.985733    0.000000
 ---------------------------------------------------------------------

 SCF Done:  E(RHF) =  -152.106960092     A.U. after   10 cycles
 E2 =    -0.5273222659D+00 EUMP2 =    -0.15263428235840D+03
 CCSD(T)
 CCSD(T)= -0.15266142505D+03

 The electronic state is 1-A'.
 Alpha  occ. eigenvalues --  -20.55764 -20.53505  -1.33078  -1.30779  -0.70494
 Alpha  occ. eigenvalues --   -0.68232  -0.56431  -0.54158  -0.50194  -0.47896
 Alpha virt. eigenvalues --    0.13392   0.17030   0.19848   0.23912   0.53585
 Alpha virt. eigenvalues --    0.55789   0.57081   0.58413   0.67853   0.75457
 Alpha virt. eigenvalues --    0.76340   0.77037   0.80122   0.82021   0.84644

 Mulliken charges:
               1
     1  O   -0.487048
     2  H    0.240162
     3  H    0.255323
     4  O   -0.499385
     5  H    0.233395
     6  H    0.257553
 Sum of Mulliken charges =  -0.00000

 Dipole moment (field-independent basis, Debye):
    X=             -1.7701    Y=             -1.4967    Z=              0.0000  Tot=              2.3181
 Quadrupole moment (field-independent basis, Debye-Ang):
   XX=             -9.6663   YY=             -2.4631   ZZ=            -14.7220
   XY=             -2.5112   XZ=              0.0000   YZ=              0.0000

 Normal termination of Gaussian 16 at Sat Aug 27 04:17:43 2022.
