 Gaussian 16, Revision A.03,
 Gaussian 16:  ES64L-G16RevA.03 25-Dec-2016

 ------------------
 #p CCSD(T)/cc-pVTZ
 ------------------

 ------------
 H2O_H2O_3018
 ------------
 Symbolic Z-matrix:
 Charge =  0 Multiplicity = 1

                         Standard orientation:
 ---------------------------------------------------------------------
 Center     Atomic      Atomic             Coordinates (Angstroms)
 Number     Number       Type             X           Y           Z
 ---------------------------------------------------------------------
      1          8           0        0.052832   -2.360920    0.000000
      2          1           0       -0.747820   -2.930536    0.000000
      3          1           0        0.851319   -2.933567    0.000000
      4          8           0        0.052832    2.431234    0.000000
      5          1           0       -0.167026    3.388923    0.000000
      6          1           0       -0.781792    1.912671    0.000000
 ---------------------------------------------------------------------

 SCF Done:  E(RHF) =  -152.107307133     A.U. after   10 cycles
 E2 =    -0.5259690097D+00 EUMP2 =    -0.15263327614279D+03
 CCSD(T)
 CCSD(T)= -0.15266049052D+03

 The electronic state is 1-A'.
 Alpha  occ. eigenvalues --  -20.55532 -20.54785  -1.32826  -1.32079  -0.70234
 Alpha  occ. eigenvalues --   -0.69468  -0.56265  -0.55516  -0.49937  -0.49193
 Alpha virt. eigenvalues --    0.13689   0.15192   0.20137   0.21176   0.54198
 Alpha virt. eigenvalues --    0.54940   0.57250   0.57895   0.66813   0.70508
 Alpha virt. eigenvalues --    0.78947   0.79672   0.80135   0.80923   0.82802

 Mulliken charges:
               1
     1  O   -0.507624
     2  H    0.251380
     3  H    0.256524
     4  O   -0.507432
     5  H    0.249078
     6  H    0.258075
 Sum of Mulliken charges =   0.00000

 Dipole moment (field-independent basis, Debye):
    X=             -1.8036    Y=             -1.2507    Z=              0.0000  Tot=              2.1948
 Quadrupole moment (field-independent basis, Debye-Ang):
   XX=             -9.5590   YY=              2.8799   ZZ=            -14.7126
   XY=             -3.8801   XZ=              0.0000   YZ=              0.0000

 Normal termination of Gaussian 16 at Fri Aug 26 18:33:55 2022.
