 Gaussian 16, Revision A.03,
 Gaussian 16:  ES64L-G16RevA.03 25-Dec-2016

 ------------------
 #p CCSD(T)/cc-pVTZ
 ------------------

 ------------
 H2O_H2O_1396
 ------------
 Symbolic Z-matrix:
 Charge =  0 Multiplicity = 1

                         Standard orientation:
 ---------------------------------------------------------------------
 Center     Atomic      Atomic             Coordinates (Angstroms)
 Number     Number       Type             X           Y           Z
 ---------------------------------------------------------------------
      1          8           0        0.056160   -1.485130    0.000000
      2          1           0       -0.745206   -2.053741    0.000000
      3          1           0        0.853928   -2.058777    0.000000
      4          8           0        0.056160    1.576718    0.000000
      5          1           0       -0.345186    2.473617    0.000000
      6          1           0       -0.662102    0.906192    0.000000
 ---------------------------------------------------------------------

 SCF Done:  E(RHF) =  -152.108173504     A.U. after   10 cycles
 E2 =    -0.5272984249D+00 EUMP2 =    -0.15263547192858D+03
 CCSD(T)
 CCSD(T)= -0.15266258366D+03

 The electronic state is 1-A'.
 Alpha  occ. eigenvalues --  -20.56155 -20.53402  -1.33467  -1.30700  -0.70873
 Alpha  occ. eigenvalues --   -0.68181  -0.56806  -0.54169  -0.50581  -0.47826
 Alpha virt. eigenvalues --    0.13186   0.17131   0.19714   0.24603   0.52923
 Alpha virt. eigenvalues --    0.55691   0.56846   0.58559   0.68233   0.75207
 Alpha virt. eigenvalues --    0.75959   0.77206   0.80692   0.81880   0.84353

 Mulliken charges:
               1
     1  O   -0.489990
     2  H    0.242761
     3  H    0.257909
     4  O   -0.507628
     5  H    0.235525
     6  H    0.261423
 Sum of Mulliken charges =  -0.00000

 Dipole moment (field-independent basis, Debye):
    X=             -1.8384    Y=             -1.7884    Z=              0.0000  Tot=              2.5648
 Quadrupole moment (field-independent basis, Debye-Ang):
   XX=             -9.7907   YY=             -3.0130   ZZ=            -14.7242
   XY=             -2.8803   XZ=              0.0000   YZ=              0.0000

 19008\MP4DQ=-152.6442534\MP4SDQ=-152.6473805\CCSD=-152.646758\CCSD(T)=
 Normal termination of Gaussian 16 at Sat Aug 27 04:29:45 2022.
