 Gaussian 16, Revision A.03,
 Gaussian 16:  ES64L-G16RevA.03 25-Dec-2016

 ------------------
 #p CCSD(T)/cc-pVTZ
 ------------------

 ------------
 H2O_H2O_3415
 ------------
 Symbolic Z-matrix:
 Charge =  0 Multiplicity = 1

                         Standard orientation:
 ---------------------------------------------------------------------
 Center     Atomic      Atomic             Coordinates (Angstroms)
 Number     Number       Type             X           Y           Z
 ---------------------------------------------------------------------
      1          8           0        0.047528   -2.584352    0.000000
      2          1           0       -0.752937   -3.154231    0.000000
      3          1           0        0.846203   -3.156736    0.000000
      4          8           0        0.047528    2.634969    0.000000
      5          1           0        0.018405    3.617140    0.000000
      6          1           0       -0.872113    2.288894    0.000000
 ---------------------------------------------------------------------

 SCF Done:  E(RHF) =  -152.107017886     A.U. after   10 cycles
 E2 =    -0.5259455004D+00 EUMP2 =    -0.15263296338631D+03
 CCSD(T)
 CCSD(T)= -0.15266018941D+03

 The electronic state is 1-A'.
 Alpha  occ. eigenvalues --  -20.55379 -20.54940  -1.32676  -1.32234  -0.70083
 Alpha  occ. eigenvalues --   -0.69630  -0.56104  -0.55662  -0.49784  -0.49345
 Alpha virt. eigenvalues --    0.14083   0.14846   0.20281   0.20840   0.54441
 Alpha virt. eigenvalues --    0.54942   0.57365   0.57790   0.67565   0.69220
 Alpha virt. eigenvalues --    0.79096   0.79526   0.80502   0.80936   0.82653

 Mulliken charges:
               1
     1  O   -0.506578
     2  H    0.251457
     3  H    0.255154
     4  O   -0.506158
     5  H    0.250050
     6  H    0.256075
 Sum of Mulliken charges =  -0.00000

 Dipole moment (field-independent basis, Debye):
    X=             -1.6269    Y=             -0.8923    Z=              0.0000  Tot=              1.8556
 Quadrupole moment (field-independent basis, Debye-Ang):
   XX=             -9.2254   YY=              5.5586   ZZ=            -14.7115
   XY=             -3.5396   XZ=              0.0000   YZ=              0.0000

 Normal termination of Gaussian 16 at Fri Aug 26 22:08:34 2022.
