 Gaussian 16, Revision A.03,
 Gaussian 16:  ES64L-G16RevA.03 25-Dec-2016

 ------------------
 #p CCSD(T)/cc-pVTZ
 ------------------

 ------------
 H2O_H2O_1413
 ------------
 Symbolic Z-matrix:
 Charge =  0 Multiplicity = 1

                         Standard orientation:
 ---------------------------------------------------------------------
 Center     Atomic      Atomic             Coordinates (Angstroms)
 Number     Number       Type             X           Y           Z
 ---------------------------------------------------------------------
      1          8           0        0.042986   -1.527146    0.000000
      2          1           0       -0.757947   -2.096365    0.000000
      3          1           0        0.841190   -2.100188    0.000000
      4          8           0        0.042986    1.565853    0.000000
      5          1           0        0.143117    2.543339    0.000000
      6          1           0       -0.914142    1.343564    0.000000
 ---------------------------------------------------------------------

 SCF Done:  E(RHF) =  -152.104474506     A.U. after   10 cycles
 E2 =    -0.5271900946D+00 EUMP2 =    -0.15263166460108D+03
 CCSD(T)
 CCSD(T)= -0.15265888290D+03

 The electronic state is 1-A'.
 Alpha  occ. eigenvalues --  -20.54806 -20.53822  -1.32110  -1.31074  -0.69536
 Alpha  occ. eigenvalues --   -0.68481  -0.55789  -0.53950  -0.49233  -0.48155
 Alpha virt. eigenvalues --    0.13876   0.16689   0.20237   0.22524   0.53663
 Alpha virt. eigenvalues --    0.56635   0.57795   0.58607   0.65828   0.76334
 Alpha virt. eigenvalues --    0.77515   0.77742   0.79598   0.82196   0.85391

 Mulliken charges:
               1
     1  O   -0.482695
     2  H    0.236611
     3  H    0.248691
     4  O   -0.482882
     5  H    0.231519
     6  H    0.248756
 Sum of Mulliken charges =  -0.00000

 Dipole moment (field-independent basis, Debye):
    X=             -1.4081    Y=             -0.7352    Z=              0.0000  Tot=              1.5884
 Quadrupole moment (field-independent basis, Debye-Ang):
   XX=             -9.0131   YY=             -0.9271   ZZ=            -14.7148
   XY=             -1.5108   XZ=              0.0000   YZ=              0.0000

 Normal termination of Gaussian 16 at Sat Aug 27 04:36:34 2022.
