 Gaussian 16, Revision A.03,
 Gaussian 16:  ES64L-G16RevA.03 25-Dec-2016

 ------------------
 #p CCSD(T)/cc-pVTZ
 ------------------

 ------------
 H2O_H2O_1013
 ------------
 Symbolic Z-matrix:
 Charge =  0 Multiplicity = 1

                         Standard orientation:
 ---------------------------------------------------------------------
 Center     Atomic      Atomic             Coordinates (Angstroms)
 Number     Number       Type             X           Y           Z
 ---------------------------------------------------------------------
      1          8           0        0.042994   -1.314429    0.000000
      2          1           0       -0.758157   -1.883343    0.000000
      3          1           0        0.840979   -1.887775    0.000000
      4          8           0        0.042994    1.353102    0.000000
      5          1           0        0.143497    2.330551    0.000000
      6          1           0       -0.914219    1.131178    0.000000
 ---------------------------------------------------------------------

 SCF Done:  E(RHF) =  -152.100444878     A.U. after   11 cycles
 E2 =    -0.5284003200D+00 EUMP2 =    -0.15262884519823D+03
 CCSD(T)
 CCSD(T)= -0.15265607074D+03

 The electronic state is 1-A'.
 Alpha  occ. eigenvalues --  -20.54487 -20.53280  -1.31971  -1.30512  -0.69376
 Alpha  occ. eigenvalues --   -0.68054  -0.56214  -0.52526  -0.49140  -0.47500
 Alpha virt. eigenvalues --    0.13984   0.17189   0.20212   0.23050   0.53410
 Alpha virt. eigenvalues --    0.57893   0.58198   0.59443   0.69858   0.76112
 Alpha virt. eigenvalues --    0.76998   0.77127   0.82752   0.83152   0.85526

 Mulliken charges:
               1
     1  O   -0.474058
     2  H    0.230495
     3  H    0.246468
     4  O   -0.467221
     5  H    0.219598
     6  H    0.244718
 Sum of Mulliken charges =  -0.00000

 Dipole moment (field-independent basis, Debye):
    X=             -1.3663    Y=             -0.7509    Z=              0.0000  Tot=              1.5591
 Quadrupole moment (field-independent basis, Debye-Ang):
   XX=             -9.0516   YY=             -2.5839   ZZ=            -14.7209
   XY=             -1.2162   XZ=              0.0000   YZ=              0.0000

 Normal termination of Gaussian 16 at Sat Aug 27 01:22:46 2022.
