 Gaussian 16, Revision A.03,
 Gaussian 16:  ES64L-G16RevA.03 25-Dec-2016

 ------------------
 #p CCSD(T)/cc-pVTZ
 ------------------

 ------------
 H2O_H2O_4789
 ------------
 Symbolic Z-matrix:
 Charge =  0 Multiplicity = 1

                         Standard orientation:
 ---------------------------------------------------------------------
 Center     Atomic      Atomic             Coordinates (Angstroms)
 Number     Number       Type             X           Y           Z
 ---------------------------------------------------------------------
      1          8           0        0.045337   -3.318904    0.000000
      2          1           0       -0.754900   -3.889103    0.000000
      3          1           0        0.844241   -3.890969    0.000000
      4          8           0        0.045337    3.363488    0.000000
      5          1           0        0.080122    4.345474    0.000000
      6          1           0       -0.894855    3.077927    0.000000
 ---------------------------------------------------------------------

 SCF Done:  E(RHF) =  -152.107212248     A.U. after   10 cycles
 E2 =    -0.5258929947D+00 EUMP2 =    -0.15263310524264D+03
 CCSD(T)
 CCSD(T)= -0.15266032974D+03

 The electronic state is 1-A'.
 Alpha  occ. eigenvalues --  -20.55450 -20.55221  -1.32748  -1.32517  -0.70155
 Alpha  occ. eigenvalues --   -0.69920  -0.56187  -0.55956  -0.49858  -0.49628
 Alpha virt. eigenvalues --    0.14210   0.14440   0.20274   0.20516   0.54410
 Alpha virt. eigenvalues --    0.54653   0.57311   0.57541   0.68017   0.68253
 Alpha virt. eigenvalues --    0.79021   0.79248   0.80456   0.80703   0.82381

 Mulliken charges:
               1
     1  O   -0.507722
     2  H    0.252995
     3  H    0.254727
     4  O   -0.507576
     5  H    0.252349
     6  H    0.255226
 Sum of Mulliken charges =  -0.00000

 Dipole moment (field-independent basis, Debye):
    X=             -1.5592    Y=             -0.7773    Z=              0.0000  Tot=              1.7422
 Quadrupole moment (field-independent basis, Debye-Ang):
   XX=             -9.0965   YY=             10.7117   ZZ=            -14.7115
   XY=             -4.4196   XZ=              0.0000   YZ=              0.0000

 Normal termination of Gaussian 16 at Sat Aug 27 09:20:45 2022.
