 Gaussian 16, Revision A.03,
 Gaussian 16:  ES64L-G16RevA.03 25-Dec-2016

 ------------------
 #p CCSD(T)/cc-pVTZ
 ------------------

 ------------
 H2O_H2O_1544
 ------------
 Symbolic Z-matrix:
 Charge =  0 Multiplicity = 1

                         Standard orientation:
 ---------------------------------------------------------------------
 Center     Atomic      Atomic             Coordinates (Angstroms)
 Number     Number       Type             X           Y           Z
 ---------------------------------------------------------------------
      1          8           0        0.054194   -1.572721    0.000000
      2          1           0       -0.747024   -2.141541    0.000000
      3          1           0        0.852112   -2.146161    0.000000
      4          8           0        0.054194    1.649918    0.000000
      5          1           0       -0.226896    2.591457    0.000000
      6          1           0       -0.745296    1.078672    0.000000
 ---------------------------------------------------------------------

 SCF Done:  E(RHF) =  -152.107436280     A.U. after   10 cycles
 E2 =    -0.5269433538D+00 EUMP2 =    -0.15263437963400D+03
 CCSD(T)
 CCSD(T)= -0.15266152979D+03

 The electronic state is 1-A'.
 Alpha  occ. eigenvalues --  -20.55753 -20.53737  -1.33038  -1.31011  -0.70454
 Alpha  occ. eigenvalues --   -0.68409  -0.56432  -0.54416  -0.50154  -0.48134
 Alpha virt. eigenvalues --    0.13363   0.16795   0.19880   0.23623   0.53913
 Alpha virt. eigenvalues --    0.55070   0.57064   0.58294   0.66478   0.75990
 Alpha virt. eigenvalues --    0.76779   0.77115   0.79269   0.81591   0.84668

 Mulliken charges:
               1
     1  O   -0.490673
     2  H    0.242050
     3  H    0.255356
     4  O   -0.502069
     5  H    0.236867
     6  H    0.258469
 Sum of Mulliken charges =  -0.00000

 Dipole moment (field-independent basis, Debye):
    X=             -1.7871    Y=             -1.4767    Z=              0.0000  Tot=              2.3183
 Quadrupole moment (field-independent basis, Debye-Ang):
   XX=             -9.6609   YY=             -1.9096   ZZ=            -14.7199
   XY=             -2.6757   XZ=              0.0000   YZ=              0.0000

 Normal termination of Gaussian 16 at Sat Aug 27 05:23:07 2022.
