 Gaussian 16, Revision A.03,
 Gaussian 16:  ES64L-G16RevA.03 25-Dec-2016

 ------------------
 #p CCSD(T)/cc-pVTZ
 ------------------

 ------------
 H2O_H2O_3309
 ------------
 Symbolic Z-matrix:
 Charge =  0 Multiplicity = 1

                         Standard orientation:
 ---------------------------------------------------------------------
 Center     Atomic      Atomic             Coordinates (Angstroms)
 Number     Number       Type             X           Y           Z
 ---------------------------------------------------------------------
      1          8           0        0.031741   -2.548240    0.000000
      2          1           0       -0.768440   -3.118518    0.000000
      3          1           0        0.830701   -3.120226    0.000000
      4          8           0        0.031741    2.567423    0.000000
      5          1           0        0.380237    3.486149    0.000000
      6          1           0       -0.950349    2.599132    0.000000
 ---------------------------------------------------------------------

 SCF Done:  E(RHF) =  -152.106514080     A.U. after   10 cycles
 E2 =    -0.5259885651D+00 EUMP2 =    -0.15263250264555D+03
 CCSD(T)
 CCSD(T)= -0.15265973982D+03

 The electronic state is 1-A'.
 Alpha  occ. eigenvalues --  -20.55109 -20.54938  -1.32403  -1.32231  -0.69812
 Alpha  occ. eigenvalues --   -0.69635  -0.55808  -0.55636  -0.49508  -0.49337
 Alpha virt. eigenvalues --    0.14327   0.14817   0.20478   0.20747   0.54704
 Alpha virt. eigenvalues --    0.54979   0.57592   0.57776   0.67667   0.69455
 Alpha virt. eigenvalues --    0.79368   0.79538   0.80797   0.81026   0.82742

 Mulliken charges:
               1
     1  O   -0.503627
     2  H    0.250510
     3  H    0.253126
     4  O   -0.503363
     5  H    0.249832
     6  H    0.253523
 Sum of Mulliken charges =   0.00000

 Dipole moment (field-independent basis, Debye):
    X=             -1.0855    Y=             -0.3380    Z=              0.0000  Tot=              1.1369
 Quadrupole moment (field-independent basis, Debye-Ang):
   XX=             -8.4428   YY=              7.2969   ZZ=            -14.7105
   XY=             -1.9942   XZ=              0.0000   YZ=              0.0000

 Normal termination of Gaussian 16 at Fri Aug 26 21:15:09 2022.
