 Gaussian 16, Revision A.03,
 Gaussian 16:  ES64L-G16RevA.03 25-Dec-2016

 ------------------
 #p CCSD(T)/cc-pVTZ
 ------------------

 ------------
 H2O_H2O_1231
 ------------
 Symbolic Z-matrix:
 Charge =  0 Multiplicity = 1

                         Standard orientation:
 ---------------------------------------------------------------------
 Center     Atomic      Atomic             Coordinates (Angstroms)
 Number     Number       Type             X           Y           Z
 ---------------------------------------------------------------------
      1          8           0        0.021862   -1.450406    0.000000
      2          1           0       -0.778447   -2.020504    0.000000
      3          1           0        0.820694   -2.022572    0.000000
      4          8           0        0.021862    1.459045    0.000000
      5          1           0        0.543085    2.292011    0.000000
      6          1           0       -0.935121    1.681957    0.000000
 ---------------------------------------------------------------------

 SCF Done:  E(RHF) =  -152.100983326     A.U. after   11 cycles
 E2 =    -0.5276084688D+00 EUMP2 =    -0.15262859179519D+03
 CCSD(T)
 CCSD(T)= -0.15265588179D+03

 The electronic state is 1-A'.
 Alpha  occ. eigenvalues --  -20.53922 -20.53702  -1.31321  -1.30937  -0.68729
 Alpha  occ. eigenvalues --   -0.68396  -0.55796  -0.52742  -0.48524  -0.47888
 Alpha virt. eigenvalues --    0.14306   0.16835   0.20511   0.22069   0.51913
 Alpha virt. eigenvalues --    0.58368   0.58657   0.59909   0.67677   0.76539
 Alpha virt. eigenvalues --    0.77388   0.78489   0.79308   0.82951   0.86047

 Mulliken charges:
               1
     1  O   -0.472930
     2  H    0.232585
     3  H    0.240384
     4  O   -0.469003
     5  H    0.230494
     6  H    0.238470
 Sum of Mulliken charges =  -0.00000

 Dipole moment (field-independent basis, Debye):
    X=             -0.7102    Y=             -0.1638    Z=              0.0000  Tot=              0.7289
 Quadrupole moment (field-independent basis, Debye-Ang):
   XX=             -8.2010   YY=             -0.9873   ZZ=            -14.7126
   XY=             -0.5009   XZ=              0.0000   YZ=              0.0000

 Normal termination of Gaussian 16 at Sat Aug 27 03:12:20 2022.
