 Gaussian 16, Revision A.03,
 Gaussian 16:  ES64L-G16RevA.03 25-Dec-2016

 ------------------
 #p CCSD(T)/cc-pVTZ
 ------------------

 -----------
 H2O_H2O_264
 -----------
 Symbolic Z-matrix:
 Charge =  0 Multiplicity = 1

                         Standard orientation:
 ---------------------------------------------------------------------
 Center     Atomic      Atomic             Coordinates (Angstroms)
 Number     Number       Type             X           Y           Z
 ---------------------------------------------------------------------
      1          8           0        0.045404   -0.912487    0.000000
      2          1           0       -0.756544   -1.480277    0.000000
      3          1           0        0.842584   -1.486951    0.000000
      4          8           0        0.045404    0.956798    0.000000
      5          1           0        0.083141    1.938675    0.000000
      6          1           0       -0.895642    0.674063    0.000000
 ---------------------------------------------------------------------

 SCF Done:  E(RHF) =  -152.028665735     A.U. after   11 cycles
 E2 =    -0.5389648236D+00 EUMP2 =    -0.15256763055865D+03
 CCSD(T)
 CCSD(T)= -0.15259403676D+03

 The electronic state is 1-A'.
 Alpha  occ. eigenvalues --  -20.53195 -20.51465  -1.34485  -1.27915  -0.71560
 Alpha  occ. eigenvalues --   -0.68532  -0.57968  -0.51073  -0.44621  -0.44214
 Alpha virt. eigenvalues --    0.14044   0.18555   0.19879   0.23948   0.52975
 Alpha virt. eigenvalues --    0.56977   0.58808   0.64350   0.72490   0.76741
 Alpha virt. eigenvalues --    0.80732   0.82420   0.82757   0.84522   0.88530

 Mulliken charges:
               1
     1  O   -0.404520
     2  H    0.191215
     3  H    0.216930
     4  O   -0.393701
     5  H    0.154158
     6  H    0.235918
 Sum of Mulliken charges =  -0.00000

 Dipole moment (field-independent basis, Debye):
    X=             -1.2712    Y=             -0.9404    Z=              0.0000  Tot=              1.5812
 Quadrupole moment (field-independent basis, Debye-Ang):
   XX=             -9.2929   YY=             -6.7740   ZZ=            -14.6917
   XY=             -0.8089   XZ=              0.0000   YZ=              0.0000

 Normal termination of Gaussian 16 at Fri Aug 26 14:40:29 2022.
