 Gaussian 16, Revision A.03,
 Gaussian 16:  ES64L-G16RevA.03 25-Dec-2016

 ------------------
 #p CCSD(T)/cc-pVTZ
 ------------------

 ------------
 H2O_H2O_2136
 ------------
 Symbolic Z-matrix:
 Charge =  0 Multiplicity = 1

                         Standard orientation:
 ---------------------------------------------------------------------
 Center     Atomic      Atomic             Coordinates (Angstroms)
 Number     Number       Type             X           Y           Z
 ---------------------------------------------------------------------
      1          8           0        0.037681   -1.918424    0.000000
      2          1           0       -0.762847   -2.488214    0.000000
      3          1           0        0.836293   -2.490896    0.000000
      4          8           0        0.037681    1.946644    0.000000
      5          1           0        0.263861    2.902860    0.000000
      6          1           0       -0.940206    1.850490    0.000000
 ---------------------------------------------------------------------

 SCF Done:  E(RHF) =  -152.105801238     A.U. after   10 cycles
 E2 =    -0.5263298360D+00 EUMP2 =    -0.15263213107358D+03
 CCSD(T)
 CCSD(T)= -0.15265935653D+03

 The electronic state is 1-A'.
 Alpha  occ. eigenvalues --  -20.54910 -20.54443  -1.32191  -1.31719  -0.69608
 Alpha  occ. eigenvalues --   -0.69116  -0.55602  -0.55008  -0.49295  -0.48823
 Alpha virt. eigenvalues --    0.13845   0.15845   0.20384   0.21484   0.53497
 Alpha virt. eigenvalues --    0.55457   0.57750   0.58252   0.63555   0.75459
 Alpha virt. eigenvalues --    0.79216   0.79841   0.80378   0.81079   0.83197

 Mulliken charges:
               1
     1  O   -0.496153
     2  H    0.245138
     3  H    0.251634
     4  O   -0.496453
     5  H    0.243492
     6  H    0.252342
 Sum of Mulliken charges =  -0.00000

 Dipole moment (field-independent basis, Debye):
    X=             -1.2695    Y=             -0.5152    Z=              0.0000  Tot=              1.3701
 Quadrupole moment (field-independent basis, Debye-Ang):
   XX=             -8.7168   YY=              2.2683   ZZ=            -14.7111
   XY=             -1.6822   XZ=              0.0000   YZ=              0.0000

 Normal termination of Gaussian 16 at Sat Aug 27 08:47:25 2022.
