 Gaussian 16, Revision A.03,
 Gaussian 16:  ES64L-G16RevA.03 25-Dec-2016

 ------------------
 #p CCSD(T)/cc-pVTZ
 ------------------

 ------------
 H2O_H2O_4166
 ------------
 Symbolic Z-matrix:
 Charge =  0 Multiplicity = 1

                         Standard orientation:
 ---------------------------------------------------------------------
 Center     Atomic      Atomic             Coordinates (Angstroms)
 Number     Number       Type             X           Y           Z
 ---------------------------------------------------------------------
      1          8           0        0.049502   -2.979778    0.000000
      2          1           0       -0.750877   -3.549778    0.000000
      3          1           0        0.848264   -3.552041    0.000000
      4          8           0        0.049502    3.036751    0.000000
      5          1           0       -0.043943    4.014899    0.000000
      6          1           0       -0.845473    2.631134    0.000000
 ---------------------------------------------------------------------

 SCF Done:  E(RHF) =  -152.107228883     A.U. after   10 cycles
 E2 =    -0.5259007840D+00 EUMP2 =    -0.15263312966690D+03
 CCSD(T)
 CCSD(T)= -0.15266035320D+03

 The electronic state is 1-A'.
 Alpha  occ. eigenvalues --  -20.55478 -20.55112  -1.32776  -1.32408  -0.70182
 Alpha  occ. eigenvalues --   -0.69808  -0.56215  -0.55846  -0.49886  -0.49520
 Alpha virt. eigenvalues --    0.14160   0.14568   0.20244   0.20644   0.54379
 Alpha virt. eigenvalues --    0.54771   0.57283   0.57651   0.67938   0.68415
 Alpha virt. eigenvalues --    0.78994   0.79354   0.80427   0.80815   0.82370

 Mulliken charges:
               1
     1  O   -0.507840
     2  H    0.252647
     3  H    0.255194
     4  O   -0.507573
     5  H    0.251597
     6  H    0.255975
 Sum of Mulliken charges =  -0.00000

 Dipole moment (field-independent basis, Debye):
    X=             -1.7000    Y=             -0.9971    Z=              0.0000  Tot=              1.9708
 Quadrupole moment (field-independent basis, Debye-Ang):
   XX=             -9.3455   YY=              7.4948   ZZ=            -14.7117
   XY=             -4.4564   XZ=              0.0000   YZ=              0.0000

 Normal termination of Gaussian 16 at Sat Aug 27 05:45:17 2022.
