 Gaussian 16, Revision A.03,
 Gaussian 16:  ES64L-G16RevA.03 25-Dec-2016

 ------------------
 #p CCSD(T)/cc-pVTZ
 ------------------

 ------------
 H2O_H2O_2452
 ------------
 Symbolic Z-matrix:
 Charge =  0 Multiplicity = 1

                         Standard orientation:
 ---------------------------------------------------------------------
 Center     Atomic      Atomic             Coordinates (Angstroms)
 Number     Number       Type             X           Y           Z
 ---------------------------------------------------------------------
      1          8           0        0.007455   -2.106070    0.000000
      2          1           0       -0.792290   -2.676958    0.000000
      3          1           0        0.806852   -2.677445    0.000000
      4          8           0        0.007455    2.107042    0.000000
      5          1           0        0.725842    2.777435    0.000000
      6          1           0       -0.859683    2.569188    0.000000
 ---------------------------------------------------------------------

 SCF Done:  E(RHF) =  -152.105412629     A.U. after   10 cycles
 E2 =    -0.5261962855D+00 EUMP2 =    -0.15263160891428D+03
 CCSD(T)
 CCSD(T)= -0.15265885876D+03

 The electronic state is 1-A'.
 Alpha  occ. eigenvalues --  -20.54666 -20.54653  -1.31953  -1.31938  -0.69369
 Alpha  occ. eigenvalues --   -0.69352  -0.55400  -0.55171  -0.49059  -0.49029
 Alpha virt. eigenvalues --    0.14262   0.15415   0.20632   0.21006   0.54602
 Alpha virt. eigenvalues --    0.55805   0.57859   0.58058   0.63748   0.73592
 Alpha virt. eigenvalues --    0.79604   0.80044   0.81087   0.81417   0.81802

 Mulliken charges:
               1
     1  O   -0.496557
     2  H    0.247765
     3  H    0.248799
     4  O   -0.496522
     5  H    0.247634
     6  H    0.248881
 Sum of Mulliken charges =   0.00000

 Dipole moment (field-independent basis, Debye):
    X=             -0.2528    Y=             -0.0175    Z=              0.0000  Tot=              0.2534
 Quadrupole moment (field-independent basis, Debye-Ang):
   XX=             -7.8642   YY=              4.6941   ZZ=            -14.7095
   XY=             -0.3127   XZ=              0.0000   YZ=              0.0000

 2831\MP4DQ=-152.6407034\MP4SDQ=-152.6437808\CCSD=-152.643185\CCSD(T)=-
 Normal termination of Gaussian 16 at Sat Aug 27 10:38:19 2022.
