 Gaussian 16, Revision A.03,
 Gaussian 16:  ES64L-G16RevA.03 25-Dec-2016

 ------------------
 #p CCSD(T)/cc-pVTZ
 ------------------

 ------------
 H2O_H2O_1695
 ------------
 Symbolic Z-matrix:
 Charge =  0 Multiplicity = 1

                         Standard orientation:
 ---------------------------------------------------------------------
 Center     Atomic      Atomic             Coordinates (Angstroms)
 Number     Number       Type             X           Y           Z
 ---------------------------------------------------------------------
      1          8           0        0.055286   -1.648612    0.000000
      2          1           0       -0.745886   -2.217495    0.000000
      3          1           0        0.853249   -2.221987    0.000000
      4          8           0        0.055286    1.732964    0.000000
      5          1           0       -0.286855    2.654074    0.000000
      6          1           0       -0.705080    1.110590    0.000000
 ---------------------------------------------------------------------

 SCF Done:  E(RHF) =  -152.108046176     A.U. after   10 cycles
 E2 =    -0.5267018312D+00 EUMP2 =    -0.15263474800708D+03
 CCSD(T)
 CCSD(T)= -0.15266189352D+03

 The electronic state is 1-A'.
 Alpha  occ. eigenvalues --  -20.55891 -20.53862  -1.33166  -1.31145  -0.70578
 Alpha  occ. eigenvalues --   -0.68525  -0.56583  -0.54588  -0.50283  -0.48273
 Alpha virt. eigenvalues --    0.13243   0.16655   0.19846   0.23651   0.53681
 Alpha virt. eigenvalues --    0.55020   0.56937   0.58302   0.66066   0.75751
 Alpha virt. eigenvalues --    0.77313   0.77493   0.79049   0.81193   0.84566

 Mulliken charges:
               1
     1  O   -0.494630
     2  H    0.244451
     3  H    0.256438
     4  O   -0.506674
     5  H    0.239858
     6  H    0.260556
 Sum of Mulliken charges =  -0.00000

 Dipole moment (field-independent basis, Debye):
    X=             -1.8361    Y=             -1.6004    Z=              0.0000  Tot=              2.4357
 Quadrupole moment (field-independent basis, Debye-Ang):
   XX=             -9.7292   YY=             -1.7953   ZZ=            -14.7194
   XY=             -2.9987   XZ=              0.0000   YZ=              0.0000

 Normal termination of Gaussian 16 at Sat Aug 27 06:15:58 2022.
