 Gaussian 16, Revision A.03,
 Gaussian 16:  ES64L-G16RevA.03 25-Dec-2016

 ------------------
 #p CCSD(T)/cc-pVTZ
 ------------------

 -----------
 H2O_H2O_168
 -----------
 Symbolic Z-matrix:
 Charge =  0 Multiplicity = 1

                         Standard orientation:
 ---------------------------------------------------------------------
 Center     Atomic      Atomic             Coordinates (Angstroms)
 Number     Number       Type             X           Y           Z
 ---------------------------------------------------------------------
      1          8           0        0.052947   -0.845367    0.000000
      2          1           0       -0.749560   -1.412366    0.000000
      3          1           0        0.849560   -1.420617    0.000000
      4          8           0        0.052947    0.915335    0.000000
      5          1           0       -0.163785    1.873737    0.000000
      6          1           0       -0.783366    0.399499    0.000000
 ---------------------------------------------------------------------

 SCF Done:  E(RHF) =  -151.982280507     A.U. after   11 cycles
 E2 =    -0.5444288104D+00 EUMP2 =    -0.15252670931739D+03
 CCSD(T)
 CCSD(T)= -0.15255238663D+03

 The electronic state is 1-A'.
 Alpha  occ. eigenvalues --  -20.54284 -20.50318  -1.37667  -1.26908  -0.74994
 Alpha  occ. eigenvalues --   -0.70530  -0.54601  -0.53118  -0.43835  -0.43523
 Alpha virt. eigenvalues --    0.13559   0.18991   0.19621   0.24848   0.51182
 Alpha virt. eigenvalues --    0.55729   0.60691   0.66179   0.73032   0.76587
 Alpha virt. eigenvalues --    0.80212   0.80834   0.84032   0.84495   0.88592

 Mulliken charges:
               1
     1  O   -0.349637
     2  H    0.168289
     3  H    0.211474
     4  O   -0.413212
     5  H    0.135712
     6  H    0.247374
 Sum of Mulliken charges =  -0.00000

 Dipole moment (field-independent basis, Debye):
    X=             -1.4258    Y=             -1.5898    Z=              0.0000  Tot=              2.1355
 Quadrupole moment (field-independent basis, Debye-Ang):
   XX=             -9.6795   YY=             -7.8783   ZZ=            -14.6206
   XY=             -1.1771   XZ=              0.0000   YZ=              0.0000

 Normal termination of Gaussian 16 at Fri Aug 26 13:34:15 2022.
