 Gaussian 16, Revision A.03,
 Gaussian 16:  ES64L-G16RevA.03 25-Dec-2016

 ------------------
 #p CCSD(T)/cc-pVTZ
 ------------------

 ------------
 H2O_H2O_1524
 ------------
 Symbolic Z-matrix:
 Charge =  0 Multiplicity = 1

                         Standard orientation:
 ---------------------------------------------------------------------
 Center     Atomic      Atomic             Coordinates (Angstroms)
 Number     Number       Type             X           Y           Z
 ---------------------------------------------------------------------
      1          8           0        0.057289   -1.539507    0.000000
      2          1           0       -0.744037   -2.108174    0.000000
      3          1           0        0.855097   -2.113099    0.000000
      4          8           0        0.057289    1.653382    0.000000
      5          1           0       -0.511378    2.454708    0.000000
      6          1           0       -0.516303    0.855572    0.000000
 ---------------------------------------------------------------------

 SCF Done:  E(RHF) =  -152.110120706     A.U. after   10 cycles
 E2 =    -0.5270624085D+00 EUMP2 =    -0.15263718311474D+03
 CCSD(T)
 CCSD(T)= -0.15266426086D+03

 The electronic state is 1-A'.
 Alpha  occ. eigenvalues --  -20.56681 -20.53376  -1.33970  -1.30711  -0.71361
 Alpha  occ. eigenvalues --   -0.68191  -0.57428  -0.54209  -0.51091  -0.47848
 Alpha virt. eigenvalues --    0.12865   0.17144   0.19531   0.25745   0.52043
 Alpha virt. eigenvalues --    0.55663   0.56667   0.58333   0.68342   0.75011
 Alpha virt. eigenvalues --    0.75793   0.76830   0.81402   0.81533   0.83975

 Mulliken charges:
               1
     1  O   -0.495921
     2  H    0.247661
     3  H    0.261051
     4  O   -0.519286
     5  H    0.239904
     6  H    0.266591
 Sum of Mulliken charges =  -0.00000

 Dipole moment (field-independent basis, Debye):
    X=             -1.8921    Y=             -2.2253    Z=              0.0000  Tot=              2.9209
 Quadrupole moment (field-independent basis, Debye-Ang):
   XX=             -9.8598   YY=             -3.8176   ZZ=            -14.7265
   XY=             -3.4593   XZ=              0.0000   YZ=              0.0000

 Normal termination of Gaussian 16 at Sat Aug 27 05:16:23 2022.
