 Gaussian 16, Revision A.03,
 Gaussian 16:  ES64L-G16RevA.03 25-Dec-2016

 ------------------
 #p CCSD(T)/cc-pVTZ
 ------------------

 -----------
 H2O_H2O_140
 -----------
 Symbolic Z-matrix:
 Charge =  0 Multiplicity = 1

                         Standard orientation:
 ---------------------------------------------------------------------
 Center     Atomic      Atomic             Coordinates (Angstroms)
 Number     Number       Type             X           Y           Z
 ---------------------------------------------------------------------
      1          8           0        0.047607   -0.842744    0.000000
      2          1           0       -0.754645   -1.410104    0.000000
      3          1           0        0.844479   -1.417636    0.000000
      4          8           0        0.047607    0.893062    0.000000
      5          1           0        0.021572    1.875318    0.000000
      6          1           0       -0.873117    0.549880    0.000000
 ---------------------------------------------------------------------

 SCF Done:  E(RHF) =  -151.981280548     A.U. after   11 cycles
 E2 =    -0.5444178820D+00 EUMP2 =    -0.15252569843030D+03
 CCSD(T)
 CCSD(T)= -0.15255142112D+03

 The electronic state is 1-A'.
 Alpha  occ. eigenvalues --  -20.53250 -20.51098  -1.36745  -1.27075  -0.73632
 Alpha  occ. eigenvalues --   -0.69692  -0.57387  -0.52585  -0.43864  -0.41278
 Alpha virt. eigenvalues --    0.13886   0.18945   0.19693   0.24140   0.52399
 Alpha virt. eigenvalues --    0.56612   0.59151   0.65440   0.73123   0.77013
 Alpha virt. eigenvalues --    0.81310   0.81619   0.82837   0.84067   0.88819

 Mulliken charges:
               1
     1  O   -0.362910
     2  H    0.168877
     3  H    0.205191
     4  O   -0.374173
     5  H    0.126012
     6  H    0.237004
 Sum of Mulliken charges =  -0.00000

 Dipole moment (field-independent basis, Debye):
    X=             -1.2818    Y=             -1.1218    Z=              0.0000  Tot=              1.7033
 Quadrupole moment (field-independent basis, Debye-Ang):
   XX=             -9.4311   YY=             -7.9069   ZZ=            -14.6502
   XY=             -0.8232   XZ=              0.0000   YZ=              0.0000

 Normal termination of Gaussian 16 at Fri Aug 26 13:14:07 2022.
