 Gaussian 16, Revision A.03,
 Gaussian 16:  ES64L-G16RevA.03 25-Dec-2016

 ------------------
 #p CCSD(T)/cc-pVTZ
 ------------------

 -----------
 H2O_H2O_760
 -----------
 Symbolic Z-matrix:
 Charge =  0 Multiplicity = 1

                         Standard orientation:
 ---------------------------------------------------------------------
 Center     Atomic      Atomic             Coordinates (Angstroms)
 Number     Number       Type             X           Y           Z
 ---------------------------------------------------------------------
      1          8           0        0.034798   -1.189748    0.000000
      2          1           0       -0.766194   -1.758887    0.000000
      3          1           0        0.832943   -1.762870    0.000000
      4          8           0        0.034798    1.213179    0.000000
      5          1           0        0.323798    2.152320    0.000000
      6          1           0       -0.947309    1.181988    0.000000
 ---------------------------------------------------------------------

 SCF Done:  E(RHF) =  -152.091520654     A.U. after   11 cycles
 E2 =    -0.5298525432D+00 EUMP2 =    -0.15262137319746D+03
 CCSD(T)
 CCSD(T)= -0.15264859444D+03

 The electronic state is 1-A'.
 Alpha  occ. eigenvalues --  -20.53630 -20.52873  -1.31565  -1.30017  -0.68862
 Alpha  occ. eigenvalues --   -0.67731  -0.57118  -0.50229  -0.48822  -0.46816
 Alpha virt. eigenvalues --    0.14266   0.17491   0.20363   0.22954   0.52595
 Alpha virt. eigenvalues --    0.58293   0.58358   0.61902   0.70607   0.76153
 Alpha virt. eigenvalues --    0.77336   0.80001   0.83682   0.86002   0.87253

 Mulliken charges:
               1
     1  O   -0.465215
     2  H    0.224234
     3  H    0.240309
     4  O   -0.447473
     5  H    0.208956
     6  H    0.239189
 Sum of Mulliken charges =  -0.00000

 Dipole moment (field-independent basis, Debye):
    X=             -1.0754    Y=             -0.4589    Z=              0.0000  Tot=              1.1692
 Quadrupole moment (field-independent basis, Debye-Ang):
   XX=             -8.7167   YY=             -3.5241   ZZ=            -14.7269
   XY=             -0.6806   XZ=              0.0000   YZ=              0.0000

 Normal termination of Gaussian 16 at Fri Aug 26 19:44:59 2022.
