 Gaussian 16, Revision A.03,
 Gaussian 16:  ES64L-G16RevA.03 25-Dec-2016

 ------------------
 #p CCSD(T)/cc-pVTZ
 ------------------

 ------------
 H2O_H2O_1981
 ------------
 Symbolic Z-matrix:
 Charge =  0 Multiplicity = 1

                         Standard orientation:
 ---------------------------------------------------------------------
 Center     Atomic      Atomic             Coordinates (Angstroms)
 Number     Number       Type             X           Y           Z
 ---------------------------------------------------------------------
      1          8           0        0.021861   -1.849277    0.000000
      2          1           0       -0.778290   -2.419597    0.000000
      3          1           0        0.820852   -2.421220    0.000000
      4          8           0        0.021861    1.857928    0.000000
      5          1           0        0.542852    2.691039    0.000000
      6          1           0       -0.935184    2.080573    0.000000
 ---------------------------------------------------------------------

 SCF Done:  E(RHF) =  -152.104852829     A.U. after   10 cycles
 E2 =    -0.5264723775D+00 EUMP2 =    -0.15263132520652D+03
 CCSD(T)
 CCSD(T)= -0.15265856827D+03

 The electronic state is 1-A'.
 Alpha  occ. eigenvalues --  -20.54545 -20.54392  -1.31826  -1.31666  -0.69247
 Alpha  occ. eigenvalues --   -0.69080  -0.55371  -0.54711  -0.48934  -0.48752
 Alpha virt. eigenvalues --    0.14102   0.15922   0.20550   0.21363   0.53567
 Alpha virt. eigenvalues --    0.56375   0.57952   0.58296   0.61963   0.75702
 Alpha virt. eigenvalues --    0.79234   0.79818   0.80749   0.80879   0.82987

 Mulliken charges:
               1
     1  O   -0.490539
     2  H    0.243297
     3  H    0.247478
     4  O   -0.490520
     5  H    0.242588
     6  H    0.247696
 Sum of Mulliken charges =  -0.00000

 Dipole moment (field-independent basis, Debye):
    X=             -0.7341    Y=             -0.1590    Z=              0.0000  Tot=              0.7511
 Quadrupole moment (field-independent basis, Debye-Ang):
   XX=             -8.1418   YY=              2.3740   ZZ=            -14.7096
   XY=             -0.7850   XZ=              0.0000   YZ=              0.0000

 Normal termination of Gaussian 16 at Sat Aug 27 07:54:34 2022.
