 Gaussian 16, Revision A.03,
 Gaussian 16:  ES64L-G16RevA.03 25-Dec-2016

 ------------------
 #p CCSD(T)/cc-pVTZ
 ------------------

 ------------
 H2O_H2O_1328
 ------------
 Symbolic Z-matrix:
 Charge =  0 Multiplicity = 1

                         Standard orientation:
 ---------------------------------------------------------------------
 Center     Atomic      Atomic             Coordinates (Angstroms)
 Number     Number       Type             X           Y           Z
 ---------------------------------------------------------------------
      1          8           0        0.011143   -1.507098    0.000000
      2          1           0       -0.788791   -2.077721    0.000000
      3          1           0        0.810351   -2.078738    0.000000
      4          8           0        0.011143    1.509278    0.000000
      5          1           0        0.684383    2.224997    0.000000
      6          1           0       -0.884230    1.914017    0.000000
 ---------------------------------------------------------------------

 SCF Done:  E(RHF) =  -152.101477381     A.U. after   10 cycles
 E2 =    -0.5273677126D+00 EUMP2 =    -0.15262884509374D+03
 CCSD(T)
 CCSD(T)= -0.15265613975D+03

 The electronic state is 1-A'.
 Alpha  occ. eigenvalues --  -20.53886 -20.53834  -1.31281  -1.31053  -0.68691
 Alpha  occ. eigenvalues --   -0.68513  -0.55622  -0.53006  -0.48479  -0.48011
 Alpha virt. eigenvalues --    0.14368   0.16702   0.20558   0.21862   0.51778
 Alpha virt. eigenvalues --    0.58321   0.58645   0.59795   0.65948   0.76335
 Alpha virt. eigenvalues --    0.77781   0.78092   0.79221   0.82674   0.86097

 Mulliken charges:
               1
     1  O   -0.473089
     2  H    0.234688
     3  H    0.238437
     4  O   -0.472263
     5  H    0.234465
     6  H    0.237761
 Sum of Mulliken charges =  -0.00000

 Dipole moment (field-independent basis, Debye):
    X=             -0.3648    Y=             -0.0411    Z=              0.0000  Tot=              0.3671
 Quadrupole moment (field-independent basis, Debye-Ang):
   XX=             -7.9736   YY=             -0.4014   ZZ=            -14.7105
   XY=             -0.2523   XZ=              0.0000   YZ=              0.0000

 Normal termination of Gaussian 16 at Sat Aug 27 03:57:08 2022.
