 Gaussian 16, Revision A.03,
 Gaussian 16:  ES64L-G16RevA.03 25-Dec-2016

 ------------------
 #p CCSD(T)/cc-pVTZ
 ------------------

 ------------
 H2O_H2O_2331
 ------------
 Symbolic Z-matrix:
 Charge =  0 Multiplicity = 1

                         Standard orientation:
 ---------------------------------------------------------------------
 Center     Atomic      Atomic             Coordinates (Angstroms)
 Number     Number       Type             X           Y           Z
 ---------------------------------------------------------------------
      1          8           0        0.021860   -2.035418    0.000000
      2          1           0       -0.778237   -2.605812    0.000000
      3          1           0        0.820904   -2.607287    0.000000
      4          8           0        0.021860    2.044073    0.000000
      5          1           0        0.542774    2.877232    0.000000
      6          1           0       -0.935205    2.266630    0.000000
 ---------------------------------------------------------------------

 SCF Done:  E(RHF) =  -152.105451241     A.U. after   10 cycles
 E2 =    -0.5262415001D+00 EUMP2 =    -0.15263169274075D+03
 CCSD(T)
 CCSD(T)= -0.15265893683D+03

 The electronic state is 1-A'.
 Alpha  occ. eigenvalues --  -20.54710 -20.54585  -1.31995  -1.31868  -0.69411
 Alpha  occ. eigenvalues --   -0.69278  -0.55427  -0.55112  -0.49096  -0.48965
 Alpha virt. eigenvalues --    0.14135   0.15561   0.20566   0.21126   0.54255
 Alpha virt. eigenvalues --    0.55821   0.57850   0.58106   0.63291   0.74239
 Alpha virt. eigenvalues --    0.79516   0.80153   0.80742   0.81218   0.82204

 Mulliken charges:
               1
     1  O   -0.496239
     2  H    0.246521
     3  H    0.249817
     4  O   -0.496014
     5  H    0.245907
     6  H    0.250008
 Sum of Mulliken charges =   0.00000

 Dipole moment (field-independent basis, Debye):
    X=             -0.7397    Y=             -0.1563    Z=              0.0000  Tot=              0.7560
 Quadrupole moment (field-independent basis, Debye-Ang):
   XX=             -8.1292   YY=              3.8599   ZZ=            -14.7098
   XY=             -0.9206   XZ=              0.0000   YZ=              0.0000

 Normal termination of Gaussian 16 at Sat Aug 27 09:55:03 2022.
