 Gaussian 16, Revision A.03,
 Gaussian 16:  ES64L-G16RevA.03 25-Dec-2016

 ------------------
 #p CCSD(T)/cc-pVTZ
 ------------------

 ------------
 H2O_H2O_1884
 ------------
 Symbolic Z-matrix:
 Charge =  0 Multiplicity = 1

                         Standard orientation:
 ---------------------------------------------------------------------
 Center     Atomic      Atomic             Coordinates (Angstroms)
 Number     Number       Type             X           Y           Z
 ---------------------------------------------------------------------
      1          8           0        0.031745   -1.790388    0.000000
      2          1           0       -0.768692   -2.360306    0.000000
      3          1           0        0.830448   -2.362733    0.000000
      4          8           0        0.031745    1.809543    0.000000
      5          1           0        0.380654    2.728111    0.000000
      6          1           0       -0.950330    1.841694    0.000000
 ---------------------------------------------------------------------

 SCF Done:  E(RHF) =  -152.105037697     A.U. after   10 cycles
 E2 =    -0.5265471680D+00 EUMP2 =    -0.15263158486497D+03
 CCSD(T)
 CCSD(T)= -0.15265881779D+03

 The electronic state is 1-A'.
 Alpha  occ. eigenvalues --  -20.54666 -20.54304  -1.31945  -1.31573  -0.69367
 Alpha  occ. eigenvalues --   -0.68978  -0.55466  -0.54659  -0.49052  -0.48666
 Alpha virt. eigenvalues --    0.13976   0.16072   0.20449   0.21580   0.53191
 Alpha virt. eigenvalues --    0.56018   0.57916   0.58397   0.62798   0.76312
 Alpha virt. eigenvalues --    0.78992   0.79273   0.80609   0.80926   0.83689

 Mulliken charges:
               1
     1  O   -0.490078
     2  H    0.242094
     3  H    0.248635
     4  O   -0.490366
     5  H    0.240665
     6  H    0.249049
 Sum of Mulliken charges =  -0.00000

 Dipole moment (field-independent basis, Debye):
    X=             -1.0626    Y=             -0.3539    Z=              0.0000  Tot=              1.1200
 Quadrupole moment (field-independent basis, Debye-Ang):
   XX=             -8.4723   YY=              1.6083   ZZ=            -14.7105
   XY=             -1.1871   XZ=              0.0000   YZ=              0.0000

 Normal termination of Gaussian 16 at Sat Aug 27 07:21:14 2022.
