 Gaussian 16, Revision A.03,
 Gaussian 16:  ES64L-G16RevA.03 25-Dec-2016

 ------------------
 #p CCSD(T)/cc-pVTZ
 ------------------

 -----------
 H2O_H2O_747
 -----------
 Symbolic Z-matrix:
 Charge =  0 Multiplicity = 1

                         Standard orientation:
 ---------------------------------------------------------------------
 Center     Atomic      Atomic             Coordinates (Angstroms)
 Number     Number       Type             X           Y           Z
 ---------------------------------------------------------------------
      1          8           0        0.056828   -1.135490    0.000000
      2          1           0       -0.745085   -1.703328    0.000000
      3          1           0        0.854043   -1.709907    0.000000
      4          8           0        0.056828    1.234341    0.000000
      5          1           0       -0.401481    2.103512    0.000000
      6          1           0       -0.616731    0.518922    0.000000
 ---------------------------------------------------------------------

 SCF Done:  E(RHF) =  -152.094693261     A.U. after   11 cycles
 E2 =    -0.5314042013D+00 EUMP2 =    -0.15262609746249D+03
 CCSD(T)
 CCSD(T)= -0.15265293069D+03

 The electronic state is 1-A'.
 Alpha  occ. eigenvalues --  -20.56567 -20.51502  -1.34714  -1.29025  -0.72054
 Alpha  occ. eigenvalues --   -0.68672  -0.55510  -0.52649  -0.51629  -0.46057
 Alpha virt. eigenvalues --    0.13061   0.18396   0.19363   0.26346   0.50560
 Alpha virt. eigenvalues --    0.55938   0.60825   0.62407   0.71623   0.73675
 Alpha virt. eigenvalues --    0.76599   0.82539   0.83485   0.83655   0.86948

 Mulliken charges:
               1
     1  O   -0.447289
     2  H    0.227823
     3  H    0.249347
     4  O   -0.506514
     5  H    0.213178
     6  H    0.263455
 Sum of Mulliken charges =  -0.00000

 Dipole moment (field-independent basis, Debye):
    X=             -1.7519    Y=             -2.1391    Z=              0.0000  Tot=              2.7649
 Quadrupole moment (field-independent basis, Debye-Ang):
   XX=             -9.8312   YY=             -5.4242   ZZ=            -14.7076
   XY=             -2.4002   XZ=              0.0000   YZ=              0.0000

 Normal termination of Gaussian 16 at Fri Aug 26 19:38:21 2022.
