 Gaussian 16, Revision A.03,
 Gaussian 16:  ES64L-G16RevA.03 25-Dec-2016

 ------------------
 #p CCSD(T)/cc-pVTZ
 ------------------

 ------------
 H2O_H2O_1458
 ------------
 Symbolic Z-matrix:
 Charge =  0 Multiplicity = 1

                         Standard orientation:
 ---------------------------------------------------------------------
 Center     Atomic      Atomic             Coordinates (Angstroms)
 Number     Number       Type             X           Y           Z
 ---------------------------------------------------------------------
      1          8           0        0.028568   -1.566498    0.000000
      2          1           0       -0.771894   -2.136380    0.000000
      3          1           0        0.827246   -2.138878    0.000000
      4          8           0        0.028568    1.581712    0.000000
      5          1           0        0.436849    2.475475    0.000000
      6          1           0       -0.949297    1.678068    0.000000
 ---------------------------------------------------------------------

 SCF Done:  E(RHF) =  -152.103253345     A.U. after   10 cycles
 E2 =    -0.5271124515D+00 EUMP2 =    -0.15263036579639D+03
 CCSD(T)
 CCSD(T)= -0.15265762397D+03

 The electronic state is 1-A'.
 Alpha  occ. eigenvalues --  -20.54308 -20.53953  -1.31616  -1.31212  -0.69042
 Alpha  occ. eigenvalues --   -0.68633  -0.55563  -0.53702  -0.48758  -0.48251
 Alpha virt. eigenvalues --    0.14150   0.16546   0.20462   0.21943   0.52674
 Alpha virt. eigenvalues --    0.57730   0.58145   0.58782   0.64792   0.76887
 Alpha virt. eigenvalues --    0.78017   0.78815   0.79053   0.82192   0.85789

 Mulliken charges:
               1
     1  O   -0.479692
     2  H    0.236038
     3  H    0.244322
     4  O   -0.477820
     5  H    0.233804
     6  H    0.243349
 Sum of Mulliken charges =  -0.00000

 Dipole moment (field-independent basis, Debye):
    X=             -0.9402    Y=             -0.2865    Z=              0.0000  Tot=              0.9829
 Quadrupole moment (field-independent basis, Debye-Ang):
   XX=             -8.3826   YY=             -0.0907   ZZ=            -14.7110
   XY=             -0.8215   XZ=              0.0000   YZ=              0.0000

 Normal termination of Gaussian 16 at Sat Aug 27 04:52:40 2022.
