 Gaussian 16, Revision A.03,
 Gaussian 16:  ES64L-G16RevA.03 25-Dec-2016

 ------------------
 #p CCSD(T)/cc-pVTZ
 ------------------

 -----------
 H2O_H2O_482
 -----------
 Symbolic Z-matrix:
 Charge =  0 Multiplicity = 1

                         Standard orientation:
 ---------------------------------------------------------------------
 Center     Atomic      Atomic             Coordinates (Angstroms)
 Number     Number       Type             X           Y           Z
 ---------------------------------------------------------------------
      1          8           0        0.025273   -1.049878    0.000000
      2          1           0       -0.775473   -1.619362    0.000000
      3          1           0        0.823666   -1.622656    0.000000
      4          8           0        0.025273    1.061554    0.000000
      5          1           0        0.491563    1.926469    0.000000
      6          1           0       -0.944118    1.222143    0.000000
 ---------------------------------------------------------------------

 SCF Done:  E(RHF) =  -152.068207482     A.U. after   11 cycles
 E2 =    -0.5331282895D+00 EUMP2 =    -0.15260133577193D+03
 CCSD(T)
 CCSD(T)= -0.15262834489D+03

 The electronic state is 1-A'.
 Alpha  occ. eigenvalues --  -20.52540 -20.52167  -1.31762  -1.29032  -0.68713
 Alpha  occ. eigenvalues --   -0.67063  -0.59301  -0.49015  -0.46166  -0.45595
 Alpha virt. eigenvalues --    0.14509   0.18023   0.20420   0.22980   0.51668
 Alpha virt. eigenvalues --    0.58558   0.58765   0.64507   0.70302   0.77110
 Alpha virt. eigenvalues --    0.78167   0.82078   0.84037   0.86395   0.87538

 Mulliken charges:
               1
     1  O   -0.447075
     2  H    0.215136
     3  H    0.229741
     4  O   -0.425387
     5  H    0.194398
     6  H    0.233188
 Sum of Mulliken charges =  -0.00000

 Dipole moment (field-independent basis, Debye):
    X=             -0.7491    Y=             -0.2380    Z=              0.0000  Tot=              0.7860
 Quadrupole moment (field-independent basis, Debye-Ang):
   XX=             -8.4621   YY=             -5.0380   ZZ=            -14.7393
   XY=             -0.3160   XZ=              0.0000   YZ=              0.0000

 Normal termination of Gaussian 16 at Fri Aug 26 16:52:16 2022.
