 Gaussian 16, Revision A.03,
 Gaussian 16:  ES64L-G16RevA.03 25-Dec-2016

 ------------------
 #p CCSD(T)/cc-pVTZ
 ------------------

 ------------
 H2O_H2O_3039
 ------------
 Symbolic Z-matrix:
 Charge =  0 Multiplicity = 1

                         Standard orientation:
 ---------------------------------------------------------------------
 Center     Atomic      Atomic             Coordinates (Angstroms)
 Number     Number       Type             X           Y           Z
 ---------------------------------------------------------------------
      1          8           0        0.045347   -2.388212    0.000000
      2          1           0       -0.755147   -2.958050    0.000000
      3          1           0        0.843993   -2.960637    0.000000
      4          8           0        0.045347    2.432755    0.000000
      5          1           0        0.080575    3.414725    0.000000
      6          1           0       -0.894974    2.147617    0.000000
 ---------------------------------------------------------------------

 SCF Done:  E(RHF) =  -152.106803095     A.U. after   10 cycles
 E2 =    -0.5259933883D+00 EUMP2 =    -0.15263279648284D+03
 CCSD(T)
 CCSD(T)= -0.15266002445D+03

 The electronic state is 1-A'.
 Alpha  occ. eigenvalues --  -20.55285 -20.54828  -1.32579  -1.32119  -0.69988
 Alpha  occ. eigenvalues --   -0.69514  -0.55996  -0.55536  -0.49686  -0.49229
 Alpha virt. eigenvalues --    0.13992   0.15075   0.20307   0.20984   0.54434
 Alpha virt. eigenvalues --    0.55031   0.57446   0.57867   0.66961   0.70390
 Alpha virt. eigenvalues --    0.79191   0.79643   0.80515   0.81174   0.82878

 Mulliken charges:
               1
     1  O   -0.505155
     2  H    0.250422
     3  H    0.254832
     4  O   -0.504722
     5  H    0.248890
     6  H    0.255733
 Sum of Mulliken charges =  -0.00000

 Dipole moment (field-independent basis, Debye):
    X=             -1.5481    Y=             -0.7899    Z=              0.0000  Tot=              1.7380
 Quadrupole moment (field-independent basis, Debye-Ang):
   XX=             -9.0998   YY=              4.6977   ZZ=            -14.7114
   XY=             -2.9851   XZ=              0.0000   YZ=              0.0000

 Normal termination of Gaussian 16 at Fri Aug 26 18:46:15 2022.
