 Gaussian 16, Revision A.03,
 Gaussian 16:  ES64L-G16RevA.03 25-Dec-2016

 ------------------
 #p CCSD(T)/cc-pVTZ
 ------------------

 ------------
 H2O_H2O_4663
 ------------
 Symbolic Z-matrix:
 Charge =  0 Multiplicity = 1

                         Standard orientation:
 ---------------------------------------------------------------------
 Center     Atomic      Atomic             Coordinates (Angstroms)
 Number     Number       Type             X           Y           Z
 ---------------------------------------------------------------------
      1          8           0        0.042962   -3.255558    0.000000
      2          1           0       -0.757253   -3.825787    0.000000
      3          1           0        0.841888   -3.827592    0.000000
      4          8           0        0.042962    3.294373    0.000000
      5          1           0        0.141859    4.271985    0.000000
      6          1           0       -0.913885    3.070877    0.000000
 ---------------------------------------------------------------------

 SCF Done:  E(RHF) =  -152.107154368     A.U. after   10 cycles
 E2 =    -0.5258993204D+00 EUMP2 =    -0.15263305368809D+03
 CCSD(T)
 CCSD(T)= -0.15266027934D+03

 The electronic state is 1-A'.
 Alpha  occ. eigenvalues --  -20.55414 -20.55205  -1.32711  -1.32502  -0.70118
 Alpha  occ. eigenvalues --   -0.69904  -0.56147  -0.55937  -0.49821  -0.49612
 Alpha virt. eigenvalues --    0.14241   0.14452   0.20303   0.20523   0.54447
 Alpha virt. eigenvalues --    0.54670   0.57343   0.57552   0.68060   0.68277
 Alpha virt. eigenvalues --    0.79059   0.79265   0.80495   0.80720   0.82420

 Mulliken charges:
               1
     1  O   -0.507380
     2  H    0.252818
     3  H    0.254563
     4  O   -0.507237
     5  H    0.252205
     6  H    0.255032
 Sum of Mulliken charges =  -0.00000

 Dipole moment (field-independent basis, Debye):
    X=             -1.4771    Y=             -0.6770    Z=              0.0000  Tot=              1.6249
 Quadrupole moment (field-independent basis, Debye-Ang):
   XX=             -8.9644   YY=             10.8235   ZZ=            -14.7114
   XY=             -4.0126   XZ=              0.0000   YZ=              0.0000

 Normal termination of Gaussian 16 at Sat Aug 27 08:37:24 2022.
