 Gaussian 16, Revision A.03,
 Gaussian 16:  ES64L-G16RevA.03 25-Dec-2016

 ------------------
 #p CCSD(T)/cc-pVTZ
 ------------------

 -----------
 H2O_H2O_684
 -----------
 Symbolic Z-matrix:
 Charge =  0 Multiplicity = 1

                         Standard orientation:
 ---------------------------------------------------------------------
 Center     Atomic      Atomic             Coordinates (Angstroms)
 Number     Number       Type             X           Y           Z
 ---------------------------------------------------------------------
      1          8           0        0.031753   -1.152212    0.000000
      2          1           0       -0.769159   -1.721463    0.000000
      3          1           0        0.829979   -1.725223    0.000000
      4          8           0        0.031753    1.171314    0.000000
      5          1           0        0.381428    2.089591    0.000000
      6          1           0       -0.950295    1.204283    0.000000
 ---------------------------------------------------------------------

 SCF Done:  E(RHF) =  -152.087067370     A.U. after   11 cycles
 E2 =    -0.5305052503D+00 EUMP2 =    -0.15261757262056D+03
 CCSD(T)
 CCSD(T)= -0.15264476890D+03

 The electronic state is 1-A'.
 Alpha  occ. eigenvalues --  -20.53327 -20.52709  -1.31514  -1.29794  -0.68746
 Alpha  occ. eigenvalues --   -0.67574  -0.57585  -0.49278  -0.48791  -0.46526
 Alpha virt. eigenvalues --    0.14349   0.17614   0.20400   0.22933   0.52272
 Alpha virt. eigenvalues --    0.58405   0.58476   0.62675   0.70652   0.76327
 Alpha virt. eigenvalues --    0.77470   0.80661   0.83813   0.86148   0.87313

 Mulliken charges:
               1
     1  O   -0.461422
     2  H    0.222116
     3  H    0.237801
     4  O   -0.441651
     5  H    0.205545
     6  H    0.237610
 Sum of Mulliken charges =  -0.00000

 Dipole moment (field-independent basis, Debye):
    X=             -0.9713    Y=             -0.3763    Z=              0.0000  Tot=              1.0417
 Quadrupole moment (field-independent basis, Debye-Ang):
   XX=             -8.6151   YY=             -3.8828   ZZ=            -14.7300
   XY=             -0.5445   XZ=              0.0000   YZ=              0.0000

 Normal termination of Gaussian 16 at Fri Aug 26 19:03:41 2022.
