 Gaussian 16, Revision A.03,
 Gaussian 16:  ES64L-G16RevA.03 25-Dec-2016

 ------------------
 #p CCSD(T)/cc-pVTZ
 ------------------

 ------------
 H2O_H2O_1926
 ------------
 Symbolic Z-matrix:
 Charge =  0 Multiplicity = 1

                         Standard orientation:
 ---------------------------------------------------------------------
 Center     Atomic      Atomic             Coordinates (Angstroms)
 Number     Number       Type             X           Y           Z
 ---------------------------------------------------------------------
      1          8           0        0.003735   -1.827252    0.000000
      2          1           0       -0.795936   -2.398243    0.000000
      3          1           0        0.803206   -2.398524    0.000000
      4          8           0        0.003735    1.827495    0.000000
      5          1           0        0.764351    2.449564    0.000000
      6          1           0       -0.831387    2.345256    0.000000
 ---------------------------------------------------------------------

 SCF Done:  E(RHF) =  -152.104411216     A.U. after   10 cycles
 E2 =    -0.5265262102D+00 EUMP2 =    -0.15263093742613D+03
 CCSD(T)
 CCSD(T)= -0.15265819045D+03

 The electronic state is 1-A'.
 Alpha  occ. eigenvalues --  -20.54379 -20.54375  -1.31675  -1.31637  -0.69096
 Alpha  occ. eigenvalues --   -0.69061  -0.55308  -0.54544  -0.48805  -0.48694
 Alpha virt. eigenvalues --    0.14221   0.15947   0.20622   0.21317   0.53747
 Alpha virt. eigenvalues --    0.57160   0.57964   0.58333   0.60967   0.75657
 Alpha virt. eigenvalues --    0.79236   0.80014   0.80549   0.80909   0.83167

 Mulliken charges:
               1
     1  O   -0.488167
     2  H    0.243719
     3  H    0.244456
     4  O   -0.488166
     5  H    0.243654
     6  H    0.244504
 Sum of Mulliken charges =  -0.00000

 Dipole moment (field-independent basis, Debye):
    X=             -0.1253    Y=             -0.0045    Z=              0.0000  Tot=              0.1254
 Quadrupole moment (field-independent basis, Debye-Ang):
   XX=             -7.8588   YY=              2.4104   ZZ=            -14.7090
   XY=             -0.1212   XZ=              0.0000   YZ=              0.0000

 Normal termination of Gaussian 16 at Sat Aug 27 07:35:19 2022.
