 Gaussian 16, Revision A.03,
 Gaussian 16:  ES64L-G16RevA.03 25-Dec-2016

 ------------------
 #p CCSD(T)/cc-pVTZ
 ------------------

 ------------
 H2O_H2O_2427
 ------------
 Symbolic Z-matrix:
 Charge =  0 Multiplicity = 1

                         Standard orientation:
 ---------------------------------------------------------------------
 Center     Atomic      Atomic             Coordinates (Angstroms)
 Number     Number       Type             X           Y           Z
 ---------------------------------------------------------------------
      1          8           0        0.007455   -2.092774    0.000000
      2          1           0       -0.792291   -2.663661    0.000000
      3          1           0        0.806851   -2.664151    0.000000
      4          8           0        0.007455    2.093746    0.000000
      5          1           0        0.725843    2.764137    0.000000
      6          1           0       -0.859682    2.555893    0.000000
 ---------------------------------------------------------------------

 SCF Done:  E(RHF) =  -152.105379231     A.U. after   10 cycles
 E2 =    -0.5262066486D+00 EUMP2 =    -0.15263158587927D+03
 CCSD(T)
 CCSD(T)= -0.15265883569D+03

 The electronic state is 1-A'.
 Alpha  occ. eigenvalues --  -20.54655 -20.54642  -1.31942  -1.31927  -0.69358
 Alpha  occ. eigenvalues --   -0.69341  -0.55393  -0.55150  -0.49049  -0.49016
 Alpha virt. eigenvalues --    0.14255   0.15438   0.20633   0.21018   0.54578
 Alpha virt. eigenvalues --    0.55848   0.57864   0.58070   0.63570   0.73734
 Alpha virt. eigenvalues --    0.79599   0.80071   0.81065   0.81433   0.81780

 Mulliken charges:
               1
     1  O   -0.496293
     2  H    0.247625
     3  H    0.248676
     4  O   -0.496258
     5  H    0.247492
     6  H    0.248758
 Sum of Mulliken charges =  -0.00000

 Dipole moment (field-independent basis, Debye):
    X=             -0.2527    Y=             -0.0175    Z=              0.0000  Tot=              0.2533
 Quadrupole moment (field-independent basis, Debye-Ang):
   XX=             -7.8649   YY=              4.5856   ZZ=            -14.7094
   XY=             -0.3094   XZ=              0.0000   YZ=              0.0000

 Normal termination of Gaussian 16 at Sat Aug 27 10:30:06 2022.
