 Gaussian 16, Revision A.03,
 Gaussian 16:  ES64L-G16RevA.03 25-Dec-2016

 ------------------
 #p CCSD(T)/cc-pVTZ
 ------------------

 ------------
 H2O_H2O_2102
 ------------
 Symbolic Z-matrix:
 Charge =  0 Multiplicity = 1

                         Standard orientation:
 ---------------------------------------------------------------------
 Center     Atomic      Atomic             Coordinates (Angstroms)
 Number     Number       Type             X           Y           Z
 ---------------------------------------------------------------------
      1          8           0        0.007455   -1.919927    0.000000
      2          1           0       -0.792307   -2.490792    0.000000
      3          1           0        0.806835   -2.491326    0.000000
      4          8           0        0.007455    1.920900    0.000000
      5          1           0        0.725862    2.591270    0.000000
      6          1           0       -0.859670    2.383069    0.000000
 ---------------------------------------------------------------------

 SCF Done:  E(RHF) =  -152.104847165     A.U. after   10 cycles
 E2 =    -0.5263865788D+00 EUMP2 =    -0.15263123374424D+03
 CCSD(T)
 CCSD(T)= -0.15265848338D+03

 The electronic state is 1-A'.
 Alpha  occ. eigenvalues --  -20.54495 -20.54479  -1.31782  -1.31754  -0.69201
 Alpha  occ. eigenvalues --   -0.69174  -0.55326  -0.54807  -0.48900  -0.48827
 Alpha virt. eigenvalues --    0.14202   0.15762   0.20626   0.21203   0.54111
 Alpha virt. eigenvalues --    0.56562   0.57925   0.58235   0.61548   0.75209
 Alpha virt. eigenvalues --    0.79429   0.80484   0.80542   0.80982   0.82423

 Mulliken charges:
               1
     1  O   -0.491747
     2  H    0.245232
     3  H    0.246535
     4  O   -0.491727
     5  H    0.245080
     6  H    0.246627
 Sum of Mulliken charges =  -0.00000

 Dipole moment (field-independent basis, Debye):
    X=             -0.2512    Y=             -0.0178    Z=              0.0000  Tot=              0.2518
 Quadrupole moment (field-independent basis, Debye-Ang):
   XX=             -7.8763   YY=              3.1653   ZZ=            -14.7092
   XY=             -0.2665   XZ=              0.0000   YZ=              0.0000

 Normal termination of Gaussian 16 at Sat Aug 27 08:36:05 2022.
