 Gaussian 16, Revision A.03,
 Gaussian 16:  ES64L-G16RevA.03 25-Dec-2016

 ------------------
 #p CCSD(T)/cc-pVTZ
 ------------------

 -----------
 H2O_H2O_436
 -----------
 Symbolic Z-matrix:
 Charge =  0 Multiplicity = 1

                         Standard orientation:
 ---------------------------------------------------------------------
 Center     Atomic      Atomic             Coordinates (Angstroms)
 Number     Number       Type             X           Y           Z
 ---------------------------------------------------------------------
      1          8           0        0.037702   -1.014360    0.000000
      2          1           0       -0.763665   -1.582969    0.000000
      3          1           0        0.835469   -1.588009    0.000000
      4          8           0        0.037702    1.042469    0.000000
      5          1           0        0.265292    1.998350    0.000000
      6          1           0       -0.940326    0.947756    0.000000
 ---------------------------------------------------------------------

 SCF Done:  E(RHF) =  -152.064360132     A.U. after   11 cycles
 E2 =    -0.5340643560D+00 EUMP2 =    -0.15259842448846D+03
 CCSD(T)
 CCSD(T)= -0.15262533470D+03

 The electronic state is 1-A'.
 Alpha  occ. eigenvalues --  -20.53024 -20.52055  -1.32471  -1.28874  -0.69513
 Alpha  occ. eigenvalues --   -0.67508  -0.58698  -0.49598  -0.46459  -0.45511
 Alpha virt. eigenvalues --    0.14292   0.18050   0.20210   0.23415   0.53101
 Alpha virt. eigenvalues --    0.57570   0.58396   0.63542   0.71129   0.76623
 Alpha virt. eigenvalues --    0.79162   0.81766   0.83550   0.85712   0.88063

 Mulliken charges:
               1
     1  O   -0.444380
     2  H    0.211725
     3  H    0.230877
     4  O   -0.414850
     5  H    0.179942
     6  H    0.236685
 Sum of Mulliken charges =  -0.00000

 Dipole moment (field-independent basis, Debye):
    X=             -1.1029    Y=             -0.5722    Z=              0.0000  Tot=              1.2425
 Quadrupole moment (field-independent basis, Debye-Ang):
   XX=             -8.9097   YY=             -5.4266   ZZ=            -14.7278
   XY=             -0.6089   XZ=              0.0000   YZ=              0.0000

 Normal termination of Gaussian 16 at Fri Aug 26 16:26:47 2022.
