 Gaussian 16, Revision A.03,
 Gaussian 16:  ES64L-G16RevA.03 25-Dec-2016

 ------------------
 #p CCSD(T)/cc-pVTZ
 ------------------

 ------------
 H2O_H2O_2594
 ------------
 Symbolic Z-matrix:
 Charge =  0 Multiplicity = 1

                         Standard orientation:
 ---------------------------------------------------------------------
 Center     Atomic      Atomic             Coordinates (Angstroms)
 Number     Number       Type             X           Y           Z
 ---------------------------------------------------------------------
      1          8           0        0.054165   -2.131108    0.000000
      2          1           0       -0.746629   -2.700523    0.000000
      3          1           0        0.852509   -2.703954    0.000000
      4          8           0        0.054165    2.208385    0.000000
      5          1           0       -0.227625    3.149714    0.000000
      6          1           0       -0.744900    1.636544    0.000000
 ---------------------------------------------------------------------

 SCF Done:  E(RHF) =  -152.107527213     A.U. after   10 cycles
 E2 =    -0.5260576339D+00 EUMP2 =    -0.15263358484737D+03
 CCSD(T)
 CCSD(T)= -0.15266078318D+03

 The electronic state is 1-A'.
 Alpha  occ. eigenvalues --  -20.55626 -20.54582  -1.32912  -1.31873  -0.70321
 Alpha  occ. eigenvalues --   -0.69254  -0.56351  -0.55313  -0.50025  -0.48992
 Alpha virt. eigenvalues --    0.13366   0.15604   0.20050   0.21700   0.54046
 Alpha virt. eigenvalues --    0.54729   0.57198   0.58160   0.66115   0.72722
 Alpha virt. eigenvalues --    0.78843   0.79734   0.79886   0.81662   0.82500

 Mulliken charges:
               1
     1  O   -0.506396
     2  H    0.250364
     3  H    0.257091
     4  O   -0.507994
     5  H    0.247490
     6  H    0.259445
 Sum of Mulliken charges =  -0.00000

 Dipole moment (field-independent basis, Debye):
    X=             -1.8402    Y=             -1.3937    Z=              0.0000  Tot=              2.3084
 Quadrupole moment (field-independent basis, Debye-Ang):
   XX=             -9.6483   YY=              1.1706   ZZ=            -14.7139
   XY=             -3.6834   XZ=              0.0000   YZ=              0.0000

 Normal termination of Gaussian 16 at Fri Aug 26 14:10:20 2022.
