 Gaussian 16, Revision A.03,
 Gaussian 16:  ES64L-G16RevA.03 25-Dec-2016

 ------------------
 #p CCSD(T)/cc-pVTZ
 ------------------

 -----------
 H2O_H2O_823
 -----------
 Symbolic Z-matrix:
 Charge =  0 Multiplicity = 1

                         Standard orientation:
 ---------------------------------------------------------------------
 Center     Atomic      Atomic             Coordinates (Angstroms)
 Number     Number       Type             X           Y           Z
 ---------------------------------------------------------------------
      1          8           0        0.057204   -1.171334    0.000000
      2          1           0       -0.744649   -1.739258    0.000000
      3          1           0        0.854481   -1.745665    0.000000
      4          8           0        0.057204    1.277632    0.000000
      5          1           0       -0.457060    2.114912    0.000000
      6          1           0       -0.568042    0.519625    0.000000
 ---------------------------------------------------------------------

 SCF Done:  E(RHF) =  -152.099185858     A.U. after   11 cycles
 E2 =    -0.5307706396D+00 EUMP2 =    -0.15262995649793D+03
 CCSD(T)
 CCSD(T)= -0.15265679366D+03

 The electronic state is 1-A'.
 Alpha  occ. eigenvalues --  -20.56925 -20.51550  -1.34890  -1.29104  -0.72204
 Alpha  occ. eigenvalues --   -0.68566  -0.56146  -0.52714  -0.51837  -0.46158
 Alpha virt. eigenvalues --    0.12930   0.18366   0.19280   0.26851   0.50343
 Alpha virt. eigenvalues --    0.55808   0.60596   0.62064   0.71395   0.73463
 Alpha virt. eigenvalues --    0.75672   0.82354   0.82579   0.83533   0.86698

 Mulliken charges:
               1
     1  O   -0.454820
     2  H    0.232776
     3  H    0.252860
     4  O   -0.517647
     5  H    0.218885
     6  H    0.267947
 Sum of Mulliken charges =  -0.00000

 Dipole moment (field-independent basis, Debye):
    X=             -1.7828    Y=             -2.3030    Z=              0.0000  Tot=              2.9124
 Quadrupole moment (field-independent basis, Debye-Ang):
   XX=             -9.8470   YY=             -5.4402   ZZ=            -14.7108
   XY=             -2.6239   XZ=              0.0000   YZ=              0.0000

 Normal termination of Gaussian 16 at Fri Aug 26 20:20:02 2022.
