 Gaussian 16, Revision A.03,
 Gaussian 16:  ES64L-G16RevA.03 25-Dec-2016

 ------------------
 #p CCSD(T)/cc-pVTZ
 ------------------

 ------------
 H2O_H2O_1190
 ------------
 Symbolic Z-matrix:
 Charge =  0 Multiplicity = 1

                         Standard orientation:
 ---------------------------------------------------------------------
 Center     Atomic      Atomic             Coordinates (Angstroms)
 Number     Number       Type             X           Y           Z
 ---------------------------------------------------------------------
      1          8           0        0.047560   -1.401081    0.000000
      2          1           0       -0.753644   -1.969919    0.000000
      3          1           0        0.845491   -1.974502    0.000000
      4          8           0        0.047560    1.451574    0.000000
      5          1           0        0.019714    2.433782    0.000000
      6          1           0       -0.872529    1.106695    0.000000
 ---------------------------------------------------------------------

 SCF Done:  E(RHF) =  -152.103762351     A.U. after   10 cycles
 E2 =    -0.5277661472D+00 EUMP2 =    -0.15263152849802D+03
 CCSD(T)
 CCSD(T)= -0.15265872819D+03

 The electronic state is 1-A'.
 Alpha  occ. eigenvalues --  -20.54978 -20.53473  -1.32344  -1.30719  -0.69766
 Alpha  occ. eigenvalues --   -0.68191  -0.56035  -0.53518  -0.49476  -0.47785
 Alpha virt. eigenvalues --    0.13785   0.17037   0.20096   0.23166   0.53788
 Alpha virt. eigenvalues --    0.57579   0.57622   0.58305   0.68574   0.75841
 Alpha virt. eigenvalues --    0.76395   0.76919   0.81030   0.82670   0.85213

 Mulliken charges:
               1
     1  O   -0.479338
     2  H    0.234471
     3  H    0.249806
     4  O   -0.480394
     5  H    0.226105
     6  H    0.249350
 Sum of Mulliken charges =   0.00000

 Dipole moment (field-independent basis, Debye):
    X=             -1.5340    Y=             -0.9766    Z=              0.0000  Tot=              1.8185
 Quadrupole moment (field-independent basis, Debye-Ang):
   XX=             -9.2783   YY=             -2.1572   ZZ=            -14.7196
   XY=             -1.6619   XZ=              0.0000   YZ=              0.0000

 Normal termination of Gaussian 16 at Sat Aug 27 02:51:22 2022.
