 Gaussian 16, Revision A.03,
 Gaussian 16:  ES64L-G16RevA.03 25-Dec-2016

 ------------------
 #p CCSD(T)/cc-pVTZ
 ------------------

 ------------
 H2O_H2O_4555
 ------------
 Symbolic Z-matrix:
 Charge =  0 Multiplicity = 1

                         Standard orientation:
 ---------------------------------------------------------------------
 Center     Atomic      Atomic             Coordinates (Angstroms)
 Number     Number       Type             X           Y           Z
 ---------------------------------------------------------------------
      1          8           0        0.018360   -3.220172    0.000000
      2          1           0       -0.781491   -3.790912    0.000000
      3          1           0        0.817651   -3.791696    0.000000
      4          8           0        0.018360    3.226216    0.000000
      5          1           0        0.592305    4.023770    0.000000
      6          1           0       -0.922223    3.510486    0.000000
 ---------------------------------------------------------------------

 SCF Done:  E(RHF) =  -152.106896534     A.U. after   10 cycles
 E2 =    -0.5259221615D+00 EUMP2 =    -0.15263281869569D+03
 CCSD(T)
 CCSD(T)= -0.15266004982D+03

 The electronic state is 1-A'.
 Alpha  occ. eigenvalues --  -20.55237 -20.55203  -1.32533  -1.32499  -0.69940
 Alpha  occ. eigenvalues --   -0.69906  -0.55957  -0.55923  -0.49641  -0.49607
 Alpha virt. eigenvalues --    0.14395   0.14435   0.20446   0.20482   0.54628
 Alpha virt. eigenvalues --    0.54665   0.57501   0.57535   0.68264   0.68316
 Alpha virt. eigenvalues --    0.79238   0.79272   0.80681   0.80717   0.82608

 Mulliken charges:
               1
     1  O   -0.505848
     2  H    0.252531
     3  H    0.253317
     4  O   -0.505816
     5  H    0.252345
     6  H    0.253471
 Sum of Mulliken charges =  -0.00000

 Dipole moment (field-independent basis, Debye):
    X=             -0.6310    Y=             -0.1054    Z=              0.0000  Tot=              0.6397
 Quadrupole moment (field-independent basis, Debye-Ang):
   XX=             -8.0145   YY=             13.2732   ZZ=            -14.7108
   XY=             -1.4924   XZ=              0.0000   YZ=              0.0000

 Normal termination of Gaussian 16 at Sat Aug 27 07:59:15 2022.
