 Gaussian 16, Revision A.03,
 Gaussian 16:  ES64L-G16RevA.03 25-Dec-2016

 ------------------
 #p CCSD(T)/cc-pVTZ
 ------------------

 ------------
 H2O_H2O_2375
 ------------
 Symbolic Z-matrix:
 Charge =  0 Multiplicity = 1

                         Standard orientation:
 ---------------------------------------------------------------------
 Center     Atomic      Atomic             Coordinates (Angstroms)
 Number     Number       Type             X           Y           Z
 ---------------------------------------------------------------------
      1          8           0        0.000000   -0.000000    2.066711
      2          1           0        0.000000    0.799571    2.637843
      3          1           0       -0.000000   -0.799571    2.637843
      4          8           0        0.000000   -0.000000   -2.066711
      5          1           0       -0.000000   -0.799571   -2.637843
      6          1           0        0.000000    0.799571   -2.637843
 ---------------------------------------------------------------------

 SCF Done:  E(RHF) =  -152.105284134     A.U. after   10 cycles
 E2 =    -0.5262300728D+00 EUMP2 =    -0.15263151420668D+03
 CCSD(T)
 CCSD(T)= -0.15265876457D+03

 The electronic state is 1-AG.
 Alpha  occ. eigenvalues --  -20.54620 -20.54620  -1.31910  -1.31901  -0.69327
 Alpha  occ. eigenvalues --   -0.69316  -0.55374  -0.55098  -0.49020  -0.48986
 Alpha virt. eigenvalues --    0.14254   0.15483   0.20641   0.21038   0.54552
 Alpha virt. eigenvalues --    0.55964   0.57877   0.58095   0.63168   0.74019
 Alpha virt. eigenvalues --    0.79592   0.80134   0.81040   0.81535   0.81643

 Mulliken charges:
               1
     1  O   -0.495594
     2  H    0.247797
     3  H    0.247797
     4  O   -0.495594
     5  H    0.247797
     6  H    0.247797
 Sum of Mulliken charges =   0.00000

 Dipole moment (field-independent basis, Debye):
    X=             -0.0000    Y=              0.0000    Z=              0.0000  Tot=              0.0000
 Quadrupole moment (field-independent basis, Debye-Ang):
   XX=            -14.7094   YY=             -7.8320   ZZ=              4.4047
   XY=              0.0000   XZ=              0.0000   YZ=             -0.0000

 MP4DQ=-152.6406031\MP4SDQ=-152.6436828\CCSD=-152.6430858\CCSD(T)=-152.
 Normal termination of Gaussian 16 at Sat Aug 27 10:12:42 2022.
