 Gaussian 16, Revision A.03,
 Gaussian 16:  ES64L-G16RevA.03 25-Dec-2016

 ------------------
 #p CCSD(T)/cc-pVTZ
 ------------------

 ------------
 H2O_H2O_4263
 ------------
 Symbolic Z-matrix:
 Charge =  0 Multiplicity = 1

                         Standard orientation:
 ---------------------------------------------------------------------
 Center     Atomic      Atomic             Coordinates (Angstroms)
 Number     Number       Type             X           Y           Z
 ---------------------------------------------------------------------
      1          8           0        0.042963   -3.042827    0.000000
      2          1           0       -0.757296   -3.612993    0.000000
      3          1           0        0.841844   -3.614923    0.000000
      4          8           0        0.042963    3.081635    0.000000
      5          1           0        0.141938    4.059239    0.000000
      6          1           0       -0.913901    2.858214    0.000000
 ---------------------------------------------------------------------

 SCF Done:  E(RHF) =  -152.107081219     A.U. after   10 cycles
 E2 =    -0.5259112719D+00 EUMP2 =    -0.15263299249114D+03
 CCSD(T)
 CCSD(T)= -0.15266021935D+03

 The electronic state is 1-A'.
 Alpha  occ. eigenvalues --  -20.55380 -20.55140  -1.32677  -1.32436  -0.70084
 Alpha  occ. eigenvalues --   -0.69838  -0.56109  -0.55868  -0.49786  -0.49546
 Alpha virt. eigenvalues --    0.14258   0.14519   0.20325   0.20583   0.54480
 Alpha virt. eigenvalues --    0.54740   0.57371   0.57612   0.68079   0.68376
 Alpha virt. eigenvalues --    0.79093   0.79330   0.80530   0.80790   0.82460

 Mulliken charges:
               1
     1  O   -0.506958
     2  H    0.252419
     3  H    0.254539
     4  O   -0.506766
     5  H    0.251686
     6  H    0.255080
 Sum of Mulliken charges =  -0.00000

 Dipole moment (field-independent basis, Debye):
    X=             -1.4757    Y=             -0.6784    Z=              0.0000  Tot=              1.6242
 Quadrupole moment (field-independent basis, Debye-Ang):
   XX=             -8.9649   YY=              9.4116   ZZ=            -14.7113
   XY=             -3.7008   XZ=              0.0000   YZ=              0.0000

 Normal termination of Gaussian 16 at Sat Aug 27 06:19:37 2022.
