 Gaussian 16, Revision A.03,
 Gaussian 16:  ES64L-G16RevA.03 25-Dec-2016

 ------------------
 #p CCSD(T)/cc-pVTZ
 ------------------

 ------------
 H2O_H2O_4133
 ------------
 Symbolic Z-matrix:
 Charge =  0 Multiplicity = 1

                         Standard orientation:
 ---------------------------------------------------------------------
 Center     Atomic      Atomic             Coordinates (Angstroms)
 Number     Number       Type             X           Y           Z
 ---------------------------------------------------------------------
      1          8           0        0.028563   -2.989138    0.000000
      2          1           0       -0.771476   -3.559614    0.000000
      3          1           0        0.827665   -3.560926    0.000000
      4          8           0        0.028563    3.004395    0.000000
      5          1           0        0.436180    3.898461    0.000000
      6          1           0       -0.949374    3.100026    0.000000
 ---------------------------------------------------------------------

 SCF Done:  E(RHF) =  -152.106837101     A.U. after   10 cycles
 E2 =    -0.5259337694D+00 EUMP2 =    -0.15263277087046D+03
 CCSD(T)
 CCSD(T)= -0.15266000287D+03

 The electronic state is 1-A'.
 Alpha  occ. eigenvalues --  -20.55227 -20.55129  -1.32523  -1.32425  -0.69931
 Alpha  occ. eigenvalues --   -0.69830  -0.55944  -0.55846  -0.49631  -0.49532
 Alpha virt. eigenvalues --    0.14387   0.14514   0.20444   0.20553   0.54636
 Alpha virt. eigenvalues --    0.54747   0.57505   0.57605   0.68239   0.68441
 Alpha virt. eigenvalues --    0.79248   0.79345   0.80691   0.80799   0.82621

 Mulliken charges:
               1
     1  O   -0.505508
     2  H    0.252001
     3  H    0.253507
     4  O   -0.505403
     5  H    0.251607
     6  H    0.253796
 Sum of Mulliken charges =  -0.00000

 Dipole moment (field-independent basis, Debye):
    X=             -0.9805    Y=             -0.2668    Z=              0.0000  Tot=              1.0162
 Quadrupole moment (field-independent basis, Debye-Ang):
   XX=             -8.3175   YY=             10.8305   ZZ=            -14.7108
   XY=             -2.1845   XZ=              0.0000   YZ=              0.0000

 Normal termination of Gaussian 16 at Sat Aug 27 05:33:56 2022.
