 Gaussian 16, Revision A.03,
 Gaussian 16:  ES64L-G16RevA.03 25-Dec-2016

 ------------------
 #p CCSD(T)/cc-pVTZ
 ------------------

 ------------
 H2O_H2O_3843
 ------------
 Symbolic Z-matrix:
 Charge =  0 Multiplicity = 1

                         Standard orientation:
 ---------------------------------------------------------------------
 Center     Atomic      Atomic             Coordinates (Angstroms)
 Number     Number       Type             X           Y           Z
 ---------------------------------------------------------------------
      1          8           0        0.052822   -2.799669    0.000000
      2          1           0       -0.747663   -3.369519    0.000000
      3          1           0        0.851477   -3.372082    0.000000
      4          8           0        0.052822    2.870014    0.000000
      5          1           0       -0.167318    3.827638    0.000000
      6          1           0       -0.781650    2.351205    0.000000
 ---------------------------------------------------------------------

 SCF Done:  E(RHF) =  -152.107336324     A.U. after   10 cycles
 E2 =    -0.5259008610D+00 EUMP2 =    -0.15263323718493D+03
 CCSD(T)
 CCSD(T)= -0.15266045769D+03

 The electronic state is 1-A'.
 Alpha  occ. eigenvalues --  -20.55547 -20.55033  -1.32846  -1.32330  -0.70252
 Alpha  occ. eigenvalues --   -0.69727  -0.56290  -0.55771  -0.49956  -0.49443
 Alpha virt. eigenvalues --    0.14041   0.14695   0.20180   0.20765   0.54300
 Alpha virt. eigenvalues --    0.54847   0.57221   0.57729   0.67718   0.68635
 Alpha virt. eigenvalues --    0.78924   0.79428   0.80351   0.80831   0.82414

 Mulliken charges:
               1
     1  O   -0.508482
     2  H    0.252650
     3  H    0.255846
     4  O   -0.508092
     5  H    0.251151
     6  H    0.256928
 Sum of Mulliken charges =  -0.00000

 Dipole moment (field-independent basis, Debye):
    X=             -1.8121    Y=             -1.2349    Z=              0.0000  Tot=              2.1929
 Quadrupole moment (field-independent basis, Debye-Ang):
   XX=             -9.5590   YY=              5.3192   ZZ=            -14.7120
   XY=             -4.6657   XZ=              0.0000   YZ=              0.0000

 Normal termination of Gaussian 16 at Sat Aug 27 03:43:51 2022.
