 Gaussian 16, Revision A.03,
 Gaussian 16:  ES64L-G16RevA.03 25-Dec-2016

 ------------------
 #p CCSD(T)/cc-pVTZ
 ------------------

 ------------
 H2O_H2O_4839
 ------------
 Symbolic Z-matrix:
 Charge =  0 Multiplicity = 1

                         Standard orientation:
 ---------------------------------------------------------------------
 Center     Atomic      Atomic             Coordinates (Angstroms)
 Number     Number       Type             X           Y           Z
 ---------------------------------------------------------------------
      1          8           0        0.045337   -3.345496    0.000000
      2          1           0       -0.754895   -3.915701    0.000000
      3          1           0        0.844246   -3.917553    0.000000
      4          8           0        0.045337    3.390081    0.000000
      5          1           0        0.080113    4.372066    0.000000
      6          1           0       -0.894853    3.104509    0.000000
 ---------------------------------------------------------------------

 SCF Done:  E(RHF) =  -152.107218696     A.U. after   10 cycles
 E2 =    -0.5258919090D+00 EUMP2 =    -0.15263311060523D+03
 CCSD(T)
 CCSD(T)= -0.15266033499D+03

 The electronic state is 1-A'.
 Alpha  occ. eigenvalues --  -20.55454 -20.55228  -1.32752  -1.32524  -0.70158
 Alpha  occ. eigenvalues --   -0.69927  -0.56190  -0.55963  -0.49862  -0.49635
 Alpha virt. eigenvalues --    0.14207   0.14434   0.20272   0.20509   0.54406
 Alpha virt. eigenvalues --    0.54646   0.57308   0.57534   0.68014   0.68245
 Alpha virt. eigenvalues --    0.79018   0.79241   0.80453   0.80696   0.82378

 Mulliken charges:
               1
     1  O   -0.507759
     2  H    0.253033
     3  H    0.254726
     4  O   -0.507617
     5  H    0.252401
     6  H    0.255216
 Sum of Mulliken charges =  -0.00000

 Dipole moment (field-independent basis, Debye):
    X=             -1.5594    Y=             -0.7771    Z=              0.0000  Tot=              1.7423
 Quadrupole moment (field-independent basis, Debye-Ang):
   XX=             -9.0965   YY=             10.8824   ZZ=            -14.7115
   XY=             -4.4608   XZ=              0.0000   YZ=              0.0000

 Normal termination of Gaussian 16 at Sat Aug 27 09:37:37 2022.
