 Gaussian 16, Revision A.03,
 Gaussian 16:  ES64L-G16RevA.03 25-Dec-2016

 ------------------
 #p CCSD(T)/cc-pVTZ
 ------------------

 ------------
 H2O_H2O_4452
 ------------
 Symbolic Z-matrix:
 Charge =  0 Multiplicity = 1

                         Standard orientation:
 ---------------------------------------------------------------------
 Center     Atomic      Atomic             Coordinates (Angstroms)
 Number     Number       Type             X           Y           Z
 ---------------------------------------------------------------------
      1          8           0        0.007455   -3.169742    0.000000
      2          1           0       -0.792232   -3.740712    0.000000
      3          1           0        0.806910   -3.741036    0.000000
      4          8           0        0.007455    3.170716    0.000000
      5          1           0        0.725774    3.841182    0.000000
      6          1           0       -0.859731    3.632773    0.000000
 ---------------------------------------------------------------------

 SCF Done:  E(RHF) =  -152.106827942     A.U. after   10 cycles
 E2 =    -0.5259291403D+00 EUMP2 =    -0.15263275708192D+03
 CCSD(T)
 CCSD(T)= -0.15265998960D+03

 The electronic state is 1-A'.
 Alpha  occ. eigenvalues --  -20.55196 -20.55190  -1.32492  -1.32486  -0.69899
 Alpha  occ. eigenvalues --   -0.69893  -0.55912  -0.55907  -0.49599  -0.49593
 Alpha virt. eigenvalues --    0.14424   0.14449   0.20475   0.20488   0.54669
 Alpha virt. eigenvalues --    0.54678   0.57536   0.57544   0.68300   0.68352
 Alpha virt. eigenvalues --    0.79280   0.79286   0.80724   0.80730   0.82652

 Mulliken charges:
               1
     1  O   -0.505442
     2  H    0.252554
     3  H    0.252888
     4  O   -0.505437
     5  H    0.252484
     6  H    0.252953
 Sum of Mulliken charges =  -0.00000

 Dipole moment (field-independent basis, Debye):
    X=             -0.2561    Y=             -0.0170    Z=              0.0000  Tot=              0.2567
 Quadrupole moment (field-independent basis, Debye-Ang):
   XX=             -7.8378   YY=             13.2530   ZZ=            -14.7107
   XY=             -0.5806   XZ=              0.0000   YZ=              0.0000

 Normal termination of Gaussian 16 at Sat Aug 27 07:23:48 2022.
