 Gaussian 16, Revision A.03,
 Gaussian 16:  ES64L-G16RevA.03 25-Dec-2016

 ------------------
 #p CCSD(T)/cc-pVTZ
 ------------------

 ------------
 H2O_H2O_3838
 ------------
 Symbolic Z-matrix:
 Charge =  0 Multiplicity = 1

                         Standard orientation:
 ---------------------------------------------------------------------
 Center     Atomic      Atomic             Coordinates (Angstroms)
 Number     Number       Type             X           Y           Z
 ---------------------------------------------------------------------
      1          8           0        0.042965   -2.816801    0.000000
      2          1           0       -0.757349   -3.386890    0.000000
      3          1           0        0.841791   -3.388975    0.000000
      4          8           0        0.042965    2.855601    0.000000
      5          1           0        0.142034    3.833196    0.000000
      6          1           0       -0.913921    2.632271    0.000000
 ---------------------------------------------------------------------

 SCF Done:  E(RHF) =  -152.106979599     A.U. after   10 cycles
 E2 =    -0.5259295381D+00 EUMP2 =    -0.15263290913737D+03
 CCSD(T)
 CCSD(T)= -0.15266013757D+03

 The electronic state is 1-A'.
 Alpha  occ. eigenvalues --  -20.55337 -20.55056  -1.32634  -1.32351  -0.70041
 Alpha  occ. eigenvalues --   -0.69751  -0.56061  -0.55778  -0.49742  -0.49460
 Alpha virt. eigenvalues --    0.14253   0.14629   0.20344   0.20667   0.54518
 Alpha virt. eigenvalues --    0.54832   0.57405   0.57689   0.68008   0.68611
 Alpha virt. eigenvalues --    0.79137   0.79414   0.80575   0.80873   0.82529

 Mulliken charges:
               1
     1  O   -0.506373
     2  H    0.251866
     3  H    0.254509
     4  O   -0.506104
     5  H    0.250966
     6  H    0.255135
 Sum of Mulliken charges =  -0.00000

 Dipole moment (field-independent basis, Debye):
    X=             -1.4736    Y=             -0.6804    Z=              0.0000  Tot=              1.6231
 Quadrupole moment (field-independent basis, Debye-Ang):
   XX=             -8.9657   YY=              7.9070   ZZ=            -14.7112
   XY=             -3.3703   XZ=              0.0000   YZ=              0.0000

 Normal termination of Gaussian 16 at Sat Aug 27 03:41:52 2022.
