 Gaussian 16, Revision A.03,
 Gaussian 16:  ES64L-G16RevA.03 25-Dec-2016

 ------------------
 #p CCSD(T)/cc-pVTZ
 ------------------

 -----------
 H2O_H2O_718
 -----------
 Symbolic Z-matrix:
 Charge =  0 Multiplicity = 1

                         Standard orientation:
 ---------------------------------------------------------------------
 Center     Atomic      Atomic             Coordinates (Angstroms)
 Number     Number       Type             X           Y           Z
 ---------------------------------------------------------------------
      1          8           0        0.052902   -1.137806    0.000000
      2          1           0       -0.748875   -1.705837    0.000000
      3          1           0        0.850255   -1.712030    0.000000
      4          8           0        0.052902    1.207911    0.000000
      5          1           0       -0.165063    2.166032    0.000000
      6          1           0       -0.782746    0.690998    0.000000
 ---------------------------------------------------------------------

 SCF Done:  E(RHF) =  -152.092687390     A.U. after   11 cycles
 E2 =    -0.5308494709D+00 EUMP2 =    -0.15262353686136D+03
 CCSD(T)
 CCSD(T)= -0.15265057538D+03

 The electronic state is 1-A'.
 Alpha  occ. eigenvalues --  -20.55238 -20.52275  -1.33298  -1.29543  -0.70672
 Alpha  occ. eigenvalues --   -0.68168  -0.55907  -0.52011  -0.50346  -0.46519
 Alpha virt. eigenvalues --    0.13569   0.17966   0.19805   0.24555   0.52091
 Alpha virt. eigenvalues --    0.56977   0.59810   0.61093   0.71469   0.74482
 Alpha virt. eigenvalues --    0.78113   0.82942   0.83666   0.84474   0.87488

 Mulliken charges:
               1
     1  O   -0.456117
     2  H    0.224658
     3  H    0.244335
     4  O   -0.471272
     5  H    0.206342
     6  H    0.252054
 Sum of Mulliken charges =  -0.00000

 Dipole moment (field-independent basis, Debye):
    X=             -1.6224    Y=             -1.4332    Z=              0.0000  Tot=              2.1648
 Quadrupole moment (field-independent basis, Debye-Ang):
   XX=             -9.6202   YY=             -4.6258   ZZ=            -14.7194
   XY=             -1.7400   XZ=              0.0000   YZ=              0.0000

 Normal termination of Gaussian 16 at Fri Aug 26 19:23:29 2022.
