 Gaussian 16, Revision A.03,
 Gaussian 16:  ES64L-G16RevA.03 25-Dec-2016

 ------------------
 #p CCSD(T)/cc-pVTZ
 ------------------

 ------------
 H2O_H2O_2405
 ------------
 Symbolic Z-matrix:
 Charge =  0 Multiplicity = 1

                         Standard orientation:
 ---------------------------------------------------------------------
 Center     Atomic      Atomic             Coordinates (Angstroms)
 Number     Number       Type             X           Y           Z
 ---------------------------------------------------------------------
      1          8           0        0.018361   -2.076729    0.000000
      2          1           0       -0.781644   -2.647253    0.000000
      3          1           0        0.817497   -2.648468    0.000000
      4          8           0        0.018361    2.082763    0.000000
      5          1           0        0.592521    2.880162    0.000000
      6          1           0       -0.922145    2.367286    0.000000
 ---------------------------------------------------------------------

 SCF Done:  E(RHF) =  -152.105477951     A.U. after   10 cycles
 E2 =    -0.5262100649D+00 EUMP2 =    -0.15263168801595D+03
 CCSD(T)
 CCSD(T)= -0.15265893444D+03

 The electronic state is 1-A'.
 Alpha  occ. eigenvalues --  -20.54707 -20.54624  -1.31993  -1.31908  -0.69408
 Alpha  occ. eigenvalues --   -0.69320  -0.55423  -0.55162  -0.49094  -0.49005
 Alpha virt. eigenvalues --    0.14187   0.15479   0.20590   0.21063   0.54428
 Alpha virt. eigenvalues --    0.55779   0.57846   0.58074   0.63623   0.73837
 Alpha virt. eigenvalues --    0.79560   0.80074   0.80933   0.81254   0.82066

 Mulliken charges:
               1
     1  O   -0.496735
     2  H    0.247078
     3  H    0.249711
     4  O   -0.496548
     5  H    0.246625
     6  H    0.249870
 Sum of Mulliken charges =  -0.00000

 Dipole moment (field-independent basis, Debye):
    X=             -0.6221    Y=             -0.1086    Z=              0.0000  Tot=              0.6315
 Quadrupole moment (field-independent basis, Debye-Ang):
   XX=             -8.0400   YY=              4.2801   ZZ=            -14.7097
   XY=             -0.7827   XZ=              0.0000   YZ=              0.0000

 Normal termination of Gaussian 16 at Sat Aug 27 10:22:41 2022.
