 Gaussian 16, Revision A.03,
 Gaussian 16:  ES64L-G16RevA.03 25-Dec-2016

 ------------------
 #p CCSD(T)/cc-pVTZ
 ------------------

 ------------
 H2O_H2O_1641
 ------------
 Symbolic Z-matrix:
 Charge =  0 Multiplicity = 1

                         Standard orientation:
 ---------------------------------------------------------------------
 Center     Atomic      Atomic             Coordinates (Angstroms)
 Number     Number       Type             X           Y           Z
 ---------------------------------------------------------------------
      1          8           0        0.049534   -1.636950    0.000000
      2          1           0       -0.751494   -2.206036    0.000000
      3          1           0        0.847642   -2.210125    0.000000
      4          8           0        0.049534    1.693811    0.000000
      5          1           0       -0.042794    2.672065    0.000000
      6          1           0       -0.845903    1.289215    0.000000
 ---------------------------------------------------------------------

 SCF Done:  E(RHF) =  -152.106345323     A.U. after   10 cycles
 E2 =    -0.5267889949D+00 EUMP2 =    -0.15263313431785D+03
 CCSD(T)
 CCSD(T)= -0.15266031953D+03

 The electronic state is 1-A'.
 Alpha  occ. eigenvalues --  -20.55297 -20.53968  -1.32576  -1.31231  -0.69997
 Alpha  occ. eigenvalues --   -0.68613  -0.56007  -0.54522  -0.49689  -0.48344
 Alpha virt. eigenvalues --    0.13589   0.16531   0.20086   0.22727   0.54156
 Alpha virt. eigenvalues --    0.54847   0.57435   0.58505   0.64993   0.76470
 Alpha virt. eigenvalues --    0.77931   0.78238   0.78584   0.81430   0.85025

 Mulliken charges:
               1
     1  O   -0.490149
     2  H    0.241100
     3  H    0.252703
     4  O   -0.495538
     5  H    0.237014
     6  H    0.254871
 Sum of Mulliken charges =   0.00000

 Dipole moment (field-independent basis, Debye):
    X=             -1.6405    Y=             -1.0719    Z=              0.0000  Tot=              1.9597
 Quadrupole moment (field-independent basis, Debye-Ang):
   XX=             -9.3671   YY=             -0.7235   ZZ=            -14.7158
   XY=             -2.2161   XZ=              0.0000   YZ=              0.0000

 Normal termination of Gaussian 16 at Sat Aug 27 05:56:33 2022.
