 Gaussian 16, Revision A.03,
 Gaussian 16:  ES64L-G16RevA.03 25-Dec-2016

 ------------------
 #p CCSD(T)/cc-pVTZ
 ------------------

 ------------
 H2O_H2O_3029
 ------------
 Symbolic Z-matrix:
 Charge =  0 Multiplicity = 1

                         Standard orientation:
 ---------------------------------------------------------------------
 Center     Atomic      Atomic             Coordinates (Angstroms)
 Number     Number       Type             X           Y           Z
 ---------------------------------------------------------------------
      1          8           0        0.014783   -2.410299    0.000000
      2          1           0       -0.785089   -2.981009    0.000000
      3          1           0        0.814053   -2.981852    0.000000
      4          8           0        0.014783    2.414175    0.000000
      5          1           0        0.639690    3.172462    0.000000
      6          1           0       -0.905182    2.759387    0.000000
 ---------------------------------------------------------------------

 SCF Done:  E(RHF) =  -152.106079192     A.U. after   10 cycles
 E2 =    -0.5260421777D+00 EUMP2 =    -0.15263212137007D+03
 CCSD(T)
 CCSD(T)= -0.15265936661D+03

 The electronic state is 1-A'.
 Alpha  occ. eigenvalues --  -20.54905 -20.54867  -1.32198  -1.32159  -0.69608
 Alpha  occ. eigenvalues --   -0.69568  -0.55590  -0.55530  -0.49300  -0.49261
 Alpha virt. eigenvalues --    0.14394   0.14955   0.20590   0.20783   0.54817
 Alpha virt. eigenvalues --    0.55145   0.57740   0.57837   0.67010   0.70428
 Alpha virt. eigenvalues --    0.79554   0.79634   0.80991   0.81120   0.82608

 Mulliken charges:
               1
     1  O   -0.501042
     2  H    0.249810
     3  H    0.251236
     4  O   -0.500955
     5  H    0.249557
     6  H    0.251395
 Sum of Mulliken charges =  -0.00000

 Dipole moment (field-independent basis, Debye):
    X=             -0.5045    Y=             -0.0685    Z=              0.0000  Tot=              0.5091
 Quadrupole moment (field-independent basis, Debye-Ang):
   XX=             -7.9534   YY=              7.0293   ZZ=            -14.7098
   XY=             -0.7850   XZ=              0.0000   YZ=              0.0000

 Normal termination of Gaussian 16 at Fri Aug 26 18:40:36 2022.
