 Gaussian 16, Revision A.03,
 Gaussian 16:  ES64L-G16RevA.03 25-Dec-2016

 ------------------
 #p CCSD(T)/cc-pVTZ
 ------------------

 ------------
 H2O_H2O_4167
 ------------
 Symbolic Z-matrix:
 Charge =  0 Multiplicity = 1

                         Standard orientation:
 ---------------------------------------------------------------------
 Center     Atomic      Atomic             Coordinates (Angstroms)
 Number     Number       Type             X           Y           Z
 ---------------------------------------------------------------------
      1          8           0        0.051270   -2.976204    0.000000
      2          1           0       -0.749137   -3.546163    0.000000
      3          1           0        0.850003   -3.548507    0.000000
      4          8           0        0.051270    3.039759    0.000000
      5          1           0       -0.105899    4.009709    0.000000
      6          1           0       -0.815284    2.576520    0.000000
 ---------------------------------------------------------------------

 SCF Done:  E(RHF) =  -152.107290640     A.U. after   10 cycles
 E2 =    -0.5258955940D+00 EUMP2 =    -0.15263318623443D+03
 CCSD(T)
 CCSD(T)= -0.15266040843D+03

 The electronic state is 1-A'.
 Alpha  occ. eigenvalues --  -20.55516 -20.55108  -1.32815  -1.32404  -0.70221
 Alpha  occ. eigenvalues --   -0.69804  -0.56257  -0.55845  -0.49925  -0.49516
 Alpha virt. eigenvalues --    0.14124   0.14578   0.20214   0.20660   0.54339
 Alpha virt. eigenvalues --    0.54774   0.57249   0.57659   0.67886   0.68417
 Alpha virt. eigenvalues --    0.78955   0.79357   0.80387   0.80815   0.82337

 Mulliken charges:
               1
     1  O   -0.508208
     2  H    0.252792
     3  H    0.255417
     4  O   -0.507919
     5  H    0.251638
     6  H    0.256279
 Sum of Mulliken charges =  -0.00000

 Dipole moment (field-independent basis, Debye):
    X=             -1.7608    Y=             -1.1124    Z=              0.0000  Tot=              2.0827
 Quadrupole moment (field-independent basis, Debye-Ang):
   XX=             -9.4577   YY=              6.9028   ZZ=            -14.7118
   XY=             -4.7214   XZ=              0.0000   YZ=              0.0000

 Normal termination of Gaussian 16 at Sat Aug 27 05:45:41 2022.
