 Gaussian 16, Revision A.03,
 Gaussian 16:  ES64L-G16RevA.03 25-Dec-2016

 ------------------
 #p CCSD(T)/cc-pVTZ
 ------------------

 ------------
 H2O_H2O_1547
 ------------
 Symbolic Z-matrix:
 Charge =  0 Multiplicity = 1

                         Standard orientation:
 ---------------------------------------------------------------------
 Center     Atomic      Atomic             Coordinates (Angstroms)
 Number     Number       Type             X           Y           Z
 ---------------------------------------------------------------------
      1          8           0        0.056775   -1.560895    0.000000
      2          1           0       -0.744521   -2.129604    0.000000
      3          1           0        0.854613   -2.134445    0.000000
      4          8           0        0.056775    1.659869    0.000000
      5          1           0       -0.402479    2.528542    0.000000
      6          1           0       -0.616007    0.943719    0.000000
 ---------------------------------------------------------------------

 SCF Done:  E(RHF) =  -152.108986291     A.U. after   10 cycles
 E2 =    -0.5269679319D+00 EUMP2 =    -0.15263595422262D+03
 CCSD(T)
 CCSD(T)= -0.15266306449D+03

 The electronic state is 1-A'.
 Alpha  occ. eigenvalues --  -20.56287 -20.53560  -1.33572  -1.30864  -0.70975
 Alpha  occ. eigenvalues --   -0.68293  -0.56990  -0.54347  -0.50691  -0.47997
 Alpha virt. eigenvalues --    0.13072   0.16977   0.19680   0.24713   0.52858
 Alpha virt. eigenvalues --    0.55455   0.56732   0.58292   0.67594   0.75545
 Alpha virt. eigenvalues --    0.76440   0.76562   0.80271   0.81502   0.84266

 Mulliken charges:
               1
     1  O   -0.493941
     2  H    0.245189
     3  H    0.258736
     4  O   -0.512121
     5  H    0.238923
     6  H    0.263214
 Sum of Mulliken charges =  -0.00000

 Dipole moment (field-independent basis, Debye):
    X=             -1.8747    Y=             -1.9137    Z=              0.0000  Tot=              2.6790
 Quadrupole moment (field-independent basis, Debye-Ang):
   XX=             -9.8288   YY=             -2.9531   ZZ=            -14.7235
   XY=             -3.1905   XZ=              0.0000   YZ=              0.0000

 Normal termination of Gaussian 16 at Sat Aug 27 05:24:08 2022.
