 Gaussian 16, Revision A.03,
 Gaussian 16:  ES64L-G16RevA.03 25-Dec-2016

 ------------------
 #p CCSD(T)/cc-pVTZ
 ------------------

 ------------
 H2O_H2O_3587
 ------------
 Symbolic Z-matrix:
 Charge =  0 Multiplicity = 1

                         Standard orientation:
 ---------------------------------------------------------------------
 Center     Atomic      Atomic             Coordinates (Angstroms)
 Number     Number       Type             X           Y           Z
 ---------------------------------------------------------------------
      1          8           0        0.040407   -2.686800    0.000000
      2          1           0       -0.759898   -3.256903    0.000000
      3          1           0        0.839243   -3.258960    0.000000
      4          8           0        0.040407    2.720152    0.000000
      5          1           0        0.203184    3.689177    0.000000
      6          1           0       -0.929034    2.559868    0.000000
 ---------------------------------------------------------------------

 SCF Done:  E(RHF) =  -152.106835454     A.U. after   10 cycles
 E2 =    -0.5259499315D+00 EUMP2 =    -0.15263278538530D+03
 CCSD(T)
 CCSD(T)= -0.15266001638D+03

 The electronic state is 1-A'.
 Alpha  occ. eigenvalues --  -20.55267 -20.55001  -1.32563  -1.32294  -0.69971
 Alpha  occ. eigenvalues --   -0.69696  -0.55983  -0.55716  -0.49670  -0.49403
 Alpha virt. eigenvalues --    0.14264   0.14713   0.20383   0.20715   0.54577
 Alpha virt. eigenvalues --    0.54893   0.57462   0.57733   0.67904   0.68896
 Alpha virt. eigenvalues --    0.79208   0.79471   0.80643   0.80932   0.82626

 Mulliken charges:
               1
     1  O   -0.505526
     2  H    0.251340
     3  H    0.254193
     4  O   -0.505224
     5  H    0.250434
     6  H    0.254783
 Sum of Mulliken charges =  -0.00000

 Dipole moment (field-independent basis, Debye):
    X=             -1.3842    Y=             -0.5862    Z=              0.0000  Tot=              1.5032
 Quadrupole moment (field-independent basis, Debye-Ang):
   XX=             -8.8325   YY=              7.4086   ZZ=            -14.7110
   XY=             -2.9181   XZ=              0.0000   YZ=              0.0000

 Normal termination of Gaussian 16 at Sat Aug 27 01:42:34 2022.
