 Gaussian 16, Revision A.03,
 Gaussian 16:  ES64L-G16RevA.03 25-Dec-2016

 ------------------
 #p CCSD(T)/cc-pVTZ
 ------------------

 ------------
 H2O_H2O_1237
 ------------
 Symbolic Z-matrix:
 Charge =  0 Multiplicity = 1

                         Standard orientation:
 ---------------------------------------------------------------------
 Center     Atomic      Atomic             Coordinates (Angstroms)
 Number     Number       Type             X           Y           Z
 ---------------------------------------------------------------------
      1          8           0        0.040425   -1.437031    0.000000
      2          1           0       -0.760510   -2.006249    0.000000
      3          1           0        0.838628   -2.010074    0.000000
      4          8           0        0.040425    1.470294    0.000000
      5          1           0        0.204274    2.439139    0.000000
      6          1           0       -0.929192    1.311082    0.000000
 ---------------------------------------------------------------------

 SCF Done:  E(RHF) =  -152.102892712     A.U. after   11 cycles
 E2 =    -0.5276075956D+00 EUMP2 =    -0.15263050030747D+03
 CCSD(T)
 CCSD(T)= -0.15265773636D+03

 The electronic state is 1-A'.
 Alpha  occ. eigenvalues --  -20.54549 -20.53636  -1.31900  -1.30883  -0.69323
 Alpha  occ. eigenvalues --   -0.68319  -0.55886  -0.53330  -0.49045  -0.47923
 Alpha virt. eigenvalues --    0.13995   0.16874   0.20281   0.22613   0.53389
 Alpha virt. eigenvalues --    0.57918   0.57952   0.58747   0.67491   0.76187
 Alpha virt. eigenvalues --    0.76994   0.77236   0.80673   0.82743   0.85561

 Mulliken charges:
               1
     1  O   -0.478207
     2  H    0.233653
     3  H    0.246640
     4  O   -0.474435
     5  H    0.226973
     6  H    0.245377
 Sum of Mulliken charges =  -0.00000

 Dipole moment (field-independent basis, Debye):
    X=             -1.3096    Y=             -0.6365    Z=              0.0000  Tot=              1.4561
 Quadrupole moment (field-independent basis, Debye-Ang):
   XX=             -8.8995   YY=             -1.4957   ZZ=            -14.7161
   XY=             -1.2306   XZ=              0.0000   YZ=              0.0000

 Normal termination of Gaussian 16 at Sat Aug 27 03:14:58 2022.
