 Gaussian 16, Revision A.03,
 Gaussian 16:  ES64L-G16RevA.03 25-Dec-2016

 ------------------
 #p CCSD(T)/cc-pVTZ
 ------------------

 ------------
 H2O_H2O_3801
 ------------
 Symbolic Z-matrix:
 Charge =  0 Multiplicity = 1

                         Standard orientation:
 ---------------------------------------------------------------------
 Center     Atomic      Atomic             Coordinates (Angstroms)
 Number     Number       Type             X           Y           Z
 ---------------------------------------------------------------------
      1          8           0        0.003735   -2.824445    0.000000
      2          1           0       -0.795901   -3.395486    0.000000
      3          1           0        0.803241   -3.395668    0.000000
      4          8           0        0.003735    2.824688    0.000000
      5          1           0        0.764312    3.446806    0.000000
      6          1           0       -0.831419    3.342398    0.000000
 ---------------------------------------------------------------------

 SCF Done:  E(RHF) =  -152.106551832     A.U. after   10 cycles
 E2 =    -0.5259645184D+00 EUMP2 =    -0.15263251635084D+03
 CCSD(T)
 CCSD(T)= -0.15265975408D+03

 The electronic state is 1-A'.
 Alpha  occ. eigenvalues --  -20.55074 -20.55073  -1.32369  -1.32367  -0.69777
 Alpha  occ. eigenvalues --   -0.69775  -0.55777  -0.55774  -0.49474  -0.49473
 Alpha virt. eigenvalues --    0.14474   0.14590   0.20541   0.20585   0.54776
 Alpha virt. eigenvalues --    0.54814   0.57629   0.57649   0.68271   0.68694
 Alpha virt. eigenvalues --    0.79402   0.79406   0.80843   0.80863   0.82768

 Mulliken charges:
               1
     1  O   -0.503821
     2  H    0.251794
     3  H    0.252026
     4  O   -0.503818
     5  H    0.251753
     6  H    0.252066
 Sum of Mulliken charges =  -0.00000

 Dipole moment (field-independent basis, Debye):
    X=             -0.1281    Y=             -0.0043    Z=              0.0000  Tot=              0.1281
 Quadrupole moment (field-independent basis, Debye-Ang):
   XX=             -7.8163   YY=             10.5391   ZZ=            -14.7103
   XY=             -0.2461   XZ=              0.0000   YZ=              0.0000

 Normal termination of Gaussian 16 at Sat Aug 27 03:26:10 2022.
