 Gaussian 16, Revision A.03,
 Gaussian 16:  ES64L-G16RevA.03 25-Dec-2016

 ------------------
 #p CCSD(T)/cc-pVTZ
 ------------------

 ------------
 H2O_H2O_3357
 ------------
 Symbolic Z-matrix:
 Charge =  0 Multiplicity = 1

                         Standard orientation:
 ---------------------------------------------------------------------
 Center     Atomic      Atomic             Coordinates (Angstroms)
 Number     Number       Type             X           Y           Z
 ---------------------------------------------------------------------
      1          8           0        0.025265   -2.578876    0.000000
      2          1           0       -0.774786   -3.149335    0.000000
      3          1           0        0.824356   -3.150681    0.000000
      4          8           0        0.025265    2.590614    0.000000
      5          1           0        0.490502    3.456097    0.000000
      6          1           0       -0.944320    2.750020    0.000000
 ---------------------------------------------------------------------

 SCF Done:  E(RHF) =  -152.106437037     A.U. after   10 cycles
 E2 =    -0.5259914095D+00 EUMP2 =    -0.15263242844682D+03
 CCSD(T)
 CCSD(T)= -0.15265966757D+03

 The electronic state is 1-A'.
 Alpha  occ. eigenvalues --  -20.55059 -20.54958  -1.32353  -1.32250  -0.69762
 Alpha  occ. eigenvalues --   -0.69656  -0.55755  -0.55652  -0.49458  -0.49356
 Alpha virt. eigenvalues --    0.14392   0.14775   0.20522   0.20707   0.54761
 Alpha virt. eigenvalues --    0.54960   0.57635   0.57754   0.67795   0.69350
 Alpha virt. eigenvalues --    0.79418   0.79521   0.80853   0.81000   0.82753

 Mulliken charges:
               1
     1  O   -0.503167
     2  H    0.250576
     3  H    0.252595
     4  O   -0.502996
     5  H    0.250112
     6  H    0.252881
 Sum of Mulliken charges =  -0.00000

 Dipole moment (field-independent basis, Debye):
    X=             -0.8643    Y=             -0.2066    Z=              0.0000  Tot=              0.8886
 Quadrupole moment (field-independent basis, Debye-Ang):
   XX=             -8.2115   YY=              7.9464   ZZ=            -14.7103
   XY=             -1.5512   XZ=              0.0000   YZ=              0.0000

 Normal termination of Gaussian 16 at Fri Aug 26 21:39:36 2022.
