 Gaussian 16, Revision A.03,
 Gaussian 16:  ES64L-G16RevA.03 25-Dec-2016

 ------------------
 #p CCSD(T)/cc-pVTZ
 ------------------

 ------------
 H2O_H2O_3786
 ------------
 Symbolic Z-matrix:
 Charge =  0 Multiplicity = 1

                         Standard orientation:
 ---------------------------------------------------------------------
 Center     Atomic      Atomic             Coordinates (Angstroms)
 Number     Number       Type             X           Y           Z
 ---------------------------------------------------------------------
      1          8           0        0.037674   -2.795933    0.000000
      2          1           0       -0.762556   -3.366142    0.000000
      3          1           0        0.836585   -3.367987    0.000000
      4          8           0        0.037674    2.824193    0.000000
      5          1           0        0.263353    3.780527    0.000000
      6          1           0       -0.940162    2.727527    0.000000
 ---------------------------------------------------------------------

 SCF Done:  E(RHF) =  -152.106846329     A.U. after   10 cycles
 E2 =    -0.5259417909D+00 EUMP2 =    -0.15263278812030D+03
 CCSD(T)
 CCSD(T)= -0.15266001938D+03

 The electronic state is 1-A'.
 Alpha  occ. eigenvalues --  -20.55259 -20.55052  -1.32555  -1.32346  -0.69963
 Alpha  occ. eigenvalues --   -0.69748  -0.55976  -0.55767  -0.49663  -0.49454
 Alpha virt. eigenvalues --    0.14318   0.14625   0.20403   0.20649   0.54596
 Alpha virt. eigenvalues --    0.54836   0.57472   0.57685   0.68073   0.68660
 Alpha virt. eigenvalues --    0.79216   0.79421   0.80656   0.80883   0.82603

 Mulliken charges:
               1
     1  O   -0.505582
     2  H    0.251600
     3  H    0.253984
     4  O   -0.505354
     5  H    0.250881
     6  H    0.254472
 Sum of Mulliken charges =  -0.00000

 Dipole moment (field-independent basis, Debye):
    X=             -1.2917    Y=             -0.4956    Z=              0.0000  Tot=              1.3836
 Quadrupole moment (field-independent basis, Debye-Ang):
   XX=             -8.6980   YY=              8.5147   ZZ=            -14.7109
   XY=             -2.7966   XZ=              0.0000   YZ=              0.0000

 Normal termination of Gaussian 16 at Sat Aug 27 03:17:52 2022.
