 Gaussian 16, Revision A.03,
 Gaussian 16:  ES64L-G16RevA.03 25-Dec-2016

 ------------------
 #p CCSD(T)/cc-pVTZ
 ------------------

 ------------
 H2O_H2O_2006
 ------------
 Symbolic Z-matrix:
 Charge =  0 Multiplicity = 1

                         Standard orientation:
 ---------------------------------------------------------------------
 Center     Atomic      Atomic             Coordinates (Angstroms)
 Number     Number       Type             X           Y           Z
 ---------------------------------------------------------------------
      1          8           0        0.021861   -1.862573    0.000000
      2          1           0       -0.778286   -2.432899    0.000000
      3          1           0        0.820856   -2.434511    0.000000
      4          8           0        0.021861    1.871224    0.000000
      5          1           0        0.542846    2.704339    0.000000
      6          1           0       -0.935185    2.093863    0.000000
 ---------------------------------------------------------------------

 SCF Done:  E(RHF) =  -152.104907272     A.U. after   10 cycles
 E2 =    -0.5264517806D+00 EUMP2 =    -0.15263135905285D+03
 CCSD(T)
 CCSD(T)= -0.15265860190D+03

 The electronic state is 1-A'.
 Alpha  occ. eigenvalues --  -20.54558 -20.54407  -1.31839  -1.31682  -0.69260
 Alpha  occ. eigenvalues --   -0.69096  -0.55372  -0.54747  -0.48947  -0.48769
 Alpha virt. eigenvalues --    0.14101   0.15896   0.20551   0.21344   0.53622
 Alpha virt. eigenvalues --    0.56327   0.57943   0.58281   0.61995   0.75621
 Alpha virt. eigenvalues --    0.79265   0.79893   0.80695   0.80928   0.82894

 Mulliken charges:
               1
     1  O   -0.491043
     2  H    0.243580
     3  H    0.247687
     4  O   -0.491009
     5  H    0.242876
     6  H    0.247908
 Sum of Mulliken charges =  -0.00000

 Dipole moment (field-independent basis, Debye):
    X=             -0.7346    Y=             -0.1588    Z=              0.0000  Tot=              0.7516
 Quadrupole moment (field-independent basis, Debye-Ang):
   XX=             -8.1407   YY=              2.4812   ZZ=            -14.7096
   XY=             -0.7946   XZ=              0.0000   YZ=              0.0000

 Normal termination of Gaussian 16 at Sat Aug 27 08:04:00 2022.
