 Gaussian 16, Revision A.03,
 Gaussian 16:  ES64L-G16RevA.03 25-Dec-2016

 ------------------
 #p CCSD(T)/cc-pVTZ
 ------------------

 ------------
 H2O_H2O_2942
 ------------
 Symbolic Z-matrix:
 Charge =  0 Multiplicity = 1

                         Standard orientation:
 ---------------------------------------------------------------------
 Center     Atomic      Atomic             Coordinates (Angstroms)
 Number     Number       Type             X           Y           Z
 ---------------------------------------------------------------------
      1          8           0        0.051283   -2.324726    0.000000
      2          1           0       -0.749356   -2.894361    0.000000
      3          1           0        0.849784   -2.897353    0.000000
      4          8           0        0.051283    2.388239    0.000000
      5          1           0       -0.105493    3.358253    0.000000
      6          1           0       -0.815459    1.925351    0.000000
 ---------------------------------------------------------------------

 SCF Done:  E(RHF) =  -152.107161281     A.U. after   10 cycles
 E2 =    -0.5259882320D+00 EUMP2 =    -0.15263314951329D+03
 CCSD(T)
 CCSD(T)= -0.15266036654D+03

 The electronic state is 1-A'.
 Alpha  occ. eigenvalues --  -20.55463 -20.54766  -1.32757  -1.32058  -0.70165
 Alpha  occ. eigenvalues --   -0.69447  -0.56188  -0.55489  -0.49866  -0.49171
 Alpha virt. eigenvalues --    0.13723   0.15227   0.20174   0.21181   0.54226
 Alpha virt. eigenvalues --    0.54957   0.57308   0.57911   0.66700   0.70865
 Alpha virt. eigenvalues --    0.79015   0.79696   0.80199   0.81108   0.82827

 Mulliken charges:
               1
     1  O   -0.506750
     2  H    0.250889
     3  H    0.256141
     4  O   -0.506569
     5  H    0.248715
     6  H    0.257573
 Sum of Mulliken charges =   0.00000

 Dipole moment (field-independent basis, Debye):
    X=             -1.7494    Y=             -1.1311    Z=              0.0000  Tot=              2.0832
 Quadrupole moment (field-independent basis, Debye-Ang):
   XX=             -9.4583   YY=              3.1243   ZZ=            -14.7123
   XY=             -3.5882   XZ=              0.0000   YZ=              0.0000

 Normal termination of Gaussian 16 at Fri Aug 26 17:40:10 2022.
