 Gaussian 16, Revision A.03,
 Gaussian 16:  ES64L-G16RevA.03 25-Dec-2016

 ------------------
 #p CCSD(T)/cc-pVTZ
 ------------------

 ------------
 H2O_H2O_1397
 ------------
 Symbolic Z-matrix:
 Charge =  0 Multiplicity = 1

                         Standard orientation:
 ---------------------------------------------------------------------
 Center     Atomic      Atomic             Coordinates (Angstroms)
 Number     Number       Type             X           Y           Z
 ---------------------------------------------------------------------
      1          8           0        0.056782   -1.481129    0.000000
      2          1           0       -0.744603   -2.049712    0.000000
      3          1           0        0.854531   -2.054804    0.000000
      4          8           0        0.056782    1.580085    0.000000
      5          1           0       -0.402334    2.448830    0.000000
      6          1           0       -0.616112    0.864041    0.000000
 ---------------------------------------------------------------------

 SCF Done:  E(RHF) =  -152.108769768     A.U. after   10 cycles
 E2 =    -0.5273266123D+00 EUMP2 =    -0.15263609637998D+03
 CCSD(T)
 CCSD(T)= -0.15266319062D+03

 The electronic state is 1-A'.
 Alpha  occ. eigenvalues --  -20.56361 -20.53321  -1.33674  -1.30635  -0.71074
 Alpha  occ. eigenvalues --   -0.68144  -0.57021  -0.54127  -0.50789  -0.47765
 Alpha virt. eigenvalues --    0.13080   0.17203   0.19642   0.25050   0.52518
 Alpha virt. eigenvalues --    0.55744   0.56755   0.58646   0.68493   0.75014
 Alpha virt. eigenvalues --    0.75687   0.77342   0.81236   0.81853   0.84200

 Mulliken charges:
               1
     1  O   -0.491256
     2  H    0.244112
     3  H    0.259163
     4  O   -0.511786
     5  H    0.236329
     6  H    0.263439
 Sum of Mulliken charges =  -0.00000

 Dipole moment (field-independent basis, Debye):
    X=             -1.8599    Y=             -1.9419    Z=              0.0000  Tot=              2.6889
 Quadrupole moment (field-independent basis, Debye-Ang):
   XX=             -9.8301   YY=             -3.3619   ZZ=            -14.7255
   XY=             -3.0429   XZ=              0.0000   YZ=              0.0000

 6525062\MP4DQ=-152.6448567\MP4SDQ=-152.647983\CCSD=-152.64736\CCSD(T)=
 Normal termination of Gaussian 16 at Sat Aug 27 04:30:07 2022.
