 Gaussian 16, Revision A.03,
 Gaussian 16:  ES64L-G16RevA.03 25-Dec-2016

 ------------------
 #p CCSD(T)/cc-pVTZ
 ------------------

 ------------
 H2O_H2O_4676
 ------------
 Symbolic Z-matrix:
 Charge =  0 Multiplicity = 1

                         Standard orientation:
 ---------------------------------------------------------------------
 Center     Atomic      Atomic             Coordinates (Angstroms)
 Number     Number       Type             X           Y           Z
 ---------------------------------------------------------------------
      1          8           0        0.003735   -3.289802    0.000000
      2          1           0       -0.795891   -3.860855    0.000000
      3          1           0        0.803251   -3.861012    0.000000
      4          8           0        0.003735    3.290045    0.000000
      5          1           0        0.764302    3.912175    0.000000
      6          1           0       -0.831427    3.807742    0.000000
 ---------------------------------------------------------------------

 SCF Done:  E(RHF) =  -152.106892054     A.U. after   10 cycles
 E2 =    -0.5259210750D+00 EUMP2 =    -0.15263281312947D+03
 CCSD(T)
 CCSD(T)= -0.15266004443D+03

 The electronic state is 1-A'.
 Alpha  occ. eigenvalues --  -20.55225 -20.55223  -1.32521  -1.32519  -0.69928
 Alpha  occ. eigenvalues --   -0.69926  -0.55944  -0.55943  -0.49628  -0.49627
 Alpha virt. eigenvalues --    0.14404   0.14417   0.20456   0.20462   0.54640
 Alpha virt. eigenvalues --    0.54643   0.57512   0.57516   0.68275   0.68298
 Alpha virt. eigenvalues --    0.79251   0.79252   0.80693   0.80695   0.82619

 Mulliken charges:
               1
     1  O   -0.505819
     2  H    0.252834
     3  H    0.252985
     4  O   -0.505818
     5  H    0.252803
     6  H    0.253015
 Sum of Mulliken charges =  -0.00000

 Dipole moment (field-independent basis, Debye):
    X=             -0.1284    Y=             -0.0042    Z=              0.0000  Tot=              0.1285
 Quadrupole moment (field-independent basis, Debye-Ang):
   XX=             -7.8105   YY=             14.2649   ZZ=            -14.7108
   XY=             -0.3053   XZ=              0.0000   YZ=              0.0000

 Normal termination of Gaussian 16 at Sat Aug 27 08:41:49 2022.
