 Gaussian 16, Revision A.03,
 Gaussian 16:  ES64L-G16RevA.03 25-Dec-2016

 ------------------
 #p CCSD(T)/cc-pVTZ
 ------------------

 ----------
 H2O_H2O_34
 ----------
 Symbolic Z-matrix:
 Charge =  0 Multiplicity = 1

                         Standard orientation:
 ---------------------------------------------------------------------
 Center     Atomic      Atomic             Coordinates (Angstroms)
 Number     Number       Type             X           Y           Z
 ---------------------------------------------------------------------
      1          8           0        0.031762   -0.806552    0.000000
      2          1           0       -0.769716   -1.375004    0.000000
      3          1           0        0.829417   -1.380357    0.000000
      4          8           0        0.031762    0.825590    0.000000
      5          1           0        0.382352    1.743518    0.000000
      6          1           0       -0.950252    0.859538    0.000000
 ---------------------------------------------------------------------

 SCF Done:  E(RHF) =  -151.930645412     A.U. after   12 cycles
 E2 =    -0.5503267786D+00 EUMP2 =    -0.15248097219073D+03
 CCSD(T)
 CCSD(T)= -0.15250557338D+03

 The electronic state is 1-A'.
 Alpha  occ. eigenvalues --  -20.52135 -20.51546  -1.37511  -1.26779  -0.72849
 Alpha  occ. eigenvalues --   -0.69453  -0.62261  -0.53325  -0.43252  -0.34624
 Alpha virt. eigenvalues --    0.14140   0.19210   0.19874   0.23489   0.53441
 Alpha virt. eigenvalues --    0.55690   0.58771   0.65641   0.71735   0.78203
 Alpha virt. eigenvalues --    0.79727   0.82791   0.82966   0.84615   0.88933

 Mulliken charges:
               1
     1  O   -0.344073
     2  H    0.161085
     3  H    0.186079
     4  O   -0.328485
     5  H    0.102178
     6  H    0.223214
 Sum of Mulliken charges =  -0.00000

 Dipole moment (field-independent basis, Debye):
    X=             -0.8733    Y=             -0.4952    Z=              0.0000  Tot=              1.0039
 Quadrupole moment (field-independent basis, Debye-Ang):
   XX=             -8.9128   YY=             -9.0739   ZZ=            -14.7086
   XY=             -0.4523   XZ=              0.0000   YZ=              0.0000

 30025\MP4DQ=-152.4841215\MP4SDQ=-152.488421\CCSD=-152.4870805\CCSD(T)=
 Normal termination of Gaussian 16 at Fri Aug 26 12:07:52 2022.
