 Gaussian 16, Revision A.03,
 Gaussian 16:  ES64L-G16RevA.03 25-Dec-2016

 ------------------
 #p CCSD(T)/cc-pVTZ
 ------------------

 ------------
 H2O_H2O_4884
 ------------
 Symbolic Z-matrix:
 Charge =  0 Multiplicity = 1

                         Standard orientation:
 ---------------------------------------------------------------------
 Center     Atomic      Atomic             Coordinates (Angstroms)
 Number     Number       Type             X           Y           Z
 ---------------------------------------------------------------------
      1          8           0        0.031738   -3.385874    0.000000
      2          1           0       -0.768292   -3.956362    0.000000
      3          1           0        0.830849   -3.957649    0.000000
      4          8           0        0.031738    3.405073    0.000000
      5          1           0        0.379992    4.323891    0.000000
      6          1           0       -0.950360    3.436524    0.000000
 ---------------------------------------------------------------------

 SCF Done:  E(RHF) =  -152.107064247     A.U. after   10 cycles
 E2 =    -0.5259046455D+00 EUMP2 =    -0.15263296889259D+03
 CCSD(T)
 CCSD(T)= -0.15266019663D+03

 The electronic state is 1-A'.
 Alpha  occ. eigenvalues --  -20.55339 -20.55244  -1.32636  -1.32540  -0.70043
 Alpha  occ. eigenvalues --   -0.69945  -0.56068  -0.55972  -0.49745  -0.49649
 Alpha virt. eigenvalues --    0.14309   0.14405   0.20366   0.20466   0.54524
 Alpha virt. eigenvalues --    0.54626   0.57411   0.57507   0.68148   0.68245
 Alpha virt. eigenvalues --    0.79134   0.79229   0.80573   0.80676   0.82498

 Mulliken charges:
               1
     1  O   -0.506840
     2  H    0.252835
     3  H    0.254004
     4  O   -0.506768
     5  H    0.252496
     6  H    0.254272
 Sum of Mulliken charges =  -0.00000

 Dipole moment (field-independent basis, Debye):
    X=             -1.0916    Y=             -0.3345    Z=              0.0000  Tot=              1.1417
 Quadrupole moment (field-independent basis, Debye-Ang):
   XX=             -8.4356   YY=             13.4534   ZZ=            -14.7111
   XY=             -2.8984   XZ=              0.0000   YZ=              0.0000

 Normal termination of Gaussian 16 at Sat Aug 27 09:52:54 2022.
