 Gaussian 16, Revision A.03,
 Gaussian 16:  ES64L-G16RevA.03 25-Dec-2016

 ------------------
 #p CCSD(T)/cc-pVTZ
 ------------------

 ------------
 H2O_H2O_3241
 ------------
 Symbolic Z-matrix:
 Charge =  0 Multiplicity = 1

                         Standard orientation:
 ---------------------------------------------------------------------
 Center     Atomic      Atomic             Coordinates (Angstroms)
 Number     Number       Type             X           Y           Z
 ---------------------------------------------------------------------
      1          8           0        0.049510   -2.487844    0.000000
      2          1           0       -0.751027   -3.057622    0.000000
      3          1           0        0.848113   -3.060328    0.000000
      4          8           0        0.049510    2.544789    0.000000
      5          1           0       -0.043664    3.522964    0.000000
      6          1           0       -0.845578    2.139421    0.000000
 ---------------------------------------------------------------------

 SCF Done:  E(RHF) =  -152.107079520     A.U. after   10 cycles
 E2 =    -0.5259547885D+00 EUMP2 =    -0.15263303430858D+03
 CCSD(T)
 CCSD(T)= -0.15266025752D+03

 The electronic state is 1-A'.
 Alpha  occ. eigenvalues --  -20.55417 -20.54881  -1.32713  -1.32174  -0.70121
 Alpha  occ. eigenvalues --   -0.69568  -0.56144  -0.55604  -0.49822  -0.49286
 Alpha virt. eigenvalues --    0.13954   0.14975   0.20236   0.20950   0.54369
 Alpha virt. eigenvalues --    0.54971   0.57334   0.57831   0.67265   0.69679
 Alpha virt. eigenvalues --    0.79059   0.79583   0.80409   0.80947   0.82754

 Mulliken charges:
               1
     1  O   -0.506834
     2  H    0.251330
     3  H    0.255587
     4  O   -0.506393
     5  H    0.249617
     6  H    0.256693
 Sum of Mulliken charges =  -0.00000

 Dipole moment (field-independent basis, Debye):
    X=             -1.6930    Y=             -1.0071    Z=              0.0000  Tot=              1.9699
 Quadrupole moment (field-independent basis, Debye-Ang):
   XX=             -9.3461   YY=              4.5289   ZZ=            -14.7118
   XY=             -3.6293   XZ=              0.0000   YZ=              0.0000

 Normal termination of Gaussian 16 at Fri Aug 26 20:39:00 2022.
