 Gaussian 16, Revision A.03,
 Gaussian 16:  ES64L-G16RevA.03 25-Dec-2016

 ------------------
 #p CCSD(T)/cc-pVTZ
 ------------------

 ------------
 H2O_H2O_1023
 ------------
 Symbolic Z-matrix:
 Charge =  0 Multiplicity = 1

                         Standard orientation:
 ---------------------------------------------------------------------
 Center     Atomic      Atomic             Coordinates (Angstroms)
 Number     Number       Type             X           Y           Z
 ---------------------------------------------------------------------
      1          8           0        0.057187   -1.277682    0.000000
      2          1           0       -0.744484   -1.845863    0.000000
      3          1           0        0.854647   -1.851758    0.000000
      4          8           0        0.057187    1.384017    0.000000
      5          1           0       -0.457345    2.221132    0.000000
      6          1           0       -0.567816    0.625810    0.000000
 ---------------------------------------------------------------------

 SCF Done:  E(RHF) =  -152.105931717     A.U. after   10 cycles
 E2 =    -0.5290716194D+00 EUMP2 =    -0.15263500333689D+03
 CCSD(T)
 CCSD(T)= -0.15266197496D+03

 The electronic state is 1-A'.
 Alpha  occ. eigenvalues --  -20.56819 -20.52308  -1.34393  -1.29738  -0.71744
 Alpha  occ. eigenvalues --   -0.68078  -0.56962  -0.53288  -0.51449  -0.46836
 Alpha virt. eigenvalues --    0.12959   0.17949   0.19407   0.26436   0.50968
 Alpha virt. eigenvalues --    0.56123   0.58852   0.60360   0.70809   0.73740
 Alpha virt. eigenvalues --    0.74693   0.80336   0.82612   0.83707   0.86237

 Mulliken charges:
               1
     1  O   -0.475861
     2  H    0.240257
     3  H    0.257128
     4  O   -0.517736
     5  H    0.227518
     6  H    0.268695
 Sum of Mulliken charges =  -0.00000

 Dipole moment (field-independent basis, Debye):
    X=             -1.8225    Y=             -2.2129    Z=              0.0000  Tot=              2.8668
 Quadrupole moment (field-independent basis, Debye-Ang):
   XX=             -9.8510   YY=             -4.7911   ZZ=            -14.7235
   XY=             -2.8247   XZ=              0.0000   YZ=              0.0000

 Normal termination of Gaussian 16 at Sat Aug 27 01:28:00 2022.
