 Gaussian 16, Revision A.03,
 Gaussian 16:  ES64L-G16RevA.03 25-Dec-2016

 ------------------
 #p CCSD(T)/cc-pVTZ
 ------------------

 ------------
 H2O_H2O_2301
 ------------
 Symbolic Z-matrix:
 Charge =  0 Multiplicity = 1

                         Standard orientation:
 ---------------------------------------------------------------------
 Center     Atomic      Atomic             Coordinates (Angstroms)
 Number     Number       Type             X           Y           Z
 ---------------------------------------------------------------------
      1          8           0        0.003735   -2.026690    0.000000
      2          1           0       -0.795926   -2.597696    0.000000
      3          1           0        0.803216   -2.597949    0.000000
      4          8           0        0.003735    2.026934    0.000000
      5          1           0        0.764340    2.649017    0.000000
      6          1           0       -0.831396    2.544681    0.000000
 ---------------------------------------------------------------------

 SCF Done:  E(RHF) =  -152.105178383     A.U. after   10 cycles
 E2 =    -0.5262663856D+00 EUMP2 =    -0.15263144476874D+03
 CCSD(T)
 CCSD(T)= -0.15265869484D+03

 The electronic state is 1-A'.
 Alpha  occ. eigenvalues --  -20.54588 -20.54584  -1.31877  -1.31864  -0.69294
 Alpha  occ. eigenvalues --   -0.69280  -0.55358  -0.55028  -0.48988  -0.48947
 Alpha virt. eigenvalues --    0.14235   0.15557   0.20638   0.21079   0.54458
 Alpha virt. eigenvalues --    0.56112   0.57889   0.58131   0.62654   0.74399
 Alpha virt. eigenvalues --    0.79563   0.80228   0.80938   0.81365   0.81825

 Mulliken charges:
               1
     1  O   -0.494701
     2  H    0.247066
     3  H    0.247638
     4  O   -0.494693
     5  H    0.247004
     6  H    0.247686
 Sum of Mulliken charges =  -0.00000

 Dipole moment (field-independent basis, Debye):
    X=             -0.1263    Y=             -0.0044    Z=              0.0000  Tot=              0.1264
 Quadrupole moment (field-independent basis, Debye-Ang):
   XX=             -7.8431   YY=              4.0679   ZZ=            -14.7093
   XY=             -0.1459   XZ=              0.0000   YZ=              0.0000

 Normal termination of Gaussian 16 at Sat Aug 27 09:44:47 2022.
