 Gaussian 16, Revision A.03,
 Gaussian 16:  ES64L-G16RevA.03 25-Dec-2016

 ------------------
 #p CCSD(T)/cc-pVTZ
 ------------------

 ------------
 H2O_H2O_4713
 ------------
 Symbolic Z-matrix:
 Charge =  0 Multiplicity = 1

                         Standard orientation:
 ---------------------------------------------------------------------
 Center     Atomic      Atomic             Coordinates (Angstroms)
 Number     Number       Type             X           Y           Z
 ---------------------------------------------------------------------
      1          8           0        0.042962   -3.282149    0.000000
      2          1           0       -0.757248   -3.852386    0.000000
      3          1           0        0.841893   -3.854176    0.000000
      4          8           0        0.042962    3.320965    0.000000
      5          1           0        0.141850    4.298578    0.000000
      6          1           0       -0.913883    3.097460    0.000000
 ---------------------------------------------------------------------

 SCF Done:  E(RHF) =  -152.107162286     A.U. after   10 cycles
 E2 =    -0.5258980781D+00 EUMP2 =    -0.15263306036393D+03
 CCSD(T)
 CCSD(T)= -0.15266028588D+03

 The electronic state is 1-A'.
 Alpha  occ. eigenvalues --  -20.55417 -20.55212  -1.32715  -1.32509  -0.70122
 Alpha  occ. eigenvalues --   -0.69912  -0.56151  -0.55945  -0.49825  -0.49619
 Alpha virt. eigenvalues --    0.14238   0.14445   0.20301   0.20516   0.54443
 Alpha virt. eigenvalues --    0.54662   0.57340   0.57546   0.68056   0.68268
 Alpha virt. eigenvalues --    0.79055   0.79258   0.80491   0.80712   0.82416

 Mulliken charges:
               1
     1  O   -0.507426
     2  H    0.252861
     3  H    0.254565
     4  O   -0.507287
     5  H    0.252261
     6  H    0.255026
 Sum of Mulliken charges =  -0.00000

 Dipole moment (field-independent basis, Debye):
    X=             -1.4773    Y=             -0.6769    Z=              0.0000  Tot=              1.6250
 Quadrupole moment (field-independent basis, Debye-Ang):
   XX=             -8.9643   YY=             10.9997   ZZ=            -14.7114
   XY=             -4.0516   XZ=              0.0000   YZ=              0.0000

 Normal termination of Gaussian 16 at Sat Aug 27 08:54:13 2022.
