 Gaussian 16, Revision A.03,
 Gaussian 16:  ES64L-G16RevA.03 25-Dec-2016

 ------------------
 #p CCSD(T)/cc-pVTZ
 ------------------

 ------------
 H2O_H2O_1589
 ------------
 Symbolic Z-matrix:
 Charge =  0 Multiplicity = 1

                         Standard orientation:
 ---------------------------------------------------------------------
 Center     Atomic      Atomic             Coordinates (Angstroms)
 Number     Number       Type             X           Y           Z
 ---------------------------------------------------------------------
      1          8           0        0.045364   -1.617085    0.000000
      2          1           0       -0.755564   -2.186313    0.000000
      3          1           0        0.843574   -2.190118    0.000000
      4          8           0        0.045364    1.661559    0.000000
      5          1           0        0.081339    2.643502    0.000000
      6          1           0       -0.895173    1.377137    0.000000
 ---------------------------------------------------------------------

 SCF Done:  E(RHF) =  -152.105512940     A.U. after   10 cycles
 E2 =    -0.5268758446D+00 EUMP2 =    -0.15263238878477D+03
 CCSD(T)
 CCSD(T)= -0.15265959289D+03

 The electronic state is 1-A'.
 Alpha  occ. eigenvalues --  -20.55018 -20.53978  -1.32302  -1.31235  -0.69725
 Alpha  occ. eigenvalues --   -0.68625  -0.55806  -0.54377  -0.49415  -0.48337
 Alpha virt. eigenvalues --    0.13751   0.16517   0.20197   0.22443   0.53775
 Alpha virt. eigenvalues --    0.55534   0.57654   0.58592   0.64788   0.76659
 Alpha virt. eigenvalues --    0.77992   0.78410   0.78870   0.81635   0.85241

 Mulliken charges:
               1
     1  O   -0.487374
     2  H    0.239442
     3  H    0.250655
     4  O   -0.490032
     5  H    0.235469
     6  H    0.251842
 Sum of Mulliken charges =  -0.00000

 Dipole moment (field-independent basis, Debye):
    X=             -1.4993    Y=             -0.8379    Z=              0.0000  Tot=              1.7175
 Quadrupole moment (field-independent basis, Debye-Ang):
   XX=             -9.1295   YY=             -0.4393   ZZ=            -14.7143
   XY=             -1.8141   XZ=              0.0000   YZ=              0.0000

 Normal termination of Gaussian 16 at Sat Aug 27 05:38:22 2022.
