 Gaussian 16, Revision A.03,
 Gaussian 16:  ES64L-G16RevA.03 25-Dec-2016

 ------------------
 #p CCSD(T)/cc-pVTZ
 ------------------

 -----------
 H2O_H2O_178
 -----------
 Symbolic Z-matrix:
 Charge =  0 Multiplicity = 1

                         Standard orientation:
 ---------------------------------------------------------------------
 Center     Atomic      Atomic             Coordinates (Angstroms)
 Number     Number       Type             X           Y           Z
 ---------------------------------------------------------------------
      1          8           0        0.011143   -0.895491    0.000000
      2          1           0       -0.789038   -1.465767    0.000000
      3          1           0        0.810103   -1.467478    0.000000
      4          8           0        0.011143    0.897662    0.000000
      5          1           0        0.684694    1.613088    0.000000
      6          1           0       -0.884054    1.302789    0.000000
 ---------------------------------------------------------------------

 SCF Done:  E(RHF) =  -151.996474177     A.U. after   11 cycles
 E2 =    -0.5420904255D+00 EUMP2 =    -0.15253856460241D+03
 CCSD(T)
 CCSD(T)= -0.15256449168D+03

 The electronic state is 1-A'.
 Alpha  occ. eigenvalues --  -20.51310 -20.51247  -1.33780  -1.27526  -0.69469
 Alpha  occ. eigenvalues --   -0.66231  -0.64047  -0.50613  -0.43812  -0.38357
 Alpha virt. eigenvalues --    0.14617   0.19048   0.20182   0.23042   0.50732
 Alpha virt. eigenvalues --    0.58929   0.59184   0.66913   0.68497   0.79021
 Alpha virt. eigenvalues --    0.80140   0.83800   0.84279   0.86366   0.87784

 Mulliken charges:
               1
     1  O   -0.394257
     2  H    0.192248
     3  H    0.201770
     4  O   -0.386983
     5  H    0.175900
     6  H    0.211323
 Sum of Mulliken charges =  -0.00000

 Dipole moment (field-independent basis, Debye):
    X=             -0.3179    Y=             -0.0528    Z=              0.0000  Tot=              0.3223
 Quadrupole moment (field-independent basis, Debye-Ang):
   XX=             -8.3759   YY=             -7.4009   ZZ=            -14.7569
   XY=             -0.1178   XZ=              0.0000   YZ=              0.0000

 Normal termination of Gaussian 16 at Fri Aug 26 13:40:34 2022.
