 Gaussian 16, Revision A.03,
 Gaussian 16:  ES64L-G16RevA.03 25-Dec-2016

 ------------------
 #p CCSD(T)/cc-pVTZ
 ------------------

 ------------
 H2O_H2O_2199
 ------------
 Symbolic Z-matrix:
 Charge =  0 Multiplicity = 1

                         Standard orientation:
 ---------------------------------------------------------------------
 Center     Atomic      Atomic             Coordinates (Angstroms)
 Number     Number       Type             X           Y           Z
 ---------------------------------------------------------------------
      1          8           0        0.057257   -1.898463    0.000000
      2          1           0       -0.743748   -2.467583    0.000000
      3          1           0        0.855389   -2.471604    0.000000
      4          8           0        0.057257    2.012402    0.000000
      5          1           0       -0.511863    2.813407    0.000000
      6          1           0       -0.515884    1.214269    0.000000
 ---------------------------------------------------------------------

 SCF Done:  E(RHF) =  -152.109169758     A.U. after   10 cycles
 E2 =    -0.5262085707D+00 EUMP2 =    -0.15263537832908D+03
 CCSD(T)
 CCSD(T)= -0.15266252025D+03

 The electronic state is 1-A'.
 Alpha  occ. eigenvalues --  -20.56247 -20.54202  -1.33514  -1.31509  -0.70918
 Alpha  occ. eigenvalues --   -0.68877  -0.57011  -0.54985  -0.50639  -0.48640
 Alpha virt. eigenvalues --    0.12874   0.16212   0.19728   0.23434   0.53568
 Alpha virt. eigenvalues --    0.55384   0.56671   0.58542   0.66859   0.73169
 Alpha virt. eigenvalues --    0.78064   0.79321   0.80270   0.80290   0.83029

 Mulliken charges:
               1
     1  O   -0.505278
     2  H    0.250943
     3  H    0.259010
     4  O   -0.515387
     5  H    0.246470
     6  H    0.264242
 Sum of Mulliken charges =  -0.00000

 Dipole moment (field-independent basis, Debye):
    X=             -1.9332    Y=             -2.1074    Z=              0.0000  Tot=              2.8598
 Quadrupole moment (field-independent basis, Debye-Ang):
   XX=             -9.8604   YY=             -2.2894   ZZ=            -14.7189
   XY=             -4.1388   XZ=              0.0000   YZ=              0.0000

 Normal termination of Gaussian 16 at Sat Aug 27 09:10:16 2022.
