 Gaussian 16, Revision A.03,
 Gaussian 16:  ES64L-G16RevA.03 25-Dec-2016

 ------------------
 #p CCSD(T)/cc-pVTZ
 ------------------

 ------------
 H2O_H2O_1242
 ------------
 Symbolic Z-matrix:
 Charge =  0 Multiplicity = 1

                         Standard orientation:
 ---------------------------------------------------------------------
 Center     Atomic      Atomic             Coordinates (Angstroms)
 Number     Number       Type             X           Y           Z
 ---------------------------------------------------------------------
      1          8           0        0.051320   -1.420666    0.000000
      2          1           0       -0.749982   -1.989368    0.000000
      3          1           0        0.849153   -1.994223    0.000000
      4          8           0        0.051320    1.484060    0.000000
      5          1           0       -0.104326    2.454256    0.000000
      6          1           0       -0.815961    1.022182    0.000000
 ---------------------------------------------------------------------

 SCF Done:  E(RHF) =  -152.105191564     A.U. after   10 cycles
 E2 =    -0.5276374121D+00 EUMP2 =    -0.15263282897617D+03
 CCSD(T)
 CCSD(T)= -0.15265999904D+03

 The electronic state is 1-A'.
 Alpha  occ. eigenvalues --  -20.55365 -20.53446  -1.32713  -1.30702  -0.70133
 Alpha  occ. eigenvalues --   -0.68181  -0.56159  -0.53844  -0.49833  -0.47795
 Alpha virt. eigenvalues --    0.13600   0.17076   0.19967   0.23535   0.53728
 Alpha virt. eigenvalues --    0.56828   0.57349   0.58361   0.68532   0.75530
 Alpha virt. eigenvalues --    0.76216   0.77142   0.80641   0.82422   0.84926

 Mulliken charges:
               1
     1  O   -0.482170
     2  H    0.236719
     3  H    0.252514
     4  O   -0.488985
     5  H    0.228764
     6  H    0.253159
 Sum of Mulliken charges =  -0.00000

 Dipole moment (field-independent basis, Debye):
    X=             -1.6614    Y=             -1.2311    Z=              0.0000  Tot=              2.0678
 Quadrupole moment (field-independent basis, Debye-Ang):
   XX=             -9.4938   YY=             -2.3740   ZZ=            -14.7211
   XY=             -2.0449   XZ=              0.0000   YZ=              0.0000

 Normal termination of Gaussian 16 at Sat Aug 27 03:17:29 2022.
