 Gaussian 16, Revision A.03,
 Gaussian 16:  ES64L-G16RevA.03 25-Dec-2016

 ------------------
 #p CCSD(T)/cc-pVTZ
 ------------------

 ------------
 H2O_H2O_1597
 ------------
 Symbolic Z-matrix:
 Charge =  0 Multiplicity = 1

                         Standard orientation:
 ---------------------------------------------------------------------
 Center     Atomic      Atomic             Coordinates (Angstroms)
 Number     Number       Type             X           Y           Z
 ---------------------------------------------------------------------
      1          8           0        0.056772   -1.587484    0.000000
      2          1           0       -0.744496   -2.156233    0.000000
      3          1           0        0.854639   -2.160995    0.000000
      4          8           0        0.056772    1.686463    0.000000
      5          1           0       -0.402524    2.555113    0.000000
      6          1           0       -0.615974    0.970280    0.000000
 ---------------------------------------------------------------------

 SCF Done:  E(RHF) =  -152.109002279     A.U. after   10 cycles
 E2 =    -0.5268712205D+00 EUMP2 =    -0.15263587349961D+03
 CCSD(T)
 CCSD(T)= -0.15266298818D+03

 The electronic state is 1-A'.
 Alpha  occ. eigenvalues --  -20.56263 -20.53630  -1.33542  -1.30933  -0.70946
 Alpha  occ. eigenvalues --   -0.68345  -0.56973  -0.54413  -0.50662  -0.48066
 Alpha virt. eigenvalues --    0.13068   0.16904   0.19693   0.24594   0.52946
 Alpha virt. eigenvalues --    0.55438   0.56719   0.58224   0.67338   0.75606
 Alpha virt. eigenvalues --    0.76532   0.76672   0.80022   0.81386   0.84285

 Mulliken charges:
               1
     1  O   -0.494761
     2  H    0.245545
     3  H    0.258559
     4  O   -0.512223
     5  H    0.239671
     6  H    0.263209
 Sum of Mulliken charges =  -0.00000

 Dipole moment (field-independent basis, Debye):
    X=             -1.8791    Y=             -1.9052    Z=              0.0000  Tot=              2.6759
 Quadrupole moment (field-independent basis, Debye-Ang):
   XX=             -9.8284   YY=             -2.8198   ZZ=            -14.7229
   XY=             -3.2399   XZ=              0.0000   YZ=              0.0000

 Normal termination of Gaussian 16 at Sat Aug 27 05:41:07 2022.
