 Gaussian 16, Revision A.03,
 Gaussian 16:  ES64L-G16RevA.03 25-Dec-2016

 ------------------
 #p CCSD(T)/cc-pVTZ
 ------------------

 ------------
 H2O_H2O_1019
 ------------
 Symbolic Z-matrix:
 Charge =  0 Multiplicity = 1

                         Standard orientation:
 ---------------------------------------------------------------------
 Center     Atomic      Atomic             Coordinates (Angstroms)
 Number     Number       Type             X           Y           Z
 ---------------------------------------------------------------------
      1          8           0        0.054217   -1.293542    0.000000
      2          1           0       -0.747345   -1.861876    0.000000
      3          1           0        0.851787   -1.867465    0.000000
      4          8           0        0.054217    1.370673    0.000000
      5          1           0       -0.226302    2.312382    0.000000
      6          1           0       -0.745618    0.799910    0.000000
 ---------------------------------------------------------------------

 SCF Done:  E(RHF) =  -152.103618582     A.U. after   10 cycles
 E2 =    -0.5286442038D+00 EUMP2 =    -0.15263226278622D+03
 CCSD(T)
 CCSD(T)= -0.15265937148D+03

 The electronic state is 1-A'.
 Alpha  occ. eigenvalues --  -20.55724 -20.52890  -1.33231  -1.30180  -0.70634
 Alpha  occ. eigenvalues --   -0.68002  -0.56276  -0.53427  -0.50333  -0.47254
 Alpha virt. eigenvalues --    0.13423   0.17554   0.19793   0.24467   0.52507
 Alpha virt. eigenvalues --    0.56974   0.58442   0.59291   0.70711   0.74766
 Alpha virt. eigenvalues --    0.75932   0.80647   0.82365   0.82700   0.84533

 Mulliken charges:
               1
     1  O   -0.476594
     2  H    0.235401
     3  H    0.253256
     4  O   -0.491751
     5  H    0.223244
     6  H    0.256444
 Sum of Mulliken charges =  -0.00000

 Dipole moment (field-independent basis, Debye):
    X=             -1.7234    Y=             -1.5435    Z=              0.0000  Tot=              2.3136
 Quadrupole moment (field-independent basis, Debye-Ang):
   XX=             -9.6803   YY=             -3.6490   ZZ=            -14.7247
   XY=             -2.1850   XZ=              0.0000   YZ=              0.0000

 Normal termination of Gaussian 16 at Sat Aug 27 01:25:44 2022.
