 Gaussian 16, Revision A.03,
 Gaussian 16:  ES64L-G16RevA.03 25-Dec-2016

 ------------------
 #p CCSD(T)/cc-pVTZ
 ------------------

 ------------
 H2O_H2O_1160
 ------------
 Symbolic Z-matrix:
 Charge =  0 Multiplicity = 1

                         Standard orientation:
 ---------------------------------------------------------------------
 Center     Atomic      Atomic             Coordinates (Angstroms)
 Number     Number       Type             X           Y           Z
 ---------------------------------------------------------------------
      1          8           0        0.034793   -1.402469    0.000000
      2          1           0       -0.765985   -1.971908    0.000000
      3          1           0        0.833154   -1.975292    0.000000
      4          8           0        0.034793    1.425927    0.000000
      5          1           0        0.323442    2.365175    0.000000
      6          1           0       -0.947302    1.394366    0.000000
 ---------------------------------------------------------------------

 SCF Done:  E(RHF) =  -152.101338350     A.U. after   11 cycles
 E2 =    -0.5278285997D+00 EUMP2 =    -0.15262916694928D+03
 CCSD(T)
 CCSD(T)= -0.15265642750D+03

 The electronic state is 1-A'.
 Alpha  occ. eigenvalues --  -20.54218 -20.53571  -1.31613  -1.30814  -0.69028
 Alpha  occ. eigenvalues --   -0.68269  -0.55960  -0.52793  -0.48790  -0.47802
 Alpha virt. eigenvalues --    0.14139   0.16938   0.20378   0.22467   0.52808
 Alpha virt. eigenvalues --    0.58173   0.58444   0.59489   0.68316   0.76454
 Alpha virt. eigenvalues --    0.76926   0.77471   0.81036   0.83040   0.85798

 Mulliken charges:
               1
     1  O   -0.475106
     2  H    0.231850
     3  H    0.244027
     4  O   -0.468082
     5  H    0.225491
     6  H    0.241821
 Sum of Mulliken charges =  -0.00000

 Dipole moment (field-independent basis, Debye):
    X=             -1.1217    Y=             -0.4489    Z=              0.0000  Tot=              1.2082
 Quadrupole moment (field-independent basis, Debye-Ang):
   XX=             -8.6532   YY=             -1.6058   ZZ=            -14.7159
   XY=             -0.9098   XZ=              0.0000   YZ=              0.0000

 Normal termination of Gaussian 16 at Sat Aug 27 02:37:12 2022.
