 Gaussian 16, Revision A.03,
 Gaussian 16:  ES64L-G16RevA.03 25-Dec-2016

 ------------------
 #p CCSD(T)/cc-pVTZ
 ------------------

 -----------
 H2O_H2O_129
 -----------
 Symbolic Z-matrix:
 Charge =  0 Multiplicity = 1

                         Standard orientation:
 ---------------------------------------------------------------------
 Center     Atomic      Atomic             Coordinates (Angstroms)
 Number     Number       Type             X           Y           Z
 ---------------------------------------------------------------------
      1          8           0        0.014785   -0.867987    0.000000
      2          1           0       -0.785621   -1.437949    0.000000
      3          1           0        0.813520   -1.440288    0.000000
      4          8           0        0.014785    0.871836    0.000000
      5          1           0        0.640401    1.629537    0.000000
      6          1           0       -0.904857    1.217909    0.000000
 ---------------------------------------------------------------------

 SCF Done:  E(RHF) =  -151.976774575     A.U. after   11 cycles
 E2 =    -0.5445986821D+00 EUMP2 =    -0.15252137325673D+03
 CCSD(T)
 CCSD(T)= -0.15254691227D+03

 The electronic state is 1-A'.
 Alpha  occ. eigenvalues --  -20.51338 -20.51227  -1.34629  -1.27290  -0.70043
 Alpha  occ. eigenvalues --   -0.66880  -0.64228  -0.51261  -0.43569  -0.36835
 Alpha virt. eigenvalues --    0.14545   0.19207   0.20055   0.23125   0.51084
 Alpha virt. eigenvalues --    0.58519   0.59137   0.66552   0.68730   0.79076
 Alpha virt. eigenvalues --    0.80187   0.83807   0.84078   0.86134   0.88003

 Mulliken charges:
               1
     1  O   -0.382495
     2  H    0.184434
     3  H    0.197951
     4  O   -0.370756
     5  H    0.159442
     6  H    0.211424
 Sum of Mulliken charges =  -0.00000

 Dipole moment (field-independent basis, Debye):
    X=             -0.4200    Y=             -0.0976    Z=              0.0000  Tot=              0.4312
 Quadrupole moment (field-independent basis, Debye-Ang):
   XX=             -8.4743   YY=             -7.9090   ZZ=            -14.7550
   XY=             -0.1737   XZ=              0.0000   YZ=              0.0000

 Normal termination of Gaussian 16 at Fri Aug 26 13:05:10 2022.
