 Gaussian 16, Revision A.03,
 Gaussian 16:  ES64L-G16RevA.03 25-Dec-2016

 ------------------
 #p CCSD(T)/cc-pVTZ
 ------------------

 ------------
 H2O_H2O_1345
 ------------
 Symbolic Z-matrix:
 Charge =  0 Multiplicity = 1

                         Standard orientation:
 ---------------------------------------------------------------------
 Center     Atomic      Atomic             Coordinates (Angstroms)
 Number     Number       Type             X           Y           Z
 ---------------------------------------------------------------------
      1          8           0        0.055300   -1.462489    0.000000
      2          1           0       -0.746069   -2.031094    0.000000
      3          1           0        0.853065   -2.036141    0.000000
      4          8           0        0.055300    1.546802    0.000000
      5          1           0       -0.286521    2.468033    0.000000
      6          1           0       -0.705282    0.924693    0.000000
 ---------------------------------------------------------------------

 SCF Done:  E(RHF) =  -152.107415300     A.U. after   10 cycles
 E2 =    -0.5274098141D+00 EUMP2 =    -0.15263482511385D+03
 CCSD(T)
 CCSD(T)= -0.15266194976D+03

 The electronic state is 1-A'.
 Alpha  occ. eigenvalues --  -20.55964 -20.53399  -1.33287  -1.30685  -0.70697
 Alpha  occ. eigenvalues --   -0.68172  -0.56605  -0.54114  -0.50401  -0.47804
 Alpha virt. eigenvalues --    0.13294   0.17134   0.19775   0.24299   0.53171
 Alpha virt. eigenvalues --    0.55900   0.56961   0.58569   0.68359   0.75231
 Alpha virt. eigenvalues --    0.75972   0.77358   0.80569   0.82033   0.84489

 Mulliken charges:
               1
     1  O   -0.487698
     2  H    0.241037
     3  H    0.256636
     4  O   -0.502993
     5  H    0.233647
     6  H    0.259371
 Sum of Mulliken charges =  -0.00000

 Dipole moment (field-independent basis, Debye):
    X=             -1.8039    Y=             -1.6461    Z=              0.0000  Tot=              2.4420
 Quadrupole moment (field-independent basis, Debye-Ang):
   XX=             -9.7368   YY=             -2.8406   ZZ=            -14.7235
   XY=             -2.6623   XZ=              0.0000   YZ=              0.0000

 Normal termination of Gaussian 16 at Sat Aug 27 04:07:11 2022.
