 Gaussian 16, Revision A.03,
 Gaussian 16:  ES64L-G16RevA.03 25-Dec-2016

 ------------------
 #p CCSD(T)/cc-pVTZ
 ------------------

 ------------
 H2O_H2O_3535
 ------------
 Symbolic Z-matrix:
 Charge =  0 Multiplicity = 1

                         Standard orientation:
 ---------------------------------------------------------------------
 Center     Atomic      Atomic             Coordinates (Angstroms)
 Number     Number       Type             X           Y           Z
 ---------------------------------------------------------------------
      1          8           0        0.034781   -2.665544    0.000000
      2          1           0       -0.765428   -3.235782    0.000000
      3          1           0        0.833713   -3.237570    0.000000
      4          8           0        0.034781    2.689071    0.000000
      5          1           0        0.322492    3.628608    0.000000
      6          1           0       -0.947282    2.656531    0.000000
 ---------------------------------------------------------------------

 SCF Done:  E(RHF) =  -152.106688843     A.U. after   10 cycles
 E2 =    -0.5259634742D+00 EUMP2 =    -0.15263265231748D+03
 CCSD(T)
 CCSD(T)= -0.15265988644D+03

 The electronic state is 1-A'.
 Alpha  occ. eigenvalues --  -20.55186 -20.54995  -1.32481  -1.32289  -0.69890
 Alpha  occ. eigenvalues --   -0.69692  -0.55895  -0.55703  -0.49588  -0.49396
 Alpha virt. eigenvalues --    0.14330   0.14713   0.20442   0.20696   0.54657
 Alpha virt. eigenvalues --    0.54902   0.57531   0.57730   0.67938   0.68981
 Alpha virt. eigenvalues --    0.79291   0.79479   0.80729   0.80947   0.82693

 Mulliken charges:
               1
     1  O   -0.504657
     2  H    0.251069
     3  H    0.253593
     4  O   -0.504408
     5  H    0.250362
     6  H    0.254042
 Sum of Mulliken charges =  -0.00000

 Dipole moment (field-independent basis, Debye):
    X=             -1.1911    Y=             -0.4135    Z=              0.0000  Tot=              1.2609
 Quadrupole moment (field-independent basis, Debye-Ang):
   XX=             -8.5678   YY=              7.8955   ZZ=            -14.7107
   XY=             -2.3734   XZ=              0.0000   YZ=              0.0000

 Normal termination of Gaussian 16 at Sat Aug 27 01:18:03 2022.
