 Gaussian 16, Revision A.03,
 Gaussian 16:  ES64L-G16RevA.03 25-Dec-2016

 ------------------
 #p CCSD(T)/cc-pVTZ
 ------------------

 -----------
 H2O_H2O_841
 -----------
 Symbolic Z-matrix:
 Charge =  0 Multiplicity = 1

                         Standard orientation:
 ---------------------------------------------------------------------
 Center     Atomic      Atomic             Coordinates (Angstroms)
 Number     Number       Type             X           Y           Z
 ---------------------------------------------------------------------
      1          8           0        0.049559   -1.211526    0.000000
      2          1           0       -0.751968   -1.779909    0.000000
      3          1           0        0.847164   -1.785401    0.000000
      4          8           0        0.049559    1.268299    0.000000
      5          1           0       -0.041911    2.246634    0.000000
      6          1           0       -0.846233    0.864490    0.000000
 ---------------------------------------------------------------------

 SCF Done:  E(RHF) =  -152.097597557     A.U. after   11 cycles
 E2 =    -0.5294990422D+00 EUMP2 =    -0.15262709659901D+03
 CCSD(T)
 CCSD(T)= -0.15265424691D+03

 The electronic state is 1-A'.
 Alpha  occ. eigenvalues --  -20.54880 -20.52800  -1.32599  -1.30031  -0.69986
 Alpha  occ. eigenvalues --   -0.67956  -0.56282  -0.52222  -0.49733  -0.47012
 Alpha virt. eigenvalues --    0.13755   0.17590   0.19998   0.23841   0.52953
 Alpha virt. eigenvalues --    0.57445   0.58766   0.60051   0.71007   0.75057
 Alpha virt. eigenvalues --    0.77695   0.80915   0.83072   0.84948   0.85034

 Mulliken charges:
               1
     1  O   -0.468705
     2  H    0.228684
     3  H    0.247345
     4  O   -0.468864
     5  H    0.212503
     6  H    0.249036
 Sum of Mulliken charges =  -0.00000

 Dipole moment (field-independent basis, Debye):
    X=             -1.5448    Y=             -1.1283    Z=              0.0000  Tot=              1.9130
 Quadrupole moment (field-independent basis, Debye-Ang):
   XX=             -9.4218   YY=             -3.7503   ZZ=            -14.7242
   XY=             -1.5331   XZ=              0.0000   YZ=              0.0000

 Normal termination of Gaussian 16 at Fri Aug 26 20:29:10 2022.
