 Gaussian 16, Revision A.03,
 Gaussian 16:  ES64L-G16RevA.03 25-Dec-2016

 ------------------
 #p CCSD(T)/cc-pVTZ
 ------------------

 ------------
 H2O_H2O_3547
 ------------
 Symbolic Z-matrix:
 Charge =  0 Multiplicity = 1

                         Standard orientation:
 ---------------------------------------------------------------------
 Center     Atomic      Atomic             Coordinates (Angstroms)
 Number     Number       Type             X           Y           Z
 ---------------------------------------------------------------------
      1          8           0        0.056715   -2.624497    0.000000
      2          1           0       -0.743896   -3.194170    0.000000
      3          1           0        0.855244   -3.197085    0.000000
      4          8           0        0.056715    2.723607    0.000000
      5          1           0       -0.403584    3.591726    0.000000
      6          1           0       -0.615204    2.006648    0.000000
 ---------------------------------------------------------------------

 SCF Done:  E(RHF) =  -152.107727583     A.U. after   10 cycles
 E2 =    -0.5258873118D+00 EUMP2 =    -0.15263361489435D+03
 CCSD(T)
 CCSD(T)= -0.15266082469D+03

 The electronic state is 1-A'.
 Alpha  occ. eigenvalues --  -20.55754 -20.54928  -1.33053  -1.32228  -0.70459
 Alpha  occ. eigenvalues --   -0.69620  -0.56514  -0.55680  -0.50166  -0.49344
 Alpha virt. eigenvalues --    0.13712   0.14918   0.20019   0.20997   0.54076
 Alpha virt. eigenvalues --    0.54893   0.57047   0.57807   0.67187   0.69060
 Alpha virt. eigenvalues --    0.78718   0.79519   0.80085   0.80512   0.82691

 Mulliken charges:
               1
     1  O   -0.510594
     2  H    0.253406
     3  H    0.257298
     4  O   -0.510050
     5  H    0.250958
     6  H    0.258982
 Sum of Mulliken charges =  -0.00000

 Dipole moment (field-independent basis, Debye):
    X=             -1.9434    Y=             -1.7483    Z=              0.0000  Tot=              2.6141
 Quadrupole moment (field-independent basis, Debye-Ang):
   XX=             -9.8269   YY=              1.9637   ZZ=            -14.7131
   XY=             -5.2119   XZ=              0.0000   YZ=              0.0000

 Normal termination of Gaussian 16 at Sat Aug 27 01:23:31 2022.
