 Gaussian 16, Revision A.03,
 Gaussian 16:  ES64L-G16RevA.03 25-Dec-2016

 ------------------
 #p CCSD(T)/cc-pVTZ
 ------------------

 ------------
 H2O_H2O_4385
 ------------
 Symbolic Z-matrix:
 Charge =  0 Multiplicity = 1

                         Standard orientation:
 ---------------------------------------------------------------------
 Center     Atomic      Atomic             Coordinates (Angstroms)
 Number     Number       Type             X           Y           Z
 ---------------------------------------------------------------------
      1          8           0        0.034780   -3.117599    0.000000
      2          1           0       -0.765337   -3.687967    0.000000
      3          1           0        0.833804   -3.689496    0.000000
      4          8           0        0.034780    3.141137    0.000000
      5          1           0        0.322338    4.080721    0.000000
      6          1           0       -0.947278    3.108439    0.000000
 ---------------------------------------------------------------------

 SCF Done:  E(RHF) =  -152.106982071     A.U. after   10 cycles
 E2 =    -0.5259175106D+00 EUMP2 =    -0.15263289958206D+03
 CCSD(T)
 CCSD(T)= -0.15266012871D+03

 The electronic state is 1-A'.
 Alpha  occ. eigenvalues --  -20.55308 -20.55169  -1.32604  -1.32465  -0.70011
 Alpha  occ. eigenvalues --   -0.69869  -0.56032  -0.55893  -0.49713  -0.49574
 Alpha virt. eigenvalues --    0.14329   0.14477   0.20385   0.20533   0.54555
 Alpha virt. eigenvalues --    0.54706   0.57436   0.57576   0.68177   0.68345
 Alpha virt. eigenvalues --    0.79167   0.79304   0.80606   0.80758   0.82534

 Mulliken charges:
               1
     1  O   -0.506363
     2  H    0.252372
     3  H    0.253991
     4  O   -0.506242
     5  H    0.251894
     6  H    0.254348
 Sum of Mulliken charges =   0.00000

 Dipole moment (field-independent basis, Debye):
    X=             -1.1949    Y=             -0.4110    Z=              0.0000  Tot=              1.2636
 Quadrupole moment (field-independent basis, Debye-Ang):
   XX=             -8.5642   YY=             11.1514   ZZ=            -14.7110
   XY=             -2.9079   XZ=              0.0000   YZ=              0.0000

 Normal termination of Gaussian 16 at Sat Aug 27 07:01:14 2022.
