 Gaussian 16, Revision A.03,
 Gaussian 16:  ES64L-G16RevA.03 25-Dec-2016

 ------------------
 #p CCSD(T)/cc-pVTZ
 ------------------

 -----------
 H2O_H2O_831
 -----------
 Symbolic Z-matrix:
 Charge =  0 Multiplicity = 1

                         Standard orientation:
 ---------------------------------------------------------------------
 Center     Atomic      Atomic             Coordinates (Angstroms)
 Number     Number       Type             X           Y           Z
 ---------------------------------------------------------------------
      1          8           0        0.021863   -1.237677    0.000000
      2          1           0       -0.778572   -1.807597    0.000000
      3          1           0        0.820568   -1.810019    0.000000
      4          8           0        0.021863    1.246305    0.000000
      5          1           0        0.543270    2.079156    0.000000
      6          1           0       -0.935070    1.469430    0.000000
 ---------------------------------------------------------------------

 SCF Done:  E(RHF) =  -152.092689007     A.U. after   11 cycles
 E2 =    -0.5293067824D+00 EUMP2 =    -0.15262199578910D+03
 CCSD(T)
 CCSD(T)= -0.15264927327D+03

 The electronic state is 1-A'.
 Alpha  occ. eigenvalues --  -20.53294 -20.53036  -1.31168  -1.30163  -0.68461
 Alpha  occ. eigenvalues --   -0.67753  -0.56994  -0.50232  -0.48458  -0.46935
 Alpha virt. eigenvalues --    0.14423   0.17440   0.20516   0.22513   0.51281
 Alpha virt. eigenvalues --    0.58675   0.58838   0.62570   0.71605   0.76542
 Alpha virt. eigenvalues --    0.76867   0.79679   0.83893   0.85583   0.86342

 Mulliken charges:
               1
     1  O   -0.463151
     2  H    0.225926
     3  H    0.236014
     4  O   -0.453211
     5  H    0.219572
     6  H    0.234849
 Sum of Mulliken charges =  -0.00000

 Dipole moment (field-independent basis, Debye):
    X=             -0.6834    Y=             -0.1674    Z=              0.0000  Tot=              0.7036
 Quadrupole moment (field-independent basis, Debye-Ang):
   XX=             -8.2700   YY=             -2.9863   ZZ=            -14.7250
   XY=             -0.3585   XZ=              0.0000   YZ=              0.0000

 Normal termination of Gaussian 16 at Fri Aug 26 20:24:16 2022.
