 Gaussian 16, Revision A.03,
 Gaussian 16:  ES64L-G16RevA.03 25-Dec-2016

 ------------------
 #p CCSD(T)/cc-pVTZ
 ------------------

 -----------
 H2O_H2O_429
 -----------
 Symbolic Z-matrix:
 Charge =  0 Multiplicity = 1

                         Standard orientation:
 ---------------------------------------------------------------------
 Center     Atomic      Atomic             Coordinates (Angstroms)
 Number     Number       Type             X           Y           Z
 ---------------------------------------------------------------------
      1          8           0        0.014784   -1.027535    0.000000
      2          1           0       -0.785492   -1.597678    0.000000
      3          1           0        0.813649   -1.599655    0.000000
      4          8           0        0.014784    1.031391    0.000000
      5          1           0        0.640229    1.789233    0.000000
      6          1           0       -0.904936    1.377254    0.000000
 ---------------------------------------------------------------------

 SCF Done:  E(RHF) =  -152.059373434     A.U. after   11 cycles
 E2 =    -0.5341245578D+00 EUMP2 =    -0.15259349799182D+03
 CCSD(T)
 CCSD(T)= -0.15262042427D+03

 The electronic state is 1-A'.
 Alpha  occ. eigenvalues --  -20.52081 -20.51962  -1.31752  -1.28751  -0.68512
 Alpha  occ. eigenvalues --   -0.66702  -0.60254  -0.49002  -0.45234  -0.44742
 Alpha virt. eigenvalues --    0.14615   0.18262   0.20473   0.22845   0.50708
 Alpha virt. eigenvalues --    0.58998   0.59073   0.65641   0.70109   0.77641
 Alpha virt. eigenvalues --    0.78637   0.82567   0.84320   0.86631   0.87321

 Mulliken charges:
               1
     1  O   -0.437481
     2  H    0.213775
     3  H    0.222636
     4  O   -0.427756
     5  H    0.201322
     6  H    0.227504
 Sum of Mulliken charges =  -0.00000

 Dipole moment (field-independent basis, Debye):
    X=             -0.4356    Y=             -0.0806    Z=              0.0000  Tot=              0.4430
 Quadrupole moment (field-independent basis, Debye-Ang):
   XX=             -8.2500   YY=             -5.3710   ZZ=            -14.7469
   XY=             -0.1504   XZ=              0.0000   YZ=              0.0000

 9149\MP4DQ=-152.6009714\MP4SDQ=-152.6044589\CCSD=-152.603701\CCSD(T)=-
 Normal termination of Gaussian 16 at Fri Aug 26 16:23:02 2022.
