 Gaussian 16, Revision A.03,
 Gaussian 16:  ES64L-G16RevA.03 25-Dec-2016

 ------------------
 #p CCSD(T)/cc-pVTZ
 ------------------

 ------------
 H2O_H2O_1344
 ------------
 Symbolic Z-matrix:
 Charge =  0 Multiplicity = 1

                         Standard orientation:
 ---------------------------------------------------------------------
 Center     Atomic      Atomic             Coordinates (Angstroms)
 Number     Number       Type             X           Y           Z
 ---------------------------------------------------------------------
      1          8           0        0.054202   -1.466366    0.000000
      2          1           0       -0.747132   -2.035022    0.000000
      3          1           0        0.852002   -2.039969    0.000000
      4          8           0        0.054202    1.543541    0.000000
      5          1           0       -0.226696    2.485136    0.000000
      6          1           0       -0.745405    0.972457    0.000000
 ---------------------------------------------------------------------

 SCF Done:  E(RHF) =  -152.106853732     A.U. after   10 cycles
 E2 =    -0.5273877843D+00 EUMP2 =    -0.15263424151617D+03
 CCSD(T)
 CCSD(T)= -0.15266138296D+03

 The electronic state is 1-A'.
 Alpha  occ. eigenvalues --  -20.55765 -20.53469  -1.33085  -1.30743  -0.70500
 Alpha  occ. eigenvalues --   -0.68208  -0.56429  -0.54117  -0.50201  -0.47858
 Alpha virt. eigenvalues --    0.13395   0.17065   0.19844   0.23952   0.53515
 Alpha virt. eigenvalues --    0.55930   0.57083   0.58451   0.68080   0.75388
 Alpha virt. eigenvalues --    0.76222   0.77154   0.80265   0.82080   0.84640

 Mulliken charges:
               1
     1  O   -0.486512
     2  H    0.239889
     3  H    0.255314
     4  O   -0.498956
     5  H    0.232830
     6  H    0.257435
 Sum of Mulliken charges =  -0.00000

 Dipole moment (field-independent basis, Debye):
    X=             -1.7674    Y=             -1.4998    Z=              0.0000  Tot=              2.3179
 Quadrupole moment (field-independent basis, Debye-Ang):
   XX=             -9.6672   YY=             -2.5438   ZZ=            -14.7223
   XY=             -2.4878   XZ=              0.0000   YZ=              0.0000

 Normal termination of Gaussian 16 at Sat Aug 27 04:06:47 2022.
