 Gaussian 16, Revision A.03,
 Gaussian 16:  ES64L-G16RevA.03 25-Dec-2016

 ------------------
 #p CCSD(T)/cc-pVTZ
 ------------------

 ------------
 H2O_H2O_1959
 ------------
 Symbolic Z-matrix:
 Charge =  0 Multiplicity = 1

                         Standard orientation:
 ---------------------------------------------------------------------
 Center     Atomic      Atomic             Coordinates (Angstroms)
 Number     Number       Type             X           Y           Z
 ---------------------------------------------------------------------
      1          8           0        0.031745   -1.830275    0.000000
      2          1           0       -0.768673   -2.400220    0.000000
      3          1           0        0.830467   -2.402594    0.000000
      4          8           0        0.031745    1.849432    0.000000
      5          1           0        0.380624    2.768012    0.000000
      6          1           0       -0.950332    1.881550    0.000000
 ---------------------------------------------------------------------

 SCF Done:  E(RHF) =  -152.105197288     A.U. after   10 cycles
 E2 =    -0.5264785432D+00 EUMP2 =    -0.15263167583101D+03
 CCSD(T)
 CCSD(T)= -0.15265890823D+03

 The electronic state is 1-A'.
 Alpha  occ. eigenvalues --  -20.54702 -20.54355  -1.31981  -1.31626  -0.69401
 Alpha  occ. eigenvalues --   -0.69031  -0.55469  -0.54765  -0.49086  -0.48722
 Alpha virt. eigenvalues --    0.13965   0.15991   0.20454   0.21513   0.53299
 Alpha virt. eigenvalues --    0.55909   0.57890   0.58339   0.62771   0.76039
 Alpha virt. eigenvalues --    0.79106   0.79502   0.80752   0.80794   0.83373

 Mulliken charges:
               1
     1  O   -0.491649
     2  H    0.243014
     3  H    0.249206
     4  O   -0.491883
     5  H    0.241660
     6  H    0.249652
 Sum of Mulliken charges =  -0.00000

 Dipole moment (field-independent basis, Debye):
    X=             -1.0649    Y=             -0.3526    Z=              0.0000  Tot=              1.1218
 Quadrupole moment (field-independent basis, Debye-Ang):
   XX=             -8.4690   YY=              1.9165   ZZ=            -14.7104
   XY=             -1.2292   XZ=              0.0000   YZ=              0.0000

 Normal termination of Gaussian 16 at Sat Aug 27 07:47:01 2022.
