 Gaussian 16, Revision A.03,
 Gaussian 16:  ES64L-G16RevA.03 25-Dec-2016

 ------------------
 #p CCSD(T)/cc-pVTZ
 ------------------

 -----------
 H2O_H2O_386
 -----------
 Symbolic Z-matrix:
 Charge =  0 Multiplicity = 1

                         Standard orientation:
 ---------------------------------------------------------------------
 Center     Atomic      Atomic             Coordinates (Angstroms)
 Number     Number       Type             X           Y           Z
 ---------------------------------------------------------------------
      1          8           0        0.037703   -0.987771    0.000000
      2          1           0       -0.763712   -1.556313    0.000000
      3          1           0        0.835422   -1.561488    0.000000
      4          8           0        0.037703    1.015874    0.000000
      5          1           0        0.265373    1.971736    0.000000
      6          1           0       -0.940332    0.921244    0.000000
 ---------------------------------------------------------------------

 SCF Done:  E(RHF) =  -152.056346825     A.U. after   11 cycles
 E2 =    -0.5351407371D+00 EUMP2 =    -0.15259148756183D+03
 CCSD(T)
 CCSD(T)= -0.15261829458D+03

 The electronic state is 1-A'.
 Alpha  occ. eigenvalues --  -20.52883 -20.51917  -1.32748  -1.28639  -0.69724
 Alpha  occ. eigenvalues --   -0.67529  -0.59010  -0.49813  -0.45568  -0.45251
 Alpha virt. eigenvalues --    0.14298   0.18158   0.20175   0.23461   0.53175
 Alpha virt. eigenvalues --    0.57412   0.58438   0.63834   0.71259   0.76826
 Alpha virt. eigenvalues --    0.79386   0.81914   0.83512   0.85623   0.88182

 Mulliken charges:
               1
     1  O   -0.438063
     2  H    0.208346
     3  H    0.227774
     4  O   -0.407758
     5  H    0.174278
     6  H    0.235423
 Sum of Mulliken charges =  -0.00000

 Dipole moment (field-independent basis, Debye):
    X=             -1.0917    Y=             -0.5784    Z=              0.0000  Tot=              1.2354
 Quadrupole moment (field-independent basis, Debye-Ang):
   XX=             -8.9233   YY=             -5.7597   ZZ=            -14.7255
   XY=             -0.5853   XZ=              0.0000   YZ=              0.0000

 Normal termination of Gaussian 16 at Fri Aug 26 15:55:23 2022.
