 Gaussian 16, Revision A.03,
 Gaussian 16:  ES64L-G16RevA.03 25-Dec-2016

 ------------------
 #p CCSD(T)/cc-pVTZ
 ------------------

 ------------
 H2O_H2O_1094
 ------------
 Symbolic Z-matrix:
 Charge =  0 Multiplicity = 1

                         Standard orientation:
 ---------------------------------------------------------------------
 Center     Atomic      Atomic             Coordinates (Angstroms)
 Number     Number       Type             X           Y           Z
 ---------------------------------------------------------------------
      1          8           0        0.054213   -1.333424    0.000000
      2          1           0       -0.747291   -1.901839    0.000000
      3          1           0        0.851842   -1.907266    0.000000
      4          8           0        0.054213    1.410566    0.000000
      5          1           0       -0.226402    2.352246    0.000000
      6          1           0       -0.745564    0.839722    0.000000
 ---------------------------------------------------------------------

 SCF Done:  E(RHF) =  -152.104799710     A.U. after   10 cycles
 E2 =    -0.5282702316D+00 EUMP2 =    -0.15263306994212D+03
 CCSD(T)
 CCSD(T)= -0.15266019063D+03

 The electronic state is 1-A'.
 Alpha  occ. eigenvalues --  -20.55744 -20.53044  -1.33184  -1.30327  -0.70592
 Alpha  occ. eigenvalues --   -0.68022  -0.56340  -0.53618  -0.50292  -0.47415
 Alpha virt. eigenvalues --    0.13417   0.17435   0.19806   0.24348   0.52734
 Alpha virt. eigenvalues --    0.56994   0.57809   0.59054   0.70269   0.75059
 Alpha virt. eigenvalues --    0.75544   0.79430   0.81861   0.82586   0.84570

 Mulliken charges:
               1
     1  O   -0.479718
     2  H    0.236737
     3  H    0.254245
     4  O   -0.493800
     5  H    0.225914
     6  H    0.256622
 Sum of Mulliken charges =  -0.00000

 Dipole moment (field-independent basis, Debye):
    X=             -1.7351    Y=             -1.5326    Z=              0.0000  Tot=              2.3150
 Quadrupole moment (field-independent basis, Debye-Ang):
   XX=             -9.6770   YY=             -3.3831   ZZ=            -14.7247
   XY=             -2.2549   XZ=              0.0000   YZ=              0.0000

 Normal termination of Gaussian 16 at Sat Aug 27 02:05:11 2022.
