 Gaussian 16, Revision A.03,
 Gaussian 16:  ES64L-G16RevA.03 25-Dec-2016

 ------------------
 #p CCSD(T)/cc-pVTZ
 ------------------

 ------------
 H2O_H2O_3324
 ------------
 Symbolic Z-matrix:
 Charge =  0 Multiplicity = 1

                         Standard orientation:
 ---------------------------------------------------------------------
 Center     Atomic      Atomic             Coordinates (Angstroms)
 Number     Number       Type             X           Y           Z
 ---------------------------------------------------------------------
      1          8           0        0.057223   -2.496744    0.000000
      2          1           0       -0.743446   -3.066336    0.000000
      3          1           0        0.855693   -3.069414    0.000000
      4          8           0        0.057223    2.610750    0.000000
      5          1           0       -0.512369    3.411419    0.000000
      6          1           0       -0.515447    1.812279    0.000000
 ---------------------------------------------------------------------

 SCF Done:  E(RHF) =  -152.108040421     A.U. after   10 cycles
 E2 =    -0.5258896440D+00 EUMP2 =    -0.15263393006473D+03
 CCSD(T)
 CCSD(T)= -0.15266112946D+03

 The electronic state is 1-A'.
 Alpha  occ. eigenvalues --  -20.55896 -20.54837  -1.33192  -1.32139  -0.70597
 Alpha  occ. eigenvalues --   -0.69528  -0.56665  -0.55599  -0.50308  -0.49259
 Alpha virt. eigenvalues --    0.13441   0.15113   0.19921   0.21220   0.53932
 Alpha virt. eigenvalues --    0.54887   0.56939   0.57859   0.66850   0.69465
 Alpha virt. eigenvalues --    0.78582   0.79599   0.79799   0.80216   0.82793

 Mulliken charges:
               1
     1  O   -0.511799
     2  H    0.253921
     3  H    0.258213
     4  O   -0.511430
     5  H    0.250777
     6  H    0.260318
 Sum of Mulliken charges =   0.00000

 Dipole moment (field-independent basis, Debye):
    X=             -1.9584    Y=             -2.0205    Z=              0.0000  Tot=              2.8138
 Quadrupole moment (field-independent basis, Debye-Ang):
   XX=             -9.8628   YY=              0.1052   ZZ=            -14.7141
   XY=             -5.2913   XZ=              0.0000   YZ=              0.0000

 Normal termination of Gaussian 16 at Fri Aug 26 21:22:30 2022.
