 Gaussian 16, Revision A.03,
 Gaussian 16:  ES64L-G16RevA.03 25-Dec-2016

 ------------------
 #p CCSD(T)/cc-pVTZ
 ------------------

 ------------
 H2O_H2O_2537
 ------------
 Symbolic Z-matrix:
 Charge =  0 Multiplicity = 1

                         Standard orientation:
 ---------------------------------------------------------------------
 Center     Atomic      Atomic             Coordinates (Angstroms)
 Number     Number       Type             X           Y           Z
 ---------------------------------------------------------------------
      1          8           0        0.040412   -2.128386    0.000000
      2          1           0       -0.760083   -2.698221    0.000000
      3          1           0        0.839057   -2.700813    0.000000
      4          8           0        0.040412    2.161711    0.000000
      5          1           0        0.203514    3.130682    0.000000
      6          1           0       -0.929082    2.001751    0.000000
 ---------------------------------------------------------------------

 SCF Done:  E(RHF) =  -152.106306985     A.U. after   10 cycles
 E2 =    -0.5261225611D+00 EUMP2 =    -0.15263242954601D+03
 CCSD(T)
 CCSD(T)= -0.15265965938D+03

 The electronic state is 1-A'.
 Alpha  occ. eigenvalues --  -20.55081 -20.54641  -1.32370  -1.31926  -0.69782
 Alpha  occ. eigenvalues --   -0.69322  -0.55764  -0.55307  -0.49474  -0.49034
 Alpha virt. eigenvalues --    0.13887   0.15465   0.20365   0.21217   0.54141
 Alpha virt. eigenvalues --    0.55221   0.57616   0.58027   0.65221   0.73212
 Alpha virt. eigenvalues --    0.79339   0.79896   0.80528   0.81464   0.82838

 Mulliken charges:
               1
     1  O   -0.501430
     2  H    0.248177
     3  H    0.253534
     4  O   -0.501168
     5  H    0.246641
     6  H    0.254245
 Sum of Mulliken charges =  -0.00000

 Dipole moment (field-independent basis, Debye):
    X=             -1.3718    Y=             -0.5984    Z=              0.0000  Tot=              1.4966
 Quadrupole moment (field-independent basis, Debye-Ang):
   XX=             -8.8407   YY=              3.5466   ZZ=            -14.7111
   XY=             -2.1567   XZ=              0.0000   YZ=              0.0000

 Normal termination of Gaussian 16 at Fri Aug 26 13:29:15 2022.
