 Gaussian 16, Revision A.03,
 Gaussian 16:  ES64L-G16RevA.03 25-Dec-2016

 ------------------
 #p CCSD(T)/cc-pVTZ
 ------------------

 ------------
 H2O_H2O_1752
 ------------
 Symbolic Z-matrix:
 Charge =  0 Multiplicity = 1

                         Standard orientation:
 ---------------------------------------------------------------------
 Center     Atomic      Atomic             Coordinates (Angstroms)
 Number     Number       Type             X           Y           Z
 ---------------------------------------------------------------------
      1          8           0        0.007455   -1.733785    0.000000
      2          1           0       -0.792327   -2.304621    0.000000
      3          1           0        0.806815   -2.305212    0.000000
      4          8           0        0.007455    1.734756    0.000000
      5          1           0        0.725886    2.405102    0.000000
      6          1           0       -0.859653    2.196958    0.000000
 ---------------------------------------------------------------------

 SCF Done:  E(RHF) =  -152.103886870     A.U. after   10 cycles
 E2 =    -0.5267010810D+00 EUMP2 =    -0.15263058795138D+03
 CCSD(T)
 CCSD(T)= -0.15265784715D+03

 The electronic state is 1-A'.
 Alpha  occ. eigenvalues --  -20.54268 -20.54249  -1.31571  -1.31504  -0.68993
 Alpha  occ. eigenvalues --   -0.68934  -0.55329  -0.54227  -0.48714  -0.48543
 Alpha virt. eigenvalues --    0.14248   0.16149   0.20600   0.21459   0.53218
 Alpha virt. eigenvalues --    0.57718   0.58037   0.58438   0.61325   0.75943
 Alpha virt. eigenvalues --    0.78933   0.79314   0.80188   0.81352   0.84132

 Mulliken charges:
               1
     1  O   -0.484129
     2  H    0.241242
     3  H    0.242925
     4  O   -0.484114
     5  H    0.241118
     6  H    0.242958
 Sum of Mulliken charges =  -0.00000

 Dipole moment (field-independent basis, Debye):
    X=             -0.2488    Y=             -0.0181    Z=              0.0000  Tot=              0.2494
 Quadrupole moment (field-independent basis, Debye-Ang):
   XX=             -7.8944   YY=              1.6020   ZZ=            -14.7088
   XY=             -0.2206   XZ=              0.0000   YZ=              0.0000

 Normal termination of Gaussian 16 at Sat Aug 27 06:35:24 2022.
