 Gaussian 16, Revision A.03,
 Gaussian 16:  ES64L-G16RevA.03 25-Dec-2016

 ------------------
 #p CCSD(T)/cc-pVTZ
 ------------------

 ------------
 H2O_H2O_3901
 ------------
 Symbolic Z-matrix:
 Charge =  0 Multiplicity = 1

                         Standard orientation:
 ---------------------------------------------------------------------
 Center     Atomic      Atomic             Coordinates (Angstroms)
 Number     Number       Type             X           Y           Z
 ---------------------------------------------------------------------
      1          8           0        0.003735   -2.877629    0.000000
      2          1           0       -0.795899   -3.448671    0.000000
      3          1           0        0.803243   -3.448850    0.000000
      4          8           0        0.003735    2.877872    0.000000
      5          1           0        0.764311    3.499990    0.000000
      6          1           0       -0.831420    3.395580    0.000000
 ---------------------------------------------------------------------

 SCF Done:  E(RHF) =  -152.106601777     A.U. after   10 cycles
 E2 =    -0.5259578048D+00 EUMP2 =    -0.15263255958194D+03
 CCSD(T)
 CCSD(T)= -0.15265979638D+03

 The electronic state is 1-A'.
 Alpha  occ. eigenvalues --  -20.55095 -20.55093  -1.32390  -1.32388  -0.69798
 Alpha  occ. eigenvalues --   -0.69796  -0.55800  -0.55797  -0.49496  -0.49494
 Alpha virt. eigenvalues --    0.14470   0.14562   0.20531   0.20567   0.54760
 Alpha virt. eigenvalues --    0.54789   0.57614   0.57631   0.68300   0.68611
 Alpha virt. eigenvalues --    0.79382   0.79385   0.80825   0.80838   0.82753

 Mulliken charges:
               1
     1  O   -0.504113
     2  H    0.251946
     3  H    0.252167
     4  O   -0.504111
     5  H    0.251906
     6  H    0.252205
 Sum of Mulliken charges =  -0.00000

 Dipole moment (field-independent basis, Debye):
    X=             -0.1281    Y=             -0.0043    Z=              0.0000  Tot=              0.1282
 Quadrupole moment (field-independent basis, Debye-Ang):
   XX=             -7.8154   YY=             10.9662   ZZ=            -14.7103
   XY=             -0.2529   XZ=              0.0000   YZ=              0.0000

 Normal termination of Gaussian 16 at Sat Aug 27 04:10:19 2022.
