 Gaussian 16, Revision A.03,
 Gaussian 16:  ES64L-G16RevA.03 25-Dec-2016

 ------------------
 #p CCSD(T)/cc-pVTZ
 ------------------

 ------------
 H2O_H2O_4088
 ------------
 Symbolic Z-matrix:
 Charge =  0 Multiplicity = 1

                         Standard orientation:
 ---------------------------------------------------------------------
 Center     Atomic      Atomic             Coordinates (Angstroms)
 Number     Number       Type             X           Y           Z
 ---------------------------------------------------------------------
      1          8           0        0.042964   -2.949757    0.000000
      2          1           0       -0.757317   -3.519894    0.000000
      3          1           0        0.841824   -3.521884    0.000000
      4          8           0        0.042964    2.988562    0.000000
      5          1           0        0.141975    3.966163    0.000000
      6          1           0       -0.913909    2.765177    0.000000
 ---------------------------------------------------------------------

 SCF Done:  E(RHF) =  -152.107042796     A.U. after   10 cycles
 E2 =    -0.5259179252D+00 EUMP2 =    -0.15263296072138D+03
 CCSD(T)
 CCSD(T)= -0.15266018820D+03

 The electronic state is 1-A'.
 Alpha  occ. eigenvalues --  -20.55363 -20.55108  -1.32660  -1.32403  -0.70067
 Alpha  occ. eigenvalues --   -0.69805  -0.56091  -0.55834  -0.49769  -0.49513
 Alpha virt. eigenvalues --    0.14261   0.14557   0.20333   0.20614   0.54496
 Alpha virt. eigenvalues --    0.54775   0.57384   0.57642   0.68069   0.68448
 Alpha virt. eigenvalues --    0.79110   0.79362   0.80548   0.80824   0.82483

 Mulliken charges:
               1
     1  O   -0.506737
     2  H    0.252210
     3  H    0.254527
     4  O   -0.506517
     5  H    0.251414
     6  H    0.255102
 Sum of Mulliken charges =  -0.00000

 Dipole moment (field-independent basis, Debye):
    X=             -1.4749    Y=             -0.6792    Z=              0.0000  Tot=              1.6238
 Quadrupole moment (field-independent basis, Debye-Ang):
   XX=             -8.9652   YY=              8.7927   ZZ=            -14.7113
   XY=             -3.5646   XZ=              0.0000   YZ=              0.0000

 Normal termination of Gaussian 16 at Sat Aug 27 05:19:01 2022.
