 Gaussian 16, Revision A.03,
 Gaussian 16:  ES64L-G16RevA.03 25-Dec-2016

 ------------------
 #p CCSD(T)/cc-pVTZ
 ------------------

 ------------
 H2O_H2O_3076
 ------------
 Symbolic Z-matrix:
 Charge =  0 Multiplicity = 1

                         Standard orientation:
 ---------------------------------------------------------------------
 Center     Atomic      Atomic             Coordinates (Angstroms)
 Number     Number       Type             X           Y           Z
 ---------------------------------------------------------------------
      1          8           0        0.003735   -2.438863    0.000000
      2          1           0       -0.795911   -3.009890    0.000000
      3          1           0        0.803231   -3.010101    0.000000
      4          8           0        0.003735    2.439107    0.000000
      5          1           0        0.764323    3.061211    0.000000
      6          1           0       -0.831409    2.956832    0.000000
 ---------------------------------------------------------------------

 SCF Done:  E(RHF) =  -152.106061906     A.U. after   10 cycles
 E2 =    -0.5260387745D+00 EUMP2 =    -0.15263210068045D+03
 CCSD(T)
 CCSD(T)= -0.15265934669D+03

 The electronic state is 1-A'.
 Alpha  occ. eigenvalues --  -20.54888 -20.54886  -1.32180  -1.32178  -0.69591
 Alpha  occ. eigenvalues --   -0.69588  -0.55581  -0.55540  -0.49283  -0.49279
 Alpha virt. eigenvalues --    0.14433   0.14917   0.20608   0.20758   0.54849
 Alpha virt. eigenvalues --    0.55121   0.57750   0.57824   0.67181   0.70249
 Alpha virt. eigenvalues --    0.79564   0.79624   0.81003   0.81102   0.82636

 Mulliken charges:
               1
     1  O   -0.500940
     2  H    0.250296
     3  H    0.250645
     4  O   -0.500935
     5  H    0.250245
     6  H    0.250690
 Sum of Mulliken charges =  -0.00000

 Dipole moment (field-independent basis, Debye):
    X=             -0.1275    Y=             -0.0043    Z=              0.0000  Tot=              0.1276
 Quadrupole moment (field-independent basis, Debye-Ang):
   XX=             -7.8250   YY=              7.4282   ZZ=            -14.7098
   XY=             -0.1975   XZ=              0.0000   YZ=              0.0000

 Normal termination of Gaussian 16 at Fri Aug 26 19:11:35 2022.
