 Gaussian 16, Revision A.03,
 Gaussian 16:  ES64L-G16RevA.03 25-Dec-2016

 ------------------
 #p CCSD(T)/cc-pVTZ
 ------------------

 ------------
 H2O_H2O_3121
 ------------
 Symbolic Z-matrix:
 Charge =  0 Multiplicity = 1

                         Standard orientation:
 ---------------------------------------------------------------------
 Center     Atomic      Atomic             Coordinates (Angstroms)
 Number     Number       Type             X           Y           Z
 ---------------------------------------------------------------------
      1          8           0        0.056106   -2.402478    0.000000
      2          1           0       -0.744588   -2.972034    0.000000
      3          1           0        0.854551   -2.975184    0.000000
      4          8           0        0.056106    2.494199    0.000000
      5          1           0       -0.346298    3.390625    0.000000
      6          1           0       -0.661364    1.822826    0.000000
 ---------------------------------------------------------------------

 SCF Done:  E(RHF) =  -152.107723023     A.U. after   10 cycles
 E2 =    -0.5259336063D+00 EUMP2 =    -0.15263365662897D+03
 CCSD(T)
 CCSD(T)= -0.15266086137D+03

 The electronic state is 1-A'.
 Alpha  occ. eigenvalues --  -20.55731 -20.54793  -1.33026  -1.32090  -0.70432
 Alpha  occ. eigenvalues --   -0.69478  -0.56483  -0.55541  -0.50139  -0.49208
 Alpha virt. eigenvalues --    0.13519   0.15191   0.20019   0.21251   0.54057
 Alpha virt. eigenvalues --    0.54898   0.57085   0.57892   0.66829   0.70058
 Alpha virt. eigenvalues --    0.78749   0.79652   0.79894   0.80525   0.82792

 Mulliken charges:
               1
     1  O   -0.509793
     2  H    0.252587
     3  H    0.257583
     4  O   -0.509687
     5  H    0.249780
     6  H    0.259531
 Sum of Mulliken charges =  -0.00000

 Dipole moment (field-independent basis, Debye):
    X=             -1.9172    Y=             -1.6307    Z=              0.0000  Tot=              2.5170
 Quadrupole moment (field-independent basis, Debye-Ang):
   XX=             -9.7825   YY=              1.5391   ZZ=            -14.7135
   XY=             -4.5964   XZ=              0.0000   YZ=              0.0000

 Normal termination of Gaussian 16 at Fri Aug 26 19:36:30 2022.
