 Gaussian 16, Revision A.03,
 Gaussian 16:  ES64L-G16RevA.03 25-Dec-2016

 ------------------
 #p CCSD(T)/cc-pVTZ
 ------------------

 -----------
 H2O_H2O_783
 -----------
 Symbolic Z-matrix:
 Charge =  0 Multiplicity = 1

                         Standard orientation:
 ---------------------------------------------------------------------
 Center     Atomic      Atomic             Coordinates (Angstroms)
 Number     Number       Type             X           Y           Z
 ---------------------------------------------------------------------
      1          8           0        0.028572   -1.207522    0.000000
      2          1           0       -0.772153   -1.777035    0.000000
      3          1           0        0.826986   -1.780271    0.000000
      4          8           0        0.028572    1.222710    0.000000
      5          1           0        0.437265    2.116285    0.000000
      6          1           0       -0.949249    1.319518    0.000000
 ---------------------------------------------------------------------

 SCF Done:  E(RHF) =  -152.091576071     A.U. after   11 cycles
 E2 =    -0.5296564123D+00 EUMP2 =    -0.15262123248313D+03
 CCSD(T)
 CCSD(T)= -0.15264848046D+03

 The electronic state is 1-A'.
 Alpha  occ. eigenvalues --  -20.53406 -20.52935  -1.31334  -1.30067  -0.68620
 Alpha  occ. eigenvalues --   -0.67710  -0.57148  -0.50075  -0.48616  -0.46839
 Alpha virt. eigenvalues --    0.14364   0.17474   0.20452   0.22723   0.51912
 Alpha virt. eigenvalues --    0.58539   0.58650   0.62370   0.70861   0.76383
 Alpha virt. eigenvalues --    0.77047   0.79959   0.83832   0.86211   0.87015

 Mulliken charges:
               1
     1  O   -0.464000
     2  H    0.224613
     3  H    0.237985
     4  O   -0.448853
     5  H    0.213467
     6  H    0.236789
 Sum of Mulliken charges =  -0.00000

 Dipole moment (field-independent basis, Debye):
    X=             -0.8867    Y=             -0.2964    Z=              0.0000  Tot=              0.9349
 Quadrupole moment (field-independent basis, Debye-Ang):
   XX=             -8.4808   YY=             -3.3091   ZZ=            -14.7266
   XY=             -0.5009   XZ=              0.0000   YZ=              0.0000

 Normal termination of Gaussian 16 at Fri Aug 26 19:57:03 2022.
