 Gaussian 16, Revision A.03,
 Gaussian 16:  ES64L-G16RevA.03 25-Dec-2016

 ------------------
 #p CCSD(T)/cc-pVTZ
 ------------------

 ------------
 H2O_H2O_1852
 ------------
 Symbolic Z-matrix:
 Charge =  0 Multiplicity = 1

                         Standard orientation:
 ---------------------------------------------------------------------
 Center     Atomic      Atomic             Coordinates (Angstroms)
 Number     Number       Type             X           Y           Z
 ---------------------------------------------------------------------
      1          8           0        0.007455   -1.786968    0.000000
      2          1           0       -0.792321   -2.357813    0.000000
      3          1           0        0.806821   -2.358387    0.000000
      4          8           0        0.007455    1.787940    0.000000
      5          1           0        0.725879    2.458293    0.000000
      6          1           0       -0.859658    2.250132    0.000000
 ---------------------------------------------------------------------

 SCF Done:  E(RHF) =  -152.104223847     A.U. after   10 cycles
 E2 =    -0.5265957038D+00 EUMP2 =    -0.15263081955110D+03
 CCSD(T)
 CCSD(T)= -0.15265807411D+03

 The electronic state is 1-A'.
 Alpha  occ. eigenvalues --  -20.54341 -20.54323  -1.31636  -1.31585  -0.69058
 Alpha  occ. eigenvalues --   -0.69011  -0.55315  -0.54423  -0.48770  -0.48636
 Alpha virt. eigenvalues --    0.14224   0.16033   0.20609   0.21380   0.53516
 Alpha virt. eigenvalues --    0.57338   0.57993   0.58377   0.61078   0.75807
 Alpha virt. eigenvalues --    0.79116   0.79698   0.80421   0.81086   0.83548

 Mulliken charges:
               1
     1  O   -0.486577
     2  H    0.242527
     3  H    0.244083
     4  O   -0.486571
     5  H    0.242385
     6  H    0.244153
 Sum of Mulliken charges =  -0.00000

 Dipole moment (field-independent basis, Debye):
    X=             -0.2495    Y=             -0.0180    Z=              0.0000  Tot=              0.2502
 Quadrupole moment (field-independent basis, Debye-Ang):
   XX=             -7.8884   YY=              2.0536   ZZ=            -14.7089
   XY=             -0.2337   XZ=              0.0000   YZ=              0.0000

 Normal termination of Gaussian 16 at Sat Aug 27 07:10:36 2022.
