 Gaussian 16, Revision A.03,
 Gaussian 16:  ES64L-G16RevA.03 25-Dec-2016

 ------------------
 #p CCSD(T)/cc-pVTZ
 ------------------

 ------------
 H2O_H2O_1348
 ------------
 Symbolic Z-matrix:
 Charge =  0 Multiplicity = 1

                         Standard orientation:
 ---------------------------------------------------------------------
 Center     Atomic      Atomic             Coordinates (Angstroms)
 Number     Number       Type             X           Y           Z
 ---------------------------------------------------------------------
      1          8           0        0.057165   -1.450503    0.000000
      2          1           0       -0.744265   -2.019024    0.000000
      3          1           0        0.854868   -2.024241    0.000000
      4          8           0        0.057165    1.556887    0.000000
      5          1           0       -0.457722    2.393784    0.000000
      6          1           0       -0.567517    0.798416    0.000000
 ---------------------------------------------------------------------

 SCF Done:  E(RHF) =  -152.109246082     A.U. after   10 cycles
 E2 =    -0.5275159904D+00 EUMP2 =    -0.15263676207269D+03
 CCSD(T)
 CCSD(T)= -0.15266382975D+03

 The electronic state is 1-A'.
 Alpha  occ. eigenvalues --  -20.56605 -20.53137  -1.33937  -1.30476  -0.71325
 Alpha  occ. eigenvalues --   -0.68069  -0.57256  -0.53982  -0.51048  -0.47606
 Alpha virt. eigenvalues --    0.12971   0.17358   0.19549   0.25680   0.51960
 Alpha virt. eigenvalues --    0.55940   0.56743   0.58889   0.69004   0.74634
 Alpha virt. eigenvalues --    0.75145   0.77780   0.81952   0.82334   0.84012

 Mulliken charges:
               1
     1  O   -0.491380
     2  H    0.245204
     3  H    0.260373
     4  O   -0.516257
     5  H    0.236161
     6  H    0.265898
 Sum of Mulliken charges =  -0.00000

 Dipole moment (field-independent basis, Debye):
    X=             -1.8682    Y=             -2.1109    Z=              0.0000  Tot=              2.8189
 Quadrupole moment (field-independent basis, Debye-Ang):
   XX=             -9.8531   YY=             -3.8651   ZZ=            -14.7271
   XY=             -3.1460   XZ=              0.0000   YZ=              0.0000

 Normal termination of Gaussian 16 at Sat Aug 27 04:08:27 2022.
