 Gaussian 16, Revision A.03,
 Gaussian 16:  ES64L-G16RevA.03 25-Dec-2016

 ------------------
 #p CCSD(T)/cc-pVTZ
 ------------------

 ------------
 H2O_H2O_1116
 ------------
 Symbolic Z-matrix:
 Charge =  0 Multiplicity = 1

                         Standard orientation:
 ---------------------------------------------------------------------
 Center     Atomic      Atomic             Coordinates (Angstroms)
 Number     Number       Type             X           Y           Z
 ---------------------------------------------------------------------
      1          8           0        0.049549   -1.357763    0.000000
      2          1           0       -0.751773   -1.926436    0.000000
      3          1           0        0.847362   -1.931348    0.000000
      4          8           0        0.049549    1.414572    0.000000
      5          1           0       -0.042275    2.392873    0.000000
      6          1           0       -0.846097    1.010438    0.000000
 ---------------------------------------------------------------------

 SCF Done:  E(RHF) =  -152.103461671     A.U. after   10 cycles
 E2 =    -0.5280429802D+00 EUMP2 =    -0.15263150465112D+03
 CCSD(T)
 CCSD(T)= -0.15265868795D+03

 The electronic state is 1-A'.
 Alpha  occ. eigenvalues --  -20.55116 -20.53310  -1.32522  -1.30559  -0.69940
 Alpha  occ. eigenvalues --   -0.68097  -0.56121  -0.53403  -0.49652  -0.47621
 Alpha virt. eigenvalues --    0.13710   0.17188   0.20024   0.23475   0.53566
 Alpha virt. eigenvalues --    0.57484   0.57935   0.58383   0.69579   0.75900
 Alpha virt. eigenvalues --    0.75944   0.77426   0.81562   0.82742   0.85078

 Mulliken charges:
               1
     1  O   -0.478370
     2  H    0.234120
     3  H    0.250753
     4  O   -0.481272
     5  H    0.224305
     6  H    0.250464
 Sum of Mulliken charges =  -0.00000

 Dipole moment (field-independent basis, Debye):
    X=             -1.5884    Y=             -1.1082    Z=              0.0000  Tot=              1.9368
 Quadrupole moment (field-independent basis, Debye-Ang):
   XX=             -9.3976   YY=             -2.6323   ZZ=            -14.7217
   XY=             -1.7658   XZ=              0.0000   YZ=              0.0000

 Normal termination of Gaussian 16 at Sat Aug 27 02:15:28 2022.
