 Gaussian 16, Revision A.03,
 Gaussian 16:  ES64L-G16RevA.03 25-Dec-2016

 ------------------
 #p CCSD(T)/cc-pVTZ
 ------------------

 ------------
 H2O_H2O_1354
 ------------
 Symbolic Z-matrix:
 Charge =  0 Multiplicity = 1

                         Standard orientation:
 ---------------------------------------------------------------------
 Center     Atomic      Atomic             Coordinates (Angstroms)
 Number     Number       Type             X           Y           Z
 ---------------------------------------------------------------------
      1          8           0        0.014784   -1.519477    0.000000
      2          1           0       -0.785265   -2.089940    0.000000
      3          1           0        0.813877   -2.091278    0.000000
      4          8           0        0.014784    1.523345    0.000000
      5          1           0        0.639925    2.281437    0.000000
      6          1           0       -0.905075    1.868841    0.000000
 ---------------------------------------------------------------------

 SCF Done:  E(RHF) =  -152.101811929     A.U. after   11 cycles
 E2 =    -0.5273135103D+00 EUMP2 =    -0.15262912543905D+03
 CCSD(T)
 CCSD(T)= -0.15265641410D+03

 The electronic state is 1-A'.
 Alpha  occ. eigenvalues --  -20.53954 -20.53863  -1.31325  -1.31095  -0.68738
 Alpha  occ. eigenvalues --   -0.68548  -0.55598  -0.53140  -0.48515  -0.48065
 Alpha virt. eigenvalues --    0.14336   0.16665   0.20548   0.21861   0.51948
 Alpha virt. eigenvalues --    0.58302   0.58610   0.59491   0.65615   0.76460
 Alpha virt. eigenvalues --    0.77840   0.78218   0.79210   0.82583   0.86050

 Mulliken charges:
               1
     1  O   -0.474304
     2  H    0.234780
     3  H    0.239614
     4  O   -0.473054
     5  H    0.234250
     6  H    0.238714
 Sum of Mulliken charges =  -0.00000

 Dipole moment (field-independent basis, Debye):
    X=             -0.4845    Y=             -0.0729    Z=              0.0000  Tot=              0.4900
 Quadrupole moment (field-independent basis, Debye-Ang):
   XX=             -8.0282   YY=             -0.3119   ZZ=            -14.7104
   XY=             -0.3486   XZ=              0.0000   YZ=              0.0000

 Normal termination of Gaussian 16 at Sat Aug 27 04:11:08 2022.
