 Gaussian 16, Revision A.03,
 Gaussian 16:  ES64L-G16RevA.03 25-Dec-2016

 ------------------
 #p CCSD(T)/cc-pVTZ
 ------------------

 ------------
 H2O_H2O_1615
 ------------
 Symbolic Z-matrix:
 Charge =  0 Multiplicity = 1

                         Standard orientation:
 ---------------------------------------------------------------------
 Center     Atomic      Atomic             Coordinates (Angstroms)
 Number     Number       Type             X           Y           Z
 ---------------------------------------------------------------------
      1          8           0        0.047551   -1.627092    0.000000
      2          1           0       -0.753431   -2.196244    0.000000
      3          1           0        0.845706   -2.200200    0.000000
      4          8           0        0.047551    1.677622    0.000000
      5          1           0        0.019319    2.659818    0.000000
      6          1           0       -0.872403    1.332382    0.000000
 ---------------------------------------------------------------------

 SCF Done:  E(RHF) =  -152.105927076     A.U. after   10 cycles
 E2 =    -0.5268318009D+00 EUMP2 =    -0.15263275887648D+03
 CCSD(T)
 CCSD(T)= -0.15265995351D+03

 The electronic state is 1-A'.
 Alpha  occ. eigenvalues --  -20.55156 -20.53974  -1.32437  -1.31234  -0.69859
 Alpha  occ. eigenvalues --   -0.68620  -0.55898  -0.54457  -0.49550  -0.48342
 Alpha virt. eigenvalues --    0.13671   0.16522   0.20143   0.22575   0.53964
 Alpha virt. eigenvalues --    0.55182   0.57547   0.58548   0.64871   0.76574
 Alpha virt. eigenvalues --    0.77967   0.78341   0.78704   0.81531   0.85134

 Mulliken charges:
               1
     1  O   -0.488758
     2  H    0.240247
     3  H    0.251686
     4  O   -0.492741
     5  H    0.236205
     6  H    0.253360
 Sum of Mulliken charges =  -0.00000

 Dipole moment (field-independent basis, Debye):
    X=             -1.5732    Y=             -0.9522    Z=              0.0000  Tot=              1.8389
 Quadrupole moment (field-independent basis, Debye-Ang):
   XX=             -9.2515   YY=             -0.5670   ZZ=            -14.7150
   XY=             -2.0123   XZ=              0.0000   YZ=              0.0000

 Normal termination of Gaussian 16 at Sat Aug 27 05:47:29 2022.
