 Gaussian 16, Revision A.03,
 Gaussian 16:  ES64L-G16RevA.03 25-Dec-2016

 ------------------
 #p CCSD(T)/cc-pVTZ
 ------------------

 ------------
 H2O_H2O_2142
 ------------
 Symbolic Z-matrix:
 Charge =  0 Multiplicity = 1

                         Standard orientation:
 ---------------------------------------------------------------------
 Center     Atomic      Atomic             Coordinates (Angstroms)
 Number     Number       Type             X           Y           Z
 ---------------------------------------------------------------------
      1          8           0        0.051296   -1.899278    0.000000
      2          1           0       -0.749577   -2.468583    0.000000
      3          1           0        0.849561   -2.472235    0.000000
      4          8           0        0.051296    1.962750    0.000000
      5          1           0       -0.105080    2.932828    0.000000
      6          1           0       -0.815637    1.500220    0.000000
 ---------------------------------------------------------------------

 SCF Done:  E(RHF) =  -152.107089351     A.U. after   10 cycles
 E2 =    -0.5262811139D+00 EUMP2 =    -0.15263337046443D+03
 CCSD(T)
 CCSD(T)= -0.15266056279D+03

 The electronic state is 1-A'.
 Alpha  occ. eigenvalues --  -20.55454 -20.54349  -1.32731  -1.31629  -0.70144
 Alpha  occ. eigenvalues --   -0.69006  -0.56142  -0.55038  -0.49842  -0.48747
 Alpha virt. eigenvalues --    0.13415   0.16008   0.20098   0.22129   0.53845
 Alpha virt. eigenvalues --    0.54583   0.57337   0.58454   0.64883   0.75351
 Alpha virt. eigenvalues --    0.78798   0.79171   0.80324   0.81056   0.84451

 Mulliken charges:
               1
     1  O   -0.500459
     2  H    0.246893
     3  H    0.255475
     4  O   -0.503895
     5  H    0.243999
     6  H    0.257988
 Sum of Mulliken charges =  -0.00000

 Dipole moment (field-independent basis, Debye):
    X=             -1.7277    Y=             -1.1647    Z=              0.0000  Tot=              2.0836
 Quadrupole moment (field-independent basis, Debye-Ang):
   XX=             -9.4638   YY=              0.6275   ZZ=            -14.7141
   XY=             -2.8549   XZ=              0.0000   YZ=              0.0000

 Normal termination of Gaussian 16 at Sat Aug 27 08:49:23 2022.
