 Gaussian 16, Revision A.03,
 Gaussian 16:  ES64L-G16RevA.03 25-Dec-2016

 ------------------
 #p CCSD(T)/cc-pVTZ
 ------------------

 ------------
 H2O_H2O_1309
 ------------
 Symbolic Z-matrix:
 Charge =  0 Multiplicity = 1

                         Standard orientation:
 ---------------------------------------------------------------------
 Center     Atomic      Atomic             Coordinates (Angstroms)
 Number     Number       Type             X           Y           Z
 ---------------------------------------------------------------------
      1          8           0        0.031748   -1.484593    0.000000
      2          1           0       -0.768866   -2.054262    0.000000
      3          1           0        0.830274   -2.057185    0.000000
      4          8           0        0.031748    1.503727    0.000000
      5          1           0        0.380943    2.422187    0.000000
      6          1           0       -0.950317    1.536184    0.000000
 ---------------------------------------------------------------------

 SCF Done:  E(RHF) =  -152.102484693     A.U. after   11 cycles
 E2 =    -0.5274189830D+00 EUMP2 =    -0.15262990367571D+03
 CCSD(T)
 CCSD(T)= -0.15265716531D+03

 The electronic state is 1-A'.
 Alpha  occ. eigenvalues --  -20.54262 -20.53777  -1.31601  -1.31029  -0.69023
 Alpha  occ. eigenvalues --   -0.68460  -0.55730  -0.53290  -0.48758  -0.48047
 Alpha virt. eigenvalues --    0.14147   0.16739   0.20423   0.22189   0.52688
 Alpha virt. eigenvalues --    0.58169   0.58200   0.59057   0.66539   0.76574
 Alpha virt. eigenvalues --    0.77486   0.78214   0.79716   0.82647   0.85801

 Mulliken charges:
               1
     1  O   -0.477336
     2  H    0.233941
     3  H    0.244131
     4  O   -0.473173
     5  H    0.230015
     6  H    0.242422
 Sum of Mulliken charges =  -0.00000

 Dipole moment (field-independent basis, Debye):
    X=             -1.0352    Y=             -0.3630    Z=              0.0000  Tot=              1.0970
 Quadrupole moment (field-independent basis, Debye-Ang):
   XX=             -8.5137   YY=             -0.8448   ZZ=            -14.7130
   XY=             -0.8693   XZ=              0.0000   YZ=              0.0000

 Normal termination of Gaussian 16 at Sat Aug 27 03:48:22 2022.
