 Gaussian 16, Revision A.03,
 Gaussian 16:  ES64L-G16RevA.03 25-Dec-2016

 ------------------
 #p CCSD(T)/cc-pVTZ
 ------------------

 ------------
 H2O_H2O_4654
 ------------
 Symbolic Z-matrix:
 Charge =  0 Multiplicity = 1

                         Standard orientation:
 ---------------------------------------------------------------------
 Center     Atomic      Atomic             Coordinates (Angstroms)
 Number     Number       Type             X           Y           Z
 ---------------------------------------------------------------------
      1          8           0        0.014783   -3.274530    0.000000
      2          1           0       -0.785010   -3.845352    0.000000
      3          1           0        0.814132   -3.845973    0.000000
      4          8           0        0.014783    3.278411    0.000000
      5          1           0        0.639584    4.036784    0.000000
      6          1           0       -0.905230    3.623495    0.000000
 ---------------------------------------------------------------------

 SCF Done:  E(RHF) =  -152.106909732     A.U. after   10 cycles
 E2 =    -0.5259199074D+00 EUMP2 =    -0.15263282963986D+03
 CCSD(T)
 CCSD(T)= -0.15266006055D+03

 The electronic state is 1-A'.
 Alpha  occ. eigenvalues --  -20.55239 -20.55219  -1.32536  -1.32515  -0.69942
 Alpha  occ. eigenvalues --   -0.69921  -0.55960  -0.55939  -0.49643  -0.49623
 Alpha virt. eigenvalues --    0.14394   0.14420   0.20445   0.20468   0.54626
 Alpha virt. eigenvalues --    0.54649   0.57500   0.57521   0.68262   0.68296
 Alpha virt. eigenvalues --    0.79236   0.79256   0.80678   0.80701   0.82604

 Mulliken charges:
               1
     1  O   -0.505925
     2  H    0.252660
     3  H    0.253265
     4  O   -0.505906
     5  H    0.252522
     6  H    0.253384
 Sum of Mulliken charges =  -0.00000

 Dipole moment (field-independent basis, Debye):
    X=             -0.5082    Y=             -0.0676    Z=              0.0000  Tot=              0.5126
 Quadrupole moment (field-independent basis, Debye-Ang):
   XX=             -7.9394   YY=             13.8643   ZZ=            -14.7108
   XY=             -1.2184   XZ=              0.0000   YZ=              0.0000

 Normal termination of Gaussian 16 at Sat Aug 27 08:34:08 2022.
