 Gaussian 16, Revision A.03,
 Gaussian 16:  ES64L-G16RevA.03 25-Dec-2016

 ------------------
 #p CCSD(T)/cc-pVTZ
 ------------------

 ------------
 H2O_H2O_3822
 ------------
 Symbolic Z-matrix:
 Charge =  0 Multiplicity = 1

                         Standard orientation:
 ---------------------------------------------------------------------
 Center     Atomic      Atomic             Coordinates (Angstroms)
 Number     Number       Type             X           Y           Z
 ---------------------------------------------------------------------
      1          8           0        0.056710   -2.770746    0.000000
      2          1           0       -0.743847   -3.340495    0.000000
      3          1           0        0.855293   -3.343259    0.000000
      4          8           0        0.056710    2.869867    0.000000
      5          1           0       -0.403671    3.737943    0.000000
      6          1           0       -0.615141    2.152844    0.000000
 ---------------------------------------------------------------------

 SCF Done:  E(RHF) =  -152.107671649     A.U. after   10 cycles
 E2 =    -0.5258751431D+00 EUMP2 =    -0.15263354679196D+03
 CCSD(T)
 CCSD(T)= -0.15266075964D+03

 The electronic state is 1-A'.
 Alpha  occ. eigenvalues --  -20.55737 -20.55004  -1.33036  -1.32303  -0.70442
 Alpha  occ. eigenvalues --   -0.69698  -0.56496  -0.55755  -0.50149  -0.49419
 Alpha virt. eigenvalues --    0.13834   0.14772   0.20038   0.20869   0.54106
 Alpha virt. eigenvalues --    0.54854   0.57057   0.57763   0.67416   0.68704
 Alpha virt. eigenvalues --    0.78733   0.79447   0.80146   0.80676   0.82475

 Mulliken charges:
               1
     1  O   -0.510426
     2  H    0.253565
     3  H    0.256899
     4  O   -0.509899
     5  H    0.251470
     6  H    0.258391
 Sum of Mulliken charges =   0.00000

 Dipole moment (field-independent basis, Debye):
    X=             -1.9456    Y=             -1.7420    Z=              0.0000  Tot=              2.6115
 Quadrupole moment (field-independent basis, Debye-Ang):
   XX=             -9.8273   YY=              2.6251   ZZ=            -14.7129
   XY=             -5.4940   XZ=              0.0000   YZ=              0.0000

 Normal termination of Gaussian 16 at Sat Aug 27 03:35:04 2022.
