 Gaussian 16, Revision A.03,
 Gaussian 16:  ES64L-G16RevA.03 25-Dec-2016

 ------------------
 #p CCSD(T)/cc-pVTZ
 ------------------

 ------------
 H2O_H2O_3706
 ------------
 Symbolic Z-matrix:
 Charge =  0 Multiplicity = 1

                         Standard orientation:
 ---------------------------------------------------------------------
 Center     Atomic      Atomic             Coordinates (Angstroms)
 Number     Number       Type             X           Y           Z
 ---------------------------------------------------------------------
      1          8           0        0.021859   -2.766687    0.000000
      2          1           0       -0.778099   -3.337276    0.000000
      3          1           0        0.821042   -3.338362    0.000000
      4          8           0        0.021859    2.775353    0.000000
      5          1           0        0.542570    3.608639    0.000000
      6          1           0       -0.935260    2.997677    0.000000
 ---------------------------------------------------------------------

 SCF Done:  E(RHF) =  -152.106593295     A.U. after   10 cycles
 E2 =    -0.5259642666D+00 EUMP2 =    -0.15263255756165D+03
 CCSD(T)
 CCSD(T)= -0.15265979422D+03

 The electronic state is 1-A'.
 Alpha  occ. eigenvalues --  -20.55111 -20.55046  -1.32406  -1.32341  -0.69815
 Alpha  occ. eigenvalues --   -0.69747  -0.55815  -0.55750  -0.49512  -0.49446
 Alpha virt. eigenvalues --    0.14436   0.14623   0.20514   0.20615   0.54743
 Alpha virt. eigenvalues --    0.54840   0.57600   0.57674   0.68176   0.68771
 Alpha virt. eigenvalues --    0.79366   0.79430   0.80811   0.80889   0.82744

 Mulliken charges:
               1
     1  O   -0.504075
     2  H    0.251319
     3  H    0.252756
     4  O   -0.503981
     5  H    0.250995
     6  H    0.252986
 Sum of Mulliken charges =  -0.00000

 Dipole moment (field-independent basis, Debye):
    X=             -0.7491    Y=             -0.1520    Z=              0.0000  Tot=              0.7644
 Quadrupole moment (field-independent basis, Debye-Ang):
   XX=             -8.1080   YY=              9.5728   ZZ=            -14.7104
   XY=             -1.4587   XZ=              0.0000   YZ=              0.0000

 Normal termination of Gaussian 16 at Sat Aug 27 02:38:49 2022.
