 Gaussian 16, Revision A.03,
 Gaussian 16:  ES64L-G16RevA.03 25-Dec-2016

 ------------------
 #p CCSD(T)/cc-pVTZ
 ------------------

 ------------
 H2O_H2O_3858
 ------------
 Symbolic Z-matrix:
 Charge =  0 Multiplicity = 1

                         Standard orientation:
 ---------------------------------------------------------------------
 Center     Atomic      Atomic             Coordinates (Angstroms)
 Number     Number       Type             X           Y           Z
 ---------------------------------------------------------------------
      1          8           0        0.028563   -2.842884    0.000000
      2          1           0       -0.771500   -3.413327    0.000000
      3          1           0        0.827641   -3.414706    0.000000
      4          8           0        0.028563    2.858139    0.000000
      5          1           0        0.436218    3.752187    0.000000
      6          1           0       -0.949370    2.953811    0.000000
 ---------------------------------------------------------------------

 SCF Done:  E(RHF) =  -152.106733732     A.U. after   10 cycles
 E2 =    -0.5259485662D+00 EUMP2 =    -0.15263268229797D+03
 CCSD(T)
 CCSD(T)= -0.15265991616D+03

 The electronic state is 1-A'.
 Alpha  occ. eigenvalues --  -20.55184 -20.55075  -1.32479  -1.32370  -0.69887
 Alpha  occ. eigenvalues --   -0.69775  -0.55895  -0.55786  -0.49586  -0.49477
 Alpha virt. eigenvalues --    0.14398   0.14582   0.20467   0.20600   0.54676
 Alpha virt. eigenvalues --    0.54806   0.57540   0.57653   0.68197   0.68611
 Alpha virt. eigenvalues --    0.79293   0.79400   0.80737   0.80858   0.82673

 Mulliken charges:
               1
     1  O   -0.504905
     2  H    0.251585
     3  H    0.253320
     4  O   -0.504772
     5  H    0.251141
     6  H    0.253630
 Sum of Mulliken charges =  -0.00000

 Dipole moment (field-independent basis, Debye):
    X=             -0.9795    Y=             -0.2672    Z=              0.0000  Tot=              1.0154
 Quadrupole moment (field-independent basis, Debye-Ang):
   XX=             -8.3190   YY=              9.7348   ZZ=            -14.7107
   XY=             -2.0425   XZ=              0.0000   YZ=              0.0000

 Normal termination of Gaussian 16 at Sat Aug 27 03:50:33 2022.
