 Gaussian 16, Revision A.03,
 Gaussian 16:  ES64L-G16RevA.03 25-Dec-2016

 ------------------
 #p CCSD(T)/cc-pVTZ
 ------------------

 -----------
 H2O_H2O_210
 -----------
 Symbolic Z-matrix:
 Charge =  0 Multiplicity = 1

                         Standard orientation:
 ---------------------------------------------------------------------
 Center     Atomic      Atomic             Coordinates (Angstroms)
 Number     Number       Type             X           Y           Z
 ---------------------------------------------------------------------
      1          8           0        0.034807   -0.897267    0.000000
      2          1           0       -0.766640   -1.465763    0.000000
      3          1           0        0.832493   -1.471029    0.000000
      4          8           0        0.034807    0.920643    0.000000
      5          1           0        0.324560    1.859552    0.000000
      6          1           0       -0.947324    0.890238    0.000000
 ---------------------------------------------------------------------

 SCF Done:  E(RHF) =  -152.012565424     A.U. after   11 cycles
 E2 =    -0.5405228535D+00 EUMP2 =    -0.15255308827755D+03
 CCSD(T)
 CCSD(T)= -0.15257925716D+03

 The electronic state is 1-A'.
 Alpha  occ. eigenvalues --  -20.52243 -20.51488  -1.34201  -1.27696  -0.70696
 Alpha  occ. eigenvalues --   -0.67766  -0.60649  -0.50900  -0.44207  -0.41125
 Alpha virt. eigenvalues --    0.14328   0.18637   0.20029   0.23507   0.53325
 Alpha virt. eigenvalues --    0.56777   0.58648   0.64975   0.71482   0.77788
 Alpha virt. eigenvalues --    0.79645   0.82488   0.83416   0.85348   0.88544

 Mulliken charges:
               1
     1  O   -0.406437
     2  H    0.192236
     3  H    0.212756
     4  O   -0.377805
     5  H    0.149892
     6  H    0.229357
 Sum of Mulliken charges =  -0.00000

 Dipole moment (field-independent basis, Debye):
    X=             -0.9736    Y=             -0.5174    Z=              0.0000  Tot=              1.1026
 Quadrupole moment (field-independent basis, Debye-Ang):
   XX=             -8.8761   YY=             -7.1122   ZZ=            -14.7162
   XY=             -0.4546   XZ=              0.0000   YZ=              0.0000

 Normal termination of Gaussian 16 at Fri Aug 26 14:06:06 2022.
