 Gaussian 16, Revision A.03,
 Gaussian 16:  ES64L-G16RevA.03 25-Dec-2016

 ------------------
 #p CCSD(T)/cc-pVTZ
 ------------------

 ------------
 H2O_H2O_3798
 ------------
 Symbolic Z-matrix:
 Charge =  0 Multiplicity = 1

                         Standard orientation:
 ---------------------------------------------------------------------
 Center     Atomic      Atomic             Coordinates (Angstroms)
 Number     Number       Type             X           Y           Z
 ---------------------------------------------------------------------
      1          8           0        0.057084   -2.753412    0.000000
      2          1           0       -0.743484   -3.323146    0.000000
      3          1           0        0.855656   -3.325941    0.000000
      4          8           0        0.057084    2.859968    0.000000
      5          1           0       -0.459070    3.696085    0.000000
      6          1           0       -0.566448    2.100552    0.000000
 ---------------------------------------------------------------------

 SCF Done:  E(RHF) =  -152.107763439     A.U. after   10 cycles
 E2 =    -0.5258690655D+00 EUMP2 =    -0.15263363250470D+03
 CCSD(T)
 CCSD(T)= -0.15266084315D+03

 The electronic state is 1-A'.
 Alpha  occ. eigenvalues --  -20.55786 -20.54991  -1.33086  -1.32291  -0.70491
 Alpha  occ. eigenvalues --   -0.69686  -0.56550  -0.55746  -0.50200  -0.49408
 Alpha virt. eigenvalues --    0.13773   0.14802   0.20002   0.20904   0.54056
 Alpha virt. eigenvalues --    0.54857   0.57015   0.57773   0.67324   0.68743
 Alpha virt. eigenvalues --    0.78683   0.79457   0.80091   0.80604   0.82529

 Mulliken charges:
               1
     1  O   -0.510941
     2  H    0.253824
     3  H    0.257169
     4  O   -0.510369
     5  H    0.251546
     6  H    0.258771
 Sum of Mulliken charges =   0.00000

 Dipole moment (field-independent basis, Debye):
    X=             -1.9583    Y=             -1.8736    Z=              0.0000  Tot=              2.7102
 Quadrupole moment (field-independent basis, Debye-Ang):
   XX=             -9.8541   YY=              1.8489   ZZ=            -14.7131
   XY=             -5.6368   XZ=              0.0000   YZ=              0.0000

 Normal termination of Gaussian 16 at Sat Aug 27 03:24:47 2022.
