 Gaussian 16, Revision A.03,
 Gaussian 16:  ES64L-G16RevA.03 25-Dec-2016

 ------------------
 #p CCSD(T)/cc-pVTZ
 ------------------

 ------------
 H2O_H2O_2159
 ------------
 Symbolic Z-matrix:
 Charge =  0 Multiplicity = 1

                         Standard orientation:
 ---------------------------------------------------------------------
 Center     Atomic      Atomic             Coordinates (Angstroms)
 Number     Number       Type             X           Y           Z
 ---------------------------------------------------------------------
      1          8           0        0.031744   -1.936640    0.000000
      2          1           0       -0.768628   -2.506649    0.000000
      3          1           0        0.830513   -2.508893    0.000000
      4          8           0        0.031744    1.955801    0.000000
      5          1           0        0.380548    2.874410    0.000000
      6          1           0       -0.950335    1.987841    0.000000
 ---------------------------------------------------------------------

 SCF Done:  E(RHF) =  -152.105531236     A.U. after   10 cycles
 E2 =    -0.5263267449D+00 EUMP2 =    -0.15263185798067D+03
 CCSD(T)
 CCSD(T)= -0.15265909175D+03

 The electronic state is 1-A'.
 Alpha  occ. eigenvalues --  -20.54785 -20.54476  -1.32067  -1.31753  -0.69484
 Alpha  occ. eigenvalues --   -0.69157  -0.55496  -0.54998  -0.49169  -0.48853
 Alpha virt. eigenvalues --    0.13965   0.15780   0.20465   0.21348   0.53671
 Alpha virt. eigenvalues --    0.55707   0.57829   0.58203   0.63122   0.75201
 Alpha virt. eigenvalues --    0.79324   0.80102   0.80367   0.81081   0.82805

 Mulliken charges:
               1
     1  O   -0.495285
     2  H    0.245136
     3  H    0.250521
     4  O   -0.495230
     5  H    0.243920
     6  H    0.250939
 Sum of Mulliken charges =  -0.00000

 Dipole moment (field-independent basis, Debye):
    X=             -1.0703    Y=             -0.3491    Z=              0.0000  Tot=              1.1258
 Quadrupole moment (field-independent basis, Debye-Ang):
   XX=             -8.4618   YY=              2.7294   ZZ=            -14.7104
   XY=             -1.3418   XZ=              0.0000   YZ=              0.0000

 Normal termination of Gaussian 16 at Sat Aug 27 08:55:15 2022.
