 Gaussian 16, Revision A.03,
 Gaussian 16:  ES64L-G16RevA.03 25-Dec-2016

 ------------------
 #p CCSD(T)/cc-pVTZ
 ------------------

 ------------
 H2O_H2O_4033
 ------------
 Symbolic Z-matrix:
 Charge =  0 Multiplicity = 1

                         Standard orientation:
 ---------------------------------------------------------------------
 Center     Atomic      Atomic             Coordinates (Angstroms)
 Number     Number       Type             X           Y           Z
 ---------------------------------------------------------------------
      1          8           0        0.028563   -2.935955    0.000000
      2          1           0       -0.771485   -3.506419    0.000000
      3          1           0        0.827657   -3.507754    0.000000
      4          8           0        0.028563    2.951210    0.000000
      5          1           0        0.436194    3.845271    0.000000
      6          1           0       -0.949373    3.046856    0.000000
 ---------------------------------------------------------------------

 SCF Done:  E(RHF) =  -152.106801683     A.U. after   10 cycles
 E2 =    -0.5259387825D+00 EUMP2 =    -0.15263274046564D+03
 CCSD(T)
 CCSD(T)= -0.15265997311D+03

 The electronic state is 1-A'.
 Alpha  occ. eigenvalues --  -20.55212 -20.55111  -1.32508  -1.32406  -0.69916
 Alpha  occ. eigenvalues --   -0.69811  -0.55927  -0.55825  -0.49615  -0.49513
 Alpha virt. eigenvalues --    0.14393   0.14536   0.20452   0.20569   0.54651
 Alpha virt. eigenvalues --    0.54767   0.57518   0.57622   0.68232   0.68492
 Alpha virt. eigenvalues --    0.79264   0.79364   0.80707   0.80819   0.82639

 Mulliken charges:
               1
     1  O   -0.505302
     2  H    0.251859
     3  H    0.253443
     4  O   -0.505188
     5  H    0.251448
     6  H    0.253740
 Sum of Mulliken charges =  -0.00000

 Dipole moment (field-independent basis, Debye):
    X=             -0.9802    Y=             -0.2669    Z=              0.0000  Tot=              1.0159
 Quadrupole moment (field-independent basis, Debye-Ang):
   XX=             -8.3180   YY=             10.4323   ZZ=            -14.7107
   XY=             -2.1328   XZ=              0.0000   YZ=              0.0000

 Normal termination of Gaussian 16 at Sat Aug 27 04:59:33 2022.
