 Gaussian 16, Revision A.03,
 Gaussian 16:  ES64L-G16RevA.03 25-Dec-2016

 ------------------
 #p CCSD(T)/cc-pVTZ
 ------------------

 ------------
 H2O_H2O_3264
 ------------
 Symbolic Z-matrix:
 Charge =  0 Multiplicity = 1

                         Standard orientation:
 ---------------------------------------------------------------------
 Center     Atomic      Atomic             Coordinates (Angstroms)
 Number     Number       Type             X           Y           Z
 ---------------------------------------------------------------------
      1          8           0        0.045345   -2.507872    0.000000
      2          1           0       -0.755105   -3.077770    0.000000
      3          1           0        0.844035   -3.080235    0.000000
      4          8           0        0.045345    2.552421    0.000000
      5          1           0        0.080498    3.534394    0.000000
      6          1           0       -0.894953    2.267212    0.000000
 ---------------------------------------------------------------------

 SCF Done:  E(RHF) =  -152.106881315     A.U. after   10 cycles
 E2 =    -0.5259658014D+00 EUMP2 =    -0.15263284711667D+03
 CCSD(T)
 CCSD(T)= -0.15266007540D+03

 The electronic state is 1-A'.
 Alpha  occ. eigenvalues --  -20.55313 -20.54901  -1.32609  -1.32194  -0.70017
 Alpha  occ. eigenvalues --   -0.69591  -0.56030  -0.55616  -0.49716  -0.49304
 Alpha virt. eigenvalues --    0.14087   0.14918   0.20315   0.20875   0.54482
 Alpha virt. eigenvalues --    0.54982   0.57420   0.57816   0.67405   0.69588
 Alpha virt. eigenvalues --    0.79163   0.79567   0.80550   0.81018   0.82739

 Mulliken charges:
               1
     1  O   -0.505749
     2  H    0.250969
     3  H    0.254825
     4  O   -0.505320
     5  H    0.249604
     6  H    0.255671
 Sum of Mulliken charges =  -0.00000

 Dipole moment (field-independent basis, Debye):
    X=             -1.5507    Y=             -0.7868    Z=              0.0000  Tot=              1.7389
 Quadrupole moment (field-independent basis, Debye-Ang):
   XX=             -9.0989   YY=              5.4759   ZZ=            -14.7113
   XY=             -3.1684   XZ=              0.0000   YZ=              0.0000

 Normal termination of Gaussian 16 at Fri Aug 26 20:50:50 2022.
