 Gaussian 16, Revision A.03,
 Gaussian 16:  ES64L-G16RevA.03 25-Dec-2016

 ------------------
 #p CCSD(T)/cc-pVTZ
 ------------------

 ------------
 H2O_H2O_3811
 ------------
 Symbolic Z-matrix:
 Charge =  0 Multiplicity = 1

                         Standard orientation:
 ---------------------------------------------------------------------
 Center     Atomic      Atomic             Coordinates (Angstroms)
 Number     Number       Type             X           Y           Z
 ---------------------------------------------------------------------
      1          8           0        0.037674   -2.809229    0.000000
      2          1           0       -0.762553   -3.379443    0.000000
      3          1           0        0.836588   -3.381279    0.000000
      4          8           0        0.037674    2.837489    0.000000
      5          1           0        0.263348    3.793824    0.000000
      6          1           0       -0.940162    2.740817    0.000000
 ---------------------------------------------------------------------

 SCF Done:  E(RHF) =  -152.106855077     A.U. after   10 cycles
 E2 =    -0.5259403210D+00 EUMP2 =    -0.15263279539774D+03
 CCSD(T)
 CCSD(T)= -0.15266002652D+03

 The electronic state is 1-A'.
 Alpha  occ. eigenvalues --  -20.55263 -20.55057  -1.32559  -1.32351  -0.69967
 Alpha  occ. eigenvalues --   -0.69754  -0.55980  -0.55774  -0.49666  -0.49460
 Alpha virt. eigenvalues --    0.14319   0.14617   0.20402   0.20643   0.54594
 Alpha virt. eigenvalues --    0.54830   0.57469   0.57680   0.68084   0.68637
 Alpha virt. eigenvalues --    0.79212   0.79416   0.80653   0.80877   0.82598

 Mulliken charges:
               1
     1  O   -0.505633
     2  H    0.251641
     3  H    0.253993
     4  O   -0.505410
     5  H    0.250931
     6  H    0.254478
 Sum of Mulliken charges =  -0.00000

 Dipole moment (field-independent basis, Debye):
    X=             -1.2919    Y=             -0.4955    Z=              0.0000  Tot=              1.3836
 Quadrupole moment (field-independent basis, Debye-Ang):
   XX=             -8.6979   YY=              8.6084   ZZ=            -14.7109
   XY=             -2.8136   XZ=              0.0000   YZ=              0.0000

 Normal termination of Gaussian 16 at Sat Aug 27 03:30:25 2022.
