 Gaussian 16, Revision A.03,
 Gaussian 16:  ES64L-G16RevA.03 25-Dec-2016

 ------------------
 #p CCSD(T)/cc-pVTZ
 ------------------

 ------------
 H2O_H2O_3732
 ------------
 Symbolic Z-matrix:
 Charge =  0 Multiplicity = 1

                         Standard orientation:
 ---------------------------------------------------------------------
 Center     Atomic      Atomic             Coordinates (Angstroms)
 Number     Number       Type             X           Y           Z
 ---------------------------------------------------------------------
      1          8           0        0.025265   -2.778313    0.000000
      2          1           0       -0.774752   -3.348820    0.000000
      3          1           0        0.824390   -3.350069    0.000000
      4          8           0        0.025265    2.790054    0.000000
      5          1           0        0.490449    3.655565    0.000000
      6          1           0       -0.944330    2.949402    0.000000
 ---------------------------------------------------------------------

 SCF Done:  E(RHF) =  -152.106640221     A.U. after   10 cycles
 E2 =    -0.5259597377D+00 EUMP2 =    -0.15263259995897D+03
 CCSD(T)
 CCSD(T)= -0.15265983564D+03

 The electronic state is 1-A'.
 Alpha  occ. eigenvalues --  -20.55138 -20.55050  -1.32433  -1.32344  -0.69841
 Alpha  occ. eigenvalues --   -0.69750  -0.55844  -0.55756  -0.49539  -0.49451
 Alpha virt. eigenvalues --    0.14419   0.14617   0.20496   0.20617   0.54719
 Alpha virt. eigenvalues --    0.54835   0.57578   0.57672   0.68169   0.68736
 Alpha virt. eigenvalues --    0.79339   0.79426   0.80784   0.80885   0.82722

 Mulliken charges:
               1
     1  O   -0.504354
     2  H    0.251358
     3  H    0.252997
     4  O   -0.504234
     5  H    0.250965
     6  H    0.253269
 Sum of Mulliken charges =  -0.00000

 Dipole moment (field-independent basis, Debye):
    X=             -0.8660    Y=             -0.2059    Z=              0.0000  Tot=              0.8901
 Quadrupole moment (field-independent basis, Debye-Ang):
   XX=             -8.2084   YY=              9.4721   ZZ=            -14.7105
   XY=             -1.7218   XZ=              0.0000   YZ=              0.0000

 Normal termination of Gaussian 16 at Sat Aug 27 02:50:33 2022.
