 Gaussian 16, Revision A.03,
 Gaussian 16:  ES64L-G16RevA.03 25-Dec-2016

 ------------------
 #p CCSD(T)/cc-pVTZ
 ------------------

 -----------
 H2O_H2O_121
 -----------
 Symbolic Z-matrix:
 Charge =  0 Multiplicity = 1

                         Standard orientation:
 ---------------------------------------------------------------------
 Center     Atomic      Atomic             Coordinates (Angstroms)
 Number     Number       Type             X           Y           Z
 ---------------------------------------------------------------------
      1          8           0        0.056275   -0.807185    0.000000
      2          1           0       -0.746513   -1.373787    0.000000
      3          1           0        0.852604   -1.382829    0.000000
      4          8           0        0.056275    0.898492    0.000000
      5          1           0       -0.342824    1.796393    0.000000
      6          1           0       -0.663665    0.229767    0.000000
 ---------------------------------------------------------------------

 SCF Done:  E(RHF) =  -151.932863190     A.U. after   12 cycles
 E2 =    -0.5490546073D+00 EUMP2 =    -0.15248191779757D+03
 CCSD(T)
 CCSD(T)= -0.15250665108D+03

 The electronic state is 1-A'.
 Alpha  occ. eigenvalues --  -20.55925 -20.48255  -1.41264  -1.25849  -0.78538
 Alpha  occ. eigenvalues --   -0.72545  -0.55273  -0.51380  -0.42822  -0.42709
 Alpha virt. eigenvalues --    0.12976   0.18324   0.20297   0.25996   0.49662
 Alpha virt. eigenvalues --    0.53908   0.62371   0.68817   0.73265   0.76096
 Alpha virt. eigenvalues --    0.77888   0.79867   0.84353   0.85014   0.88763

 Mulliken charges:
               1
     1  O   -0.295264
     2  H    0.160516
     3  H    0.211109
     4  O   -0.469834
     5  H    0.130199
     6  H    0.263274
 Sum of Mulliken charges =  -0.00000

 Dipole moment (field-independent basis, Debye):
    X=             -1.4700    Y=             -2.3056    Z=              0.0000  Tot=              2.7344
 Quadrupole moment (field-independent basis, Debye-Ang):
   XX=             -9.8260   YY=             -8.6979   ZZ=            -14.5524
   XY=             -1.5132   XZ=              0.0000   YZ=              0.0000

 Normal termination of Gaussian 16 at Fri Aug 26 12:57:37 2022.
