 Gaussian 16, Revision A.03,
 Gaussian 16:  ES64L-G16RevA.03 25-Dec-2016

 ------------------
 #p CCSD(T)/cc-pVTZ
 ------------------

 ------------
 H2O_H2O_3475
 ------------
 Symbolic Z-matrix:
 Charge =  0 Multiplicity = 1

                         Standard orientation:
 ---------------------------------------------------------------------
 Center     Atomic      Atomic             Coordinates (Angstroms)
 Number     Number       Type             X           Y           Z
 ---------------------------------------------------------------------
      1          8           0        0.000000   -0.000000    2.651730
      2          1           0        0.000000    0.799571    3.222862
      3          1           0       -0.000000   -0.799571    3.222862
      4          8           0        0.000000   -0.000000   -2.651730
      5          1           0       -0.000000   -0.799571   -3.222862
      6          1           0        0.000000    0.799571   -3.222862
 ---------------------------------------------------------------------

 SCF Done:  E(RHF) =  -152.106359926     A.U. after   10 cycles
 E2 =    -0.5259911298D+00 EUMP2 =    -0.15263235105563D+03
 CCSD(T)
 CCSD(T)= -0.15265959228D+03

 The electronic state is 1-AG.
 Alpha  occ. eigenvalues --  -20.54998 -20.54998  -1.32292  -1.32292  -0.69701
 Alpha  occ. eigenvalues --   -0.69700  -0.55694  -0.55684  -0.49396  -0.49395
 Alpha virt. eigenvalues --    0.14476   0.14706   0.20574   0.20651   0.54825
 Alpha virt. eigenvalues --    0.54919   0.57682   0.57718   0.68036   0.69131
 Alpha virt. eigenvalues --    0.79474   0.79488   0.80907   0.80961   0.82783

 Mulliken charges:
               1
     1  O   -0.502696
     2  H    0.251348
     3  H    0.251348
     4  O   -0.502696
     5  H    0.251348
     6  H    0.251348
 Sum of Mulliken charges =  -0.00000

 Dipole moment (field-independent basis, Debye):
    X=             -0.0000    Y=              0.0000    Z=             -0.0000  Tot=              0.0000
 Quadrupole moment (field-independent basis, Debye-Ang):
   XX=            -14.7100   YY=             -7.8108   ZZ=              9.1620
   XY=              0.0000   XZ=              0.0000   YZ=             -0.0000

 P4DQ=-152.6414734\MP4SDQ=-152.6445379\CCSD=-152.643948\CCSD(T)=-152.65
 Normal termination of Gaussian 16 at Fri Aug 26 22:38:56 2022.
