 Gaussian 16, Revision A.03,
 Gaussian 16:  ES64L-G16RevA.03 25-Dec-2016

 ------------------
 #p CCSD(T)/cc-pVTZ
 ------------------

 ------------
 H2O_H2O_1512
 ------------
 Symbolic Z-matrix:
 Charge =  0 Multiplicity = 1

                         Standard orientation:
 ---------------------------------------------------------------------
 Center     Atomic      Atomic             Coordinates (Angstroms)
 Number     Number       Type             X           Y           Z
 ---------------------------------------------------------------------
      1          8           0        0.040421   -1.583277    0.000000
      2          1           0       -0.760389   -2.152670    0.000000
      3          1           0        0.838749   -2.156145    0.000000
      4          8           0        0.040421    1.616558    0.000000
      5          1           0        0.204058    2.585437    0.000000
      6          1           0       -0.929161    1.457133    0.000000
 ---------------------------------------------------------------------

 SCF Done:  E(RHF) =  -152.104595143     A.U. after   10 cycles
 E2 =    -0.5270084398D+00 EUMP2 =    -0.15263160358291D+03
 CCSD(T)
 CCSD(T)= -0.15265882765D+03

 The electronic state is 1-A'.
 Alpha  occ. eigenvalues --  -20.54740 -20.53949  -1.32032  -1.31205  -0.69458
 Alpha  occ. eigenvalues --   -0.68606  -0.55686  -0.54113  -0.49150  -0.48289
 Alpha virt. eigenvalues --    0.13909   0.16548   0.20298   0.22260   0.53411
 Alpha virt. eigenvalues --    0.56396   0.57858   0.58683   0.64899   0.76733
 Alpha virt. eigenvalues --    0.77933   0.78477   0.79155   0.81926   0.85454

 Mulliken charges:
               1
     1  O   -0.484089
     2  H    0.237631
     3  H    0.248389
     4  O   -0.484217
     5  H    0.233752
     6  H    0.248534
 Sum of Mulliken charges =  -0.00000

 Dipole moment (field-independent basis, Debye):
    X=             -1.3317    Y=             -0.6277    Z=              0.0000  Tot=              1.4722
 Quadrupole moment (field-independent basis, Debye-Ang):
   XX=             -8.8765   YY=             -0.3653   ZZ=            -14.7132
   XY=             -1.4227   XZ=              0.0000   YZ=              0.0000

 Normal termination of Gaussian 16 at Sat Aug 27 05:12:13 2022.
