 Gaussian 16, Revision A.03,
 Gaussian 16:  ES64L-G16RevA.03 25-Dec-2016

 ------------------
 #p CCSD(T)/cc-pVTZ
 ------------------

 ------------
 H2O_H2O_1389
 ------------
 Symbolic Z-matrix:
 Charge =  0 Multiplicity = 1

                         Standard orientation:
 ---------------------------------------------------------------------
 Center     Atomic      Atomic             Coordinates (Angstroms)
 Number     Number       Type             X           Y           Z
 ---------------------------------------------------------------------
      1          8           0        0.045368   -1.510726    0.000000
      2          1           0       -0.755654   -2.079822    0.000000
      3          1           0        0.843483   -2.083891    0.000000
      4          8           0        0.045368    1.555185    0.000000
      5          1           0        0.081505    2.537122    0.000000
      6          1           0       -0.895217    1.270917    0.000000
 ---------------------------------------------------------------------

 SCF Done:  E(RHF) =  -152.104729458     A.U. after   10 cycles
 E2 =    -0.5272395965D+00 EUMP2 =    -0.15263196905473D+03
 CCSD(T)
 CCSD(T)= -0.15265917747D+03

 The electronic state is 1-A'.
 Alpha  occ. eigenvalues --  -20.54931 -20.53767  -1.32238  -1.31018  -0.69663
 Alpha  occ. eigenvalues --   -0.68427  -0.55864  -0.53968  -0.49360  -0.48103
 Alpha virt. eigenvalues --    0.13813   0.16749   0.20177   0.22714   0.53872
 Alpha virt. eigenvalues --    0.56502   0.57695   0.58490   0.66227   0.76146
 Alpha virt. eigenvalues --    0.77318   0.77383   0.79723   0.82224   0.85290

 Mulliken charges:
               1
     1  O   -0.482920
     2  H    0.236721
     3  H    0.249540
     4  O   -0.484319
     5  H    0.231101
     6  H    0.249875
 Sum of Mulliken charges =  -0.00000

 Dipole moment (field-independent basis, Debye):
    X=             -1.4835    Y=             -0.8474    Z=              0.0000  Tot=              1.7085
 Quadrupole moment (field-independent basis, Debye-Ang):
   XX=             -9.1417   YY=             -1.1998   ZZ=            -14.7160
   XY=             -1.6561   XZ=              0.0000   YZ=              0.0000

 Normal termination of Gaussian 16 at Sat Aug 27 04:26:47 2022.
