 Gaussian 16, Revision A.03,
 Gaussian 16:  ES64L-G16RevA.03 25-Dec-2016

 ------------------
 #p CCSD(T)/cc-pVTZ
 ------------------

 -----------
 H2O_H2O_722
 -----------
 Symbolic Z-matrix:
 Charge =  0 Multiplicity = 1

                         Standard orientation:
 ---------------------------------------------------------------------
 Center     Atomic      Atomic             Coordinates (Angstroms)
 Number     Number       Type             X           Y           Z
 ---------------------------------------------------------------------
      1          8           0        0.056831   -1.122197    0.000000
      2          1           0       -0.745110   -1.689998    0.000000
      3          1           0        0.854019   -1.696651    0.000000
      4          8           0        0.056831    1.221042    0.000000
      5          1           0       -0.401438    2.090235    0.000000
      6          1           0       -0.616762    0.505655    0.000000
 ---------------------------------------------------------------------

 SCF Done:  E(RHF) =  -152.092975502     A.U. after   11 cycles
 E2 =    -0.5317166668D+00 EUMP2 =    -0.15262469216918D+03
 CCSD(T)
 CCSD(T)= -0.15265149876D+03

 The electronic state is 1-A'.
 Alpha  occ. eigenvalues --  -20.56565 -20.51390  -1.34802  -1.28931  -0.72142
 Alpha  occ. eigenvalues --   -0.68777  -0.55321  -0.52568  -0.51690  -0.45956
 Alpha virt. eigenvalues --    0.13057   0.18448   0.19347   0.26386   0.50488
 Alpha virt. eigenvalues --    0.55882   0.60956   0.62700   0.71668   0.73707
 Alpha virt. eigenvalues --    0.76750   0.82462   0.83647   0.83708   0.86982

 Mulliken charges:
               1
     1  O   -0.443618
     2  H    0.226347
     3  H    0.248634
     4  O   -0.506010
     5  H    0.211544
     6  H    0.263103
 Sum of Mulliken charges =   0.00000

 Dipole moment (field-independent basis, Debye):
    X=             -1.7455    Y=             -2.1506    Z=              0.0000  Tot=              2.7698
 Quadrupole moment (field-independent basis, Debye-Ang):
   XX=             -9.8310   YY=             -5.5196   ZZ=            -14.7048
   XY=             -2.3745   XZ=              0.0000   YZ=              0.0000

 04879\MP4DQ=-152.632495\MP4SDQ=-152.6357738\CCSD=-152.6350937\CCSD(T)=
 Normal termination of Gaussian 16 at Fri Aug 26 19:25:44 2022.
