 Gaussian 16, Revision A.03,
 Gaussian 16:  ES64L-G16RevA.03 25-Dec-2016

 ------------------
 #p CCSD(T)/cc-pVTZ
 ------------------

 ------------
 H2O_H2O_2518
 ------------
 Symbolic Z-matrix:
 Charge =  0 Multiplicity = 1

                         Standard orientation:
 ---------------------------------------------------------------------
 Center     Atomic      Atomic             Coordinates (Angstroms)
 Number     Number       Type             X           Y           Z
 ---------------------------------------------------------------------
      1          8           0        0.052841   -2.095015    0.000000
      2          1           0       -0.747946   -2.664441    0.000000
      3          1           0        0.851192   -2.667851    0.000000
      4          8           0        0.052841    2.165304    0.000000
      5          1           0       -0.166791    3.123045    0.000000
      6          1           0       -0.781907    1.646938    0.000000
 ---------------------------------------------------------------------

 SCF Done:  E(RHF) =  -152.107332837     A.U. after   10 cycles
 E2 =    -0.5260891586D+00 EUMP2 =    -0.15263342199528D+03
 CCSD(T)
 CCSD(T)= -0.15266062332D+03

 The electronic state is 1-A'.
 Alpha  occ. eigenvalues --  -20.55542 -20.54557  -1.32828  -1.31847  -0.70237
 Alpha  occ. eigenvalues --   -0.69228  -0.56257  -0.55278  -0.49939  -0.48964
 Alpha virt. eigenvalues --    0.13416   0.15649   0.20089   0.21700   0.54016
 Alpha virt. eigenvalues --    0.54733   0.57266   0.58183   0.65869   0.73301
 Alpha virt. eigenvalues --    0.78912   0.79772   0.79929   0.82071   0.82551

 Mulliken charges:
               1
     1  O   -0.505207
     2  H    0.249662
     3  H    0.256596
     4  O   -0.506781
     5  H    0.246935
     6  H    0.258794
 Sum of Mulliken charges =   0.00000

 Dipole moment (field-independent basis, Debye):
    X=             -1.7931    Y=             -1.2699    Z=              0.0000  Tot=              2.1972
 Quadrupole moment (field-independent basis, Debye-Ang):
   XX=             -9.5604   YY=              1.3941   ZZ=            -14.7136
   XY=             -3.4071   XZ=              0.0000   YZ=              0.0000

 Normal termination of Gaussian 16 at Fri Aug 26 13:15:26 2022.
