 Gaussian 16, Revision A.03,
 Gaussian 16:  ES64L-G16RevA.03 25-Dec-2016

 ------------------
 #p CCSD(T)/cc-pVTZ
 ------------------

 -----------
 H2O_H2O_688
 -----------
 Symbolic Z-matrix:
 Charge =  0 Multiplicity = 1

                         Standard orientation:
 ---------------------------------------------------------------------
 Center     Atomic      Atomic             Coordinates (Angstroms)
 Number     Number       Type             X           Y           Z
 ---------------------------------------------------------------------
      1          8           0        0.043002   -1.141600    0.000000
      2          1           0       -0.758384   -1.710184    0.000000
      3          1           0        0.840750   -1.715275    0.000000
      4          8           0        0.043002    1.180238    0.000000
      5          1           0        0.143908    2.157645    0.000000
      6          1           0       -0.914302    0.958709    0.000000
 ---------------------------------------------------------------------

 SCF Done:  E(RHF) =  -152.089340484     A.U. after   11 cycles
 E2 =    -0.5305830699D+00 EUMP2 =    -0.15261992355436D+03
 CCSD(T)
 CCSD(T)= -0.15264707658D+03

 The electronic state is 1-A'.
 Alpha  occ. eigenvalues --  -20.54008 -20.52643  -1.32105  -1.29779  -0.69410
 Alpha  occ. eigenvalues --   -0.67794  -0.57020  -0.50289  -0.49300  -0.46612
 Alpha virt. eigenvalues --    0.14070   0.17657   0.20182   0.23436   0.53164
 Alpha virt. eigenvalues --    0.57825   0.58226   0.61549   0.70985   0.75640
 Alpha virt. eigenvalues --    0.78382   0.80757   0.83402   0.85543   0.87628

 Mulliken charges:
               1
     1  O   -0.462709
     2  H    0.222965
     3  H    0.241673
     4  O   -0.446637
     5  H    0.201658
     6  H    0.243050
 Sum of Mulliken charges =  -0.00000

 Dipole moment (field-independent basis, Debye):
    X=             -1.3134    Y=             -0.7649    Z=              0.0000  Tot=              1.5199
 Quadrupole moment (field-independent basis, Debye-Ang):
   XX=             -9.0973   YY=             -4.1053   ZZ=            -14.7264
   XY=             -0.9840   XZ=              0.0000   YZ=              0.0000

 Normal termination of Gaussian 16 at Fri Aug 26 19:05:55 2022.
