 Gaussian 16, Revision A.03,
 Gaussian 16:  ES64L-G16RevA.03 25-Dec-2016

 ------------------
 #p CCSD(T)/cc-pVTZ
 ------------------

 ------------
 H2O_H2O_4926
 ------------
 Symbolic Z-matrix:
 Charge =  0 Multiplicity = 1

                         Standard orientation:
 ---------------------------------------------------------------------
 Center     Atomic      Atomic             Coordinates (Angstroms)
 Number     Number       Type             X           Y           Z
 ---------------------------------------------------------------------
      1          8           0        0.003735   -3.422761    0.000000
      2          1           0       -0.795889   -3.993818    0.000000
      3          1           0        0.803253   -3.993968    0.000000
      4          8           0        0.003735    3.423004    0.000000
      5          1           0        0.764300    4.045137    0.000000
      6          1           0       -0.831429    3.940698    0.000000
 ---------------------------------------------------------------------

 SCF Done:  E(RHF) =  -152.106958788     A.U. after   10 cycles
 E2 =    -0.5259130704D+00 EUMP2 =    -0.15263287185790D+03
 CCSD(T)
 CCSD(T)= -0.15266010188D+03

 The electronic state is 1-A'.
 Alpha  occ. eigenvalues --  -20.55257 -20.55256  -1.32554  -1.32553  -0.69961
 Alpha  occ. eigenvalues --   -0.69959  -0.55981  -0.55979  -0.49662  -0.49661
 Alpha virt. eigenvalues --    0.14380   0.14387   0.20433   0.20437   0.54607
 Alpha virt. eigenvalues --    0.54609   0.57485   0.57487   0.68240   0.68249
 Alpha virt. eigenvalues --    0.79217   0.79219   0.80658   0.80660   0.82584

 Mulliken charges:
               1
     1  O   -0.506212
     2  H    0.253038
     3  H    0.253173
     4  O   -0.506211
     5  H    0.253009
     6  H    0.253201
 Sum of Mulliken charges =  -0.00000

 Dipole moment (field-independent basis, Debye):
    X=             -0.1285    Y=             -0.0042    Z=              0.0000  Tot=              0.1285
 Quadrupole moment (field-independent basis, Debye-Ang):
   XX=             -7.8093   YY=             15.3255   ZZ=            -14.7109
   XY=             -0.3223   XZ=              0.0000   YZ=              0.0000

 Normal termination of Gaussian 16 at Sat Aug 27 10:09:48 2022.
