 Gaussian 16, Revision A.03,
 Gaussian 16:  ES64L-G16RevA.03 25-Dec-2016

 ------------------
 #p CCSD(T)/cc-pVTZ
 ------------------

 -----------
 H2O_H2O_124
 -----------
 Symbolic Z-matrix:
 Charge =  0 Multiplicity = 1

                         Standard orientation:
 ---------------------------------------------------------------------
 Center     Atomic      Atomic             Coordinates (Angstroms)
 Number     Number       Type             X           Y           Z
 ---------------------------------------------------------------------
      1          8           0        0.057442   -0.795098    0.000000
      2          1           0       -0.745412   -1.361605    0.000000
      3          1           0        0.853703   -1.370835    0.000000
      4          8           0        0.057442    0.908663    0.000000
      5          1           0       -0.509066    1.711517    0.000000
      6          1           0       -0.518295    0.112400    0.000000
 ---------------------------------------------------------------------

 SCF Done:  E(RHF) =  -151.897886583     A.U. after   11 cycles
 E2 =    -0.5502200422D+00 EUMP2 =    -0.15244810662516D+03
 CCSD(T)
 CCSD(T)= -0.15247211410D+03

 The electronic state is 1-A'.
 Alpha  occ. eigenvalues --  -20.58328 -20.45039  -1.45187  -1.24570  -0.82304
 Alpha  occ. eigenvalues --   -0.74653  -0.57677  -0.49075  -0.41749  -0.41250
 Alpha virt. eigenvalues --    0.12064   0.17163   0.21217   0.27740   0.47833
 Alpha virt. eigenvalues --    0.52276   0.63994   0.70472   0.73368   0.74838
 Alpha virt. eigenvalues --    0.77510   0.77533   0.84842   0.85536   0.89340

 Mulliken charges:
               1
     1  O   -0.244681
     2  H    0.173264
     3  H    0.227961
     4  O   -0.575690
     5  H    0.139390
     6  H    0.279757
 Sum of Mulliken charges =  -0.00000

 Dipole moment (field-independent basis, Debye):
    X=             -1.4630    Y=             -3.2797    Z=              0.0000  Tot=              3.5912
 Quadrupole moment (field-independent basis, Debye-Ang):
   XX=             -9.8007   YY=             -9.2160   ZZ=            -14.4882
   XY=             -1.9712   XZ=              0.0000   YZ=              0.0000

 Normal termination of Gaussian 16 at Fri Aug 26 12:59:24 2022.
