 Gaussian 16, Revision A.03,
 Gaussian 16:  ES64L-G16RevA.03 25-Dec-2016

 ------------------
 #p CCSD(T)/cc-pVTZ
 ------------------

 ------------
 H2O_H2O_1331
 ------------
 Symbolic Z-matrix:
 Charge =  0 Multiplicity = 1

                         Standard orientation:
 ---------------------------------------------------------------------
 Center     Atomic      Atomic             Coordinates (Angstroms)
 Number     Number       Type             X           Y           Z
 ---------------------------------------------------------------------
      1          8           0        0.021862   -1.503589    0.000000
      2          1           0       -0.778421   -2.073723    0.000000
      3          1           0        0.820719   -2.075718    0.000000
      4          8           0        0.021862    1.512229    0.000000
      5          1           0        0.543046    2.345220    0.000000
      6          1           0       -0.935131    1.735098    0.000000
 ---------------------------------------------------------------------

 SCF Done:  E(RHF) =  -152.101939415     A.U. after   11 cycles
 E2 =    -0.5273653668D+00 EUMP2 =    -0.15262930478157D+03
 CCSD(T)
 CCSD(T)= -0.15265658615D+03

 The electronic state is 1-A'.
 Alpha  occ. eigenvalues --  -20.54037 -20.53827  -1.31392  -1.31074  -0.68809
 Alpha  occ. eigenvalues --   -0.68518  -0.55650  -0.53152  -0.48574  -0.48056
 Alpha virt. eigenvalues --    0.14277   0.16698   0.20512   0.21962   0.52137
 Alpha virt. eigenvalues --    0.58294   0.58546   0.59308   0.66138   0.76644
 Alpha virt. eigenvalues --    0.77705   0.78611   0.79005   0.82636   0.85980

 Mulliken charges:
               1
     1  O   -0.475194
     2  H    0.234109
     3  H    0.241300
     4  O   -0.472522
     5  H    0.232493
     6  H    0.239814
 Sum of Mulliken charges =  -0.00000

 Dipole moment (field-independent basis, Debye):
    X=             -0.7150    Y=             -0.1633    Z=              0.0000  Tot=              0.7334
 Quadrupole moment (field-independent basis, Debye-Ang):
   XX=             -8.1890   YY=             -0.5176   ZZ=            -14.7113
   XY=             -0.5379   XZ=              0.0000   YZ=              0.0000

 Normal termination of Gaussian 16 at Sat Aug 27 03:58:42 2022.
