 Gaussian 16, Revision A.03,
 Gaussian 16:  ES64L-G16RevA.03 25-Dec-2016

 ------------------
 #p CCSD(T)/cc-pVTZ
 ------------------

 ------------
 H2O_H2O_2794
 ------------
 Symbolic Z-matrix:
 Charge =  0 Multiplicity = 1

                         Standard orientation:
 ---------------------------------------------------------------------
 Center     Atomic      Atomic             Coordinates (Angstroms)
 Number     Number       Type             X           Y           Z
 ---------------------------------------------------------------------
      1          8           0        0.054161   -2.237469    0.000000
      2          1           0       -0.746576   -2.806965    0.000000
      3          1           0        0.852563   -2.810235    0.000000
      4          8           0        0.054161    2.314757    0.000000
      5          1           0       -0.227723    3.256059    0.000000
      6          1           0       -0.744846    1.742836    0.000000
 ---------------------------------------------------------------------

 SCF Done:  E(RHF) =  -152.107485561     A.U. after   10 cycles
 E2 =    -0.5260042242D+00 EUMP2 =    -0.15263348978500D+03
 CCSD(T)
 CCSD(T)= -0.15266069467D+03

 The electronic state is 1-A'.
 Alpha  occ. eigenvalues --  -20.55612 -20.54680  -1.32902  -1.31973  -0.70310
 Alpha  occ. eigenvalues --   -0.69357  -0.56344  -0.55414  -0.50014  -0.49090
 Alpha virt. eigenvalues --    0.13472   0.15414   0.20071   0.21448   0.54081
 Alpha virt. eigenvalues --    0.54844   0.57199   0.58012   0.66447   0.71572
 Alpha virt. eigenvalues --    0.78869   0.79775   0.79883   0.81096   0.82727

 Mulliken charges:
               1
     1  O   -0.507513
     2  H    0.251093
     3  H    0.257068
     4  O   -0.508102
     5  H    0.248378
     6  H    0.259077
 Sum of Mulliken charges =  -0.00000

 Dipole moment (field-independent basis, Debye):
    X=             -1.8448    Y=             -1.3844    Z=              0.0000  Tot=              2.3065
 Quadrupole moment (field-independent basis, Debye-Ang):
   XX=             -9.6479   YY=              1.7381   ZZ=            -14.7134
   XY=             -3.8771   XZ=              0.0000   YZ=              0.0000

 Normal termination of Gaussian 16 at Fri Aug 26 16:14:27 2022.
