 Gaussian 16, Revision A.03,
 Gaussian 16:  ES64L-G16RevA.03 25-Dec-2016

 ------------------
 #p CCSD(T)/cc-pVTZ
 ------------------

 ------------
 H2O_H2O_3573
 ------------
 Symbolic Z-matrix:
 Charge =  0 Multiplicity = 1

                         Standard orientation:
 ---------------------------------------------------------------------
 Center     Atomic      Atomic             Coordinates (Angstroms)
 Number     Number       Type             X           Y           Z
 ---------------------------------------------------------------------
      1          8           0        0.057088   -2.633754    0.000000
      2          1           0       -0.743524   -3.203425    0.000000
      3          1           0        0.855615   -3.206345    0.000000
      4          8           0        0.057088    2.740301    0.000000
      5          1           0       -0.459001    3.576458    0.000000
      6          1           0       -0.566503    1.980932    0.000000
 ---------------------------------------------------------------------

 SCF Done:  E(RHF) =  -152.107824351     A.U. after   10 cycles
 E2 =    -0.5258786980D+00 EUMP2 =    -0.15263370304885D+03
 CCSD(T)
 CCSD(T)= -0.15266091071D+03

 The electronic state is 1-A'.
 Alpha  occ. eigenvalues --  -20.55806 -20.54928  -1.33105  -1.32228  -0.70510
 Alpha  occ. eigenvalues --   -0.69621  -0.56571  -0.55684  -0.50219  -0.49346
 Alpha virt. eigenvalues --    0.13664   0.14924   0.19984   0.21014   0.54027
 Alpha virt. eigenvalues --    0.54886   0.57003   0.57807   0.67134   0.69029
 Alpha virt. eigenvalues --    0.78666   0.79517   0.80033   0.80442   0.82697

 Mulliken charges:
               1
     1  O   -0.511137
     2  H    0.253732
     3  H    0.257526
     4  O   -0.510561
     5  H    0.251144
     6  H    0.259296
 Sum of Mulliken charges =   0.00000

 Dipole moment (field-independent basis, Debye):
    X=             -1.9565    Y=             -1.8792    Z=              0.0000  Tot=              2.7128
 Quadrupole moment (field-independent basis, Debye-Ang):
   XX=             -9.8538   YY=              1.3396   ZZ=            -14.7134
   XY=             -5.4044   XZ=              0.0000   YZ=              0.0000

 Normal termination of Gaussian 16 at Sat Aug 27 01:36:30 2022.
