 Gaussian 16, Revision A.03,
 Gaussian 16:  ES64L-G16RevA.03 25-Dec-2016

 ------------------
 #p CCSD(T)/cc-pVTZ
 ------------------

 ------------
 H2O_H2O_3809
 ------------
 Symbolic Z-matrix:
 Charge =  0 Multiplicity = 1

                         Standard orientation:
 ---------------------------------------------------------------------
 Center     Atomic      Atomic             Coordinates (Angstroms)
 Number     Number       Type             X           Y           Z
 ---------------------------------------------------------------------
      1          8           0        0.031740   -2.814155    0.000000
      2          1           0       -0.768383   -3.384514    0.000000
      3          1           0        0.830758   -3.386060    0.000000
      4          8           0        0.031740    2.833344    0.000000
      5          1           0        0.380144    3.752105    0.000000
      6          1           0       -0.950353    2.864955    0.000000
 ---------------------------------------------------------------------

 SCF Done:  E(RHF) =  -152.106755547     A.U. after   10 cycles
 E2 =    -0.5259482494D+00 EUMP2 =    -0.15263270379633D+03
 CCSD(T)
 CCSD(T)= -0.15265993710D+03

 The electronic state is 1-A'.
 Alpha  occ. eigenvalues --  -20.55202 -20.55063  -1.32497  -1.32357  -0.69905
 Alpha  occ. eigenvalues --   -0.69761  -0.55914  -0.55774  -0.49604  -0.49464
 Alpha virt. eigenvalues --    0.14375   0.14603   0.20450   0.20620   0.54657
 Alpha virt. eigenvalues --    0.54822   0.57523   0.57668   0.68152   0.68647
 Alpha virt. eigenvalues --    0.79274   0.79412   0.80717   0.80872   0.82657

 Mulliken charges:
               1
     1  O   -0.505038
     2  H    0.251529
     3  H    0.253510
     4  O   -0.504871
     5  H    0.250995
     6  H    0.253874
 Sum of Mulliken charges =  -0.00000

 Dipole moment (field-independent basis, Debye):
    X=             -1.0883    Y=             -0.3364    Z=              0.0000  Tot=              1.1391
 Quadrupole moment (field-independent basis, Debye-Ang):
   XX=             -8.4394   YY=              9.2604   ZZ=            -14.7107
   XY=             -2.2801   XZ=              0.0000   YZ=              0.0000

 Normal termination of Gaussian 16 at Sat Aug 27 03:29:36 2022.
