 Gaussian 16, Revision A.03,
 Gaussian 16:  ES64L-G16RevA.03 25-Dec-2016

 ------------------
 #p CCSD(T)/cc-pVTZ
 ------------------

 ------------
 H2O_H2O_1232
 ------------
 Symbolic Z-matrix:
 Charge =  0 Multiplicity = 1

                         Standard orientation:
 ---------------------------------------------------------------------
 Center     Atomic      Atomic             Coordinates (Angstroms)
 Number     Number       Type             X           Y           Z
 ---------------------------------------------------------------------
      1          8           0        0.025269   -1.448741    0.000000
      2          1           0       -0.775155   -2.018677    0.000000
      3          1           0        0.823986   -2.021068    0.000000
      4          8           0        0.025269    1.460445    0.000000
      5          1           0        0.491071    2.325624    0.000000
      6          1           0       -0.944212    1.620486    0.000000
 ---------------------------------------------------------------------

 SCF Done:  E(RHF) =  -152.101227310     A.U. after   11 cycles
 E2 =    -0.5276087165D+00 EUMP2 =    -0.15262883602701D+03
 CCSD(T)
 CCSD(T)= -0.15265611909D+03

 The electronic state is 1-A'.
 Alpha  occ. eigenvalues --  -20.53998 -20.53698  -1.31385  -1.30940  -0.68797
 Alpha  occ. eigenvalues --   -0.68392  -0.55805  -0.52819  -0.48578  -0.47904
 Alpha virt. eigenvalues --    0.14265   0.16832   0.20487   0.22126   0.52123
 Alpha virt. eigenvalues --    0.58329   0.58613   0.59719   0.67610   0.76552
 Alpha virt. eigenvalues --    0.77347   0.78353   0.79612   0.82930   0.85988

 Mulliken charges:
               1
     1  O   -0.473891
     2  H    0.232578
     3  H    0.241452
     4  O   -0.469146
     5  H    0.229658
     6  H    0.239349
 Sum of Mulliken charges =  -0.00000

 Dipole moment (field-independent basis, Debye):
    X=             -0.8205    Y=             -0.2222    Z=              0.0000  Tot=              0.8501
 Quadrupole moment (field-independent basis, Debye-Ang):
   XX=             -8.2984   YY=             -1.0404   ZZ=            -14.7130
   XY=             -0.6024   XZ=              0.0000   YZ=              0.0000

 Normal termination of Gaussian 16 at Sat Aug 27 03:12:45 2022.
