 Gaussian 16, Revision A.03,
 Gaussian 16:  ES64L-G16RevA.03 25-Dec-2016

 ------------------
 #p CCSD(T)/cc-pVTZ
 ------------------

 ------------
 H2O_H2O_2099
 ------------
 Symbolic Z-matrix:
 Charge =  0 Multiplicity = 1

                         Standard orientation:
 ---------------------------------------------------------------------
 Center     Atomic      Atomic             Coordinates (Angstroms)
 Number     Number       Type             X           Y           Z
 ---------------------------------------------------------------------
      1          8           0        0.057261   -1.845284    0.000000
      2          1           0       -0.743784   -2.414347    0.000000
      3          1           0        0.855353   -2.418481    0.000000
      4          8           0        0.057261    1.959215    0.000000
      5          1           0       -0.511803    2.760259    0.000000
      6          1           0       -0.515936    1.161122    0.000000
 ---------------------------------------------------------------------

 SCF Done:  E(RHF) =  -152.109331479     A.U. after   10 cycles
 E2 =    -0.5262762458D+00 EUMP2 =    -0.15263560772462D+03
 CCSD(T)
 CCSD(T)= -0.15266274208D+03

 The electronic state is 1-A'.
 Alpha  occ. eigenvalues --  -20.56298 -20.54111  -1.33564  -1.31419  -0.70967
 Alpha  occ. eigenvalues --   -0.68788  -0.57064  -0.54898  -0.50689  -0.48552
 Alpha virt. eigenvalues --    0.12867   0.16336   0.19703   0.23773   0.53408
 Alpha virt. eigenvalues --    0.55580   0.56596   0.58437   0.66946   0.73524
 Alpha virt. eigenvalues --    0.77897   0.79347   0.79681   0.80421   0.83608

 Mulliken charges:
               1
     1  O   -0.503921
     2  H    0.250443
     3  H    0.259011
     4  O   -0.515929
     5  H    0.245789
     6  H    0.264607
 Sum of Mulliken charges =  -0.00000

 Dipole moment (field-independent basis, Debye):
    X=             -1.9291    Y=             -2.1205    Z=              0.0000  Tot=              2.8667
 Quadrupole moment (field-independent basis, Debye-Ang):
   XX=             -9.8602   YY=             -2.5074   ZZ=            -14.7196
   XY=             -4.0374   XZ=              0.0000   YZ=              0.0000

 Normal termination of Gaussian 16 at Sat Aug 27 08:34:57 2022.
