 Gaussian 16, Revision A.03,
 Gaussian 16:  ES64L-G16RevA.03 25-Dec-2016

 ------------------
 #p CCSD(T)/cc-pVTZ
 ------------------

 ------------
 H2O_H2O_2915
 ------------
 Symbolic Z-matrix:
 Charge =  0 Multiplicity = 1

                         Standard orientation:
 ---------------------------------------------------------------------
 Center     Atomic      Atomic             Coordinates (Angstroms)
 Number     Number       Type             X           Y           Z
 ---------------------------------------------------------------------
      1          8           0        0.047532   -2.318443    0.000000
      2          1           0       -0.753034   -2.888180    0.000000
      3          1           0        0.846106   -2.890969    0.000000
      4          8           0        0.047532    2.369043    0.000000
      5          1           0        0.018584    3.351218    0.000000
      6          1           0       -0.872170    2.023131    0.000000
 ---------------------------------------------------------------------

 SCF Done:  E(RHF) =  -152.106882538     A.U. after   10 cycles
 E2 =    -0.5260066505D+00 EUMP2 =    -0.15263288918823D+03
 CCSD(T)
 CCSD(T)= -0.15266011321D+03

 The electronic state is 1-A'.
 Alpha  occ. eigenvalues --  -20.55330 -20.54774  -1.32624  -1.32064  -0.70033
 Alpha  occ. eigenvalues --   -0.69457  -0.56043  -0.55485  -0.49731  -0.49176
 Alpha virt. eigenvalues --    0.13860   0.15198   0.20258   0.21100   0.54325
 Alpha virt. eigenvalues --    0.55019   0.57414   0.57904   0.66654   0.70991
 Alpha virt. eigenvalues --    0.79145   0.79696   0.80391   0.81285   0.82929

 Mulliken charges:
               1
     1  O   -0.505362
     2  H    0.250288
     3  H    0.255265
     4  O   -0.505025
     5  H    0.248476
     6  H    0.256358
 Sum of Mulliken charges =  -0.00000

 Dipole moment (field-independent basis, Debye):
    X=             -1.6209    Y=             -0.9004    Z=              0.0000  Tot=              1.8542
 Quadrupole moment (field-independent basis, Debye-Ang):
   XX=             -9.2270   YY=              3.8878   ZZ=            -14.7117
   XY=             -3.1125   XZ=              0.0000   YZ=              0.0000

 Normal termination of Gaussian 16 at Fri Aug 26 17:25:25 2022.
