 Gaussian 16, Revision A.03,
 Gaussian 16:  ES64L-G16RevA.03 25-Dec-2016

 ------------------
 #p CCSD(T)/cc-pVTZ
 ------------------

 ------------
 H2O_H2O_4075
 ------------
 Symbolic Z-matrix:
 Charge =  0 Multiplicity = 1

                         Standard orientation:
 ---------------------------------------------------------------------
 Center     Atomic      Atomic             Coordinates (Angstroms)
 Number     Number       Type             X           Y           Z
 ---------------------------------------------------------------------
      1          8           0        0.000000   -0.000000    2.970833
      2          1           0        0.000000    0.799571    3.541965
      3          1           0       -0.000000   -0.799571    3.541965
      4          8           0        0.000000   -0.000000   -2.970833
      5          1           0       -0.000000   -0.799571   -3.541965
      6          1           0        0.000000    0.799571   -3.541965
 ---------------------------------------------------------------------

 SCF Done:  E(RHF) =  -152.106678885     A.U. after   10 cycles
 E2 =    -0.5259476164D+00 EUMP2 =    -0.15263262650172D+03
 CCSD(T)
 CCSD(T)= -0.15265986186D+03

 The electronic state is 1-AG.
 Alpha  occ. eigenvalues --  -20.55127 -20.55127  -1.32422  -1.32422  -0.69830
 Alpha  occ. eigenvalues --   -0.69830  -0.55836  -0.55835  -0.49529  -0.49528
 Alpha virt. eigenvalues --    0.14459   0.14520   0.20514   0.20539   0.54732
 Alpha virt. eigenvalues --    0.54749   0.57589   0.57601   0.68323   0.68500
 Alpha virt. eigenvalues --    0.79349   0.79350   0.80793   0.80799   0.82724

 Mulliken charges:
               1
     1  O   -0.504565
     2  H    0.252283
     3  H    0.252283
     4  O   -0.504565
     5  H    0.252283
     6  H    0.252283
 Sum of Mulliken charges =   0.00000

 Dipole moment (field-independent basis, Debye):
    X=             -0.0000    Y=              0.0000    Z=              0.0000  Tot=              0.0000
 Quadrupole moment (field-independent basis, Debye-Ang):
   XX=            -14.7104   YY=             -7.8053   ZZ=             11.7298
   XY=              0.0000   XZ=              0.0000   YZ=             -0.0000

 9\MP4DQ=-152.6417516\MP4SDQ=-152.644813\CCSD=-152.6442242\CCSD(T)=-152
 Normal termination of Gaussian 16 at Sat Aug 27 05:14:45 2022.
