 Gaussian 16, Revision A.03,
 Gaussian 16:  ES64L-G16RevA.03 25-Dec-2016

 ------------------
 #p CCSD(T)/cc-pVTZ
 ------------------

 ------------
 H2O_H2O_1056
 ------------
 Symbolic Z-matrix:
 Charge =  0 Multiplicity = 1

                         Standard orientation:
 ---------------------------------------------------------------------
 Center     Atomic      Atomic             Coordinates (Angstroms)
 Number     Number       Type             X           Y           Z
 ---------------------------------------------------------------------
      1          8           0        0.021862   -1.357337    0.000000
      2          1           0       -0.778497   -1.927364    0.000000
      3          1           0        0.820643   -1.929573    0.000000
      4          8           0        0.021862    1.365972    0.000000
      5          1           0        0.543159    2.198892    0.000000
      6          1           0       -0.935101    1.588968    0.000000
 ---------------------------------------------------------------------

 SCF Done:  E(RHF) =  -152.098535488     A.U. after   11 cycles
 E2 =    -0.5281705470D+00 EUMP2 =    -0.15262670603495D+03
 CCSD(T)
 CCSD(T)= -0.15265400495D+03

 The electronic state is 1-A'.
 Alpha  occ. eigenvalues --  -20.53684 -20.53448  -1.31216  -1.30650  -0.68594
 Alpha  occ. eigenvalues --   -0.68148  -0.56175  -0.51846  -0.48458  -0.47534
 Alpha virt. eigenvalues --    0.14355   0.17089   0.20513   0.22261   0.51569
 Alpha virt. eigenvalues --    0.58505   0.58765   0.61057   0.70310   0.76568
 Alpha virt. eigenvalues --    0.76888   0.78381   0.80847   0.83442   0.86173

 Mulliken charges:
               1
     1  O   -0.469011
     2  H    0.229880
     3  H    0.238692
     4  O   -0.462566
     5  H    0.226553
     6  H    0.236451
 Sum of Mulliken charges =  -0.00000

 Dipole moment (field-independent basis, Debye):
    X=             -0.7001    Y=             -0.1651    Z=              0.0000  Tot=              0.7193
 Quadrupole moment (field-independent basis, Debye-Ang):
   XX=             -8.2265   YY=             -1.8338   ZZ=            -14.7165
   XY=             -0.4371   XZ=              0.0000   YZ=              0.0000

 Normal termination of Gaussian 16 at Sat Aug 27 01:43:26 2022.
