 Gaussian 16, Revision A.03,
 Gaussian 16:  ES64L-G16RevA.03 25-Dec-2016

 ------------------
 #p CCSD(T)/cc-pVTZ
 ------------------

 ------------
 H2O_H2O_3287
 ------------
 Symbolic Z-matrix:
 Charge =  0 Multiplicity = 1

                         Standard orientation:
 ---------------------------------------------------------------------
 Center     Atomic      Atomic             Coordinates (Angstroms)
 Number     Number       Type             X           Y           Z
 ---------------------------------------------------------------------
      1          8           0        0.040408   -2.527253    0.000000
      2          1           0       -0.759943   -3.097291    0.000000
      3          1           0        0.839198   -3.099477    0.000000
      4          8           0        0.040408    2.560598    0.000000
      5          1           0        0.203263    3.529611    0.000000
      6          1           0       -0.929046    2.400392    0.000000
 ---------------------------------------------------------------------

 SCF Done:  E(RHF) =  -152.106714336     A.U. after   10 cycles
 E2 =    -0.5259756166D+00 EUMP2 =    -0.15263268995233D+03
 CCSD(T)
 CCSD(T)= -0.15265992238D+03

 The electronic state is 1-A'.
 Alpha  occ. eigenvalues --  -20.55222 -20.54919  -1.32517  -1.32212  -0.69925
 Alpha  occ. eigenvalues --   -0.69612  -0.55931  -0.55627  -0.49623  -0.49320
 Alpha virt. eigenvalues --    0.14200   0.14868   0.20387   0.20813   0.54583
 Alpha virt. eigenvalues --    0.54983   0.57496   0.57799   0.67530   0.69510
 Alpha virt. eigenvalues --    0.79255   0.79553   0.80665   0.81037   0.82733

 Mulliken charges:
               1
     1  O   -0.504800
     2  H    0.250718
     3  H    0.254105
     4  O   -0.504420
     5  H    0.249660
     6  H    0.254737
 Sum of Mulliken charges =  -0.00000

 Dipole moment (field-independent basis, Debye):
    X=             -1.3819    Y=             -0.5883    Z=              0.0000  Tot=              1.5019
 Quadrupole moment (field-independent basis, Debye-Ang):
   XX=             -8.8339   YY=              6.3097   ZZ=            -14.7109
   XY=             -2.6998   XZ=              0.0000   YZ=              0.0000

 Normal termination of Gaussian 16 at Fri Aug 26 21:04:25 2022.
