 Gaussian 16, Revision A.03,
 Gaussian 16:  ES64L-G16RevA.03 25-Dec-2016

 ------------------
 #p CCSD(T)/cc-pVTZ
 ------------------

 -----------
 H2O_H2O_166
 -----------
 Symbolic Z-matrix:
 Charge =  0 Multiplicity = 1

                         Standard orientation:
 ---------------------------------------------------------------------
 Center     Atomic      Atomic             Coordinates (Angstroms)
 Number     Number       Type             X           Y           Z
 ---------------------------------------------------------------------
      1          8           0        0.049599   -0.852609    0.000000
      2          1           0       -0.752723   -1.419870    0.000000
      3          1           0        0.846400   -1.427599    0.000000
      4          8           0        0.049599    0.909243    0.000000
      5          1           0       -0.040502    1.887705    0.000000
      6          1           0       -0.846757    0.506688    0.000000
 ---------------------------------------------------------------------

 SCF Done:  E(RHF) =  -151.989936861     A.U. after   11 cycles
 E2 =    -0.5435188281D+00 EUMP2 =    -0.15253345568936D+03
 CCSD(T)
 CCSD(T)= -0.15255930251D+03

 The electronic state is 1-A'.
 Alpha  occ. eigenvalues --  -20.53565 -20.50939  -1.36663  -1.27157  -0.73768
 Alpha  occ. eigenvalues --   -0.69791  -0.56495  -0.52508  -0.43990  -0.42558
 Alpha virt. eigenvalues --    0.13803   0.18940   0.19658   0.24334   0.52039
 Alpha virt. eigenvalues --    0.56467   0.59617   0.65445   0.73044   0.76808
 Alpha virt. eigenvalues --    0.81138   0.81334   0.83473   0.84049   0.88701

 Mulliken charges:
               1
     1  O   -0.365385
     2  H    0.171323
     3  H    0.209225
     4  O   -0.388399
     5  H    0.133171
     6  H    0.240066
 Sum of Mulliken charges =  -0.00000

 Dipole moment (field-independent basis, Debye):
    X=             -1.3421    Y=             -1.2541    Z=              0.0000  Tot=              1.8368
 Quadrupole moment (field-independent basis, Debye-Ang):
   XX=             -9.5181   YY=             -7.7208   ZZ=            -14.6459
   XY=             -0.9443   XZ=              0.0000   YZ=              0.0000

 Normal termination of Gaussian 16 at Fri Aug 26 13:32:59 2022.
