 Gaussian 16, Revision A.03,
 Gaussian 16:  ES64L-G16RevA.03 25-Dec-2016

 ------------------
 #p CCSD(T)/cc-pVTZ
 ------------------

 ------------
 H2O_H2O_4424
 ------------
 Symbolic Z-matrix:
 Charge =  0 Multiplicity = 1

                         Standard orientation:
 ---------------------------------------------------------------------
 Center     Atomic      Atomic             Coordinates (Angstroms)
 Number     Number       Type             X           Y           Z
 ---------------------------------------------------------------------
      1          8           0        0.057203   -3.081743    0.000000
      2          1           0       -0.743262   -3.651621    0.000000
      3          1           0        0.855878   -3.654126    0.000000
      4          8           0        0.057203    3.195790    0.000000
      5          1           0       -0.512676    3.996255    0.000000
      6          1           0       -0.515181    2.397114    0.000000
 ---------------------------------------------------------------------

 SCF Done:  E(RHF) =  -152.107718714     A.U. after   10 cycles
 E2 =    -0.5258528880D+00 EUMP2 =    -0.15263357160202D+03
 CCSD(T)
 CCSD(T)= -0.15266078505D+03

 The electronic state is 1-A'.
 Alpha  occ. eigenvalues --  -20.55788 -20.55125  -1.33088  -1.32426  -0.70494
 Alpha  occ. eigenvalues --   -0.69824  -0.56550  -0.55880  -0.50202  -0.49541
 Alpha virt. eigenvalues --    0.13890   0.14590   0.20003   0.20716   0.54063
 Alpha virt. eigenvalues --    0.54744   0.57009   0.57669   0.67569   0.68345
 Alpha virt. eigenvalues --    0.78678   0.79328   0.80102   0.80768   0.82083

 Mulliken charges:
               1
     1  O   -0.510735
     2  H    0.254187
     3  H    0.256552
     4  O   -0.510318
     5  H    0.252484
     6  H    0.257830
 Sum of Mulliken charges =  -0.00000

 Dipole moment (field-independent basis, Debye):
    X=             -1.9661    Y=             -1.9940    Z=              0.0000  Tot=              2.8003
 Quadrupole moment (field-independent basis, Debye-Ang):
   XX=             -9.8644   YY=              2.4388   ZZ=            -14.7128
   XY=             -6.4321   XZ=              0.0000   YZ=              0.0000

 Normal termination of Gaussian 16 at Sat Aug 27 07:14:40 2022.
