 Gaussian 16, Revision A.03,
 Gaussian 16:  ES64L-G16RevA.03 25-Dec-2016

 ------------------
 #p CCSD(T)/cc-pVTZ
 ------------------

 -----------
 H2O_H2O_877
 -----------
 Symbolic Z-matrix:
 Charge =  0 Multiplicity = 1

                         Standard orientation:
 ---------------------------------------------------------------------
 Center     Atomic      Atomic             Coordinates (Angstroms)
 Number     Number       Type             X           Y           Z
 ---------------------------------------------------------------------
      1          8           0        0.007455   -1.268429    0.000000
      2          1           0       -0.792405   -1.839157    0.000000
      3          1           0        0.806737   -1.839965    0.000000
      4          8           0        0.007455    1.269398    0.000000
      5          1           0        0.725977    1.939646    0.000000
      6          1           0       -0.859590    1.731718    0.000000
 ---------------------------------------------------------------------

 SCF Done:  E(RHF) =  -152.093408474     A.U. after   11 cycles
 E2 =    -0.5289923784D+00 EUMP2 =    -0.15262240085282D+03
 CCSD(T)
 CCSD(T)= -0.15264970859D+03

 The electronic state is 1-A'.
 Alpha  occ. eigenvalues --  -20.53153 -20.53125  -1.31021  -1.30218  -0.68322
 Alpha  occ. eigenvalues --   -0.67779  -0.56828  -0.50341  -0.48310  -0.46994
 Alpha virt. eigenvalues --    0.14493   0.17436   0.20571   0.22302   0.50502
 Alpha virt. eigenvalues --    0.58772   0.58880   0.62874   0.73057   0.76707
 Alpha virt. eigenvalues --    0.76866   0.79188   0.83168   0.83916   0.86471

 Mulliken charges:
               1
     1  O   -0.460718
     2  H    0.228537
     3  H    0.231999
     4  O   -0.459417
     5  H    0.227764
     6  H    0.231834
 Sum of Mulliken charges =   0.00000

 Dipole moment (field-independent basis, Debye):
    X=             -0.2347    Y=             -0.0187    Z=              0.0000  Tot=              0.2355
 Quadrupole moment (field-independent basis, Debye-Ang):
   XX=             -8.0075   YY=             -2.6602   ZZ=            -14.7231
   XY=             -0.1115   XZ=              0.0000   YZ=              0.0000

 Normal termination of Gaussian 16 at Fri Aug 26 20:47:38 2022.
