 Gaussian 16, Revision A.03,
 Gaussian 16:  ES64L-G16RevA.03 25-Dec-2016

 ------------------
 #p CCSD(T)/cc-pVTZ
 ------------------

 ------------
 H2O_H2O_3948
 ------------
 Symbolic Z-matrix:
 Charge =  0 Multiplicity = 1

                         Standard orientation:
 ---------------------------------------------------------------------
 Center     Atomic      Atomic             Coordinates (Angstroms)
 Number     Number       Type             X           Y           Z
 ---------------------------------------------------------------------
      1          8           0        0.057082   -2.833185    0.000000
      2          1           0       -0.743459   -3.402957    0.000000
      3          1           0        0.855681   -3.405675    0.000000
      4          8           0        0.057082    2.939746    0.000000
      5          1           0       -0.459113    3.775839    0.000000
      6          1           0       -0.566414    2.180300    0.000000
 ---------------------------------------------------------------------

 SCF Done:  E(RHF) =  -152.107731467     A.U. after   10 cycles
 E2 =    -0.5258649737D+00 EUMP2 =    -0.15263359644106D+03
 CCSD(T)
 CCSD(T)= -0.15266080848D+03

 The electronic state is 1-A'.
 Alpha  occ. eigenvalues --  -20.55776 -20.55029  -1.33076  -1.32329  -0.70481
 Alpha  occ. eigenvalues --   -0.69725  -0.56538  -0.55783  -0.50189  -0.49445
 Alpha virt. eigenvalues --    0.13827   0.14734   0.20011   0.20844   0.54070
 Alpha virt. eigenvalues --    0.54831   0.57022   0.57748   0.67428   0.68602
 Alpha virt. eigenvalues --    0.78693   0.79421   0.80110   0.80692   0.82373

 Mulliken charges:
               1
     1  O   -0.510795
     2  H    0.253871
     3  H    0.256952
     4  O   -0.510262
     5  H    0.251782
     6  H    0.258452
 Sum of Mulliken charges =   0.00000

 Dipole moment (field-independent basis, Debye):
    X=             -1.9593    Y=             -1.8705    Z=              0.0000  Tot=              2.7088
 Quadrupole moment (field-independent basis, Debye-Ang):
   XX=             -9.8544   YY=              2.1885   ZZ=            -14.7130
   XY=             -5.7920   XZ=              0.0000   YZ=              0.0000

 Normal termination of Gaussian 16 at Sat Aug 27 04:30:07 2022.
