 Gaussian 16, Revision A.03,
 Gaussian 16:  ES64L-G16RevA.03 25-Dec-2016

 ------------------
 #p CCSD(T)/cc-pVTZ
 ------------------

 ------------
 H2O_H2O_4661
 ------------
 Symbolic Z-matrix:
 Charge =  0 Multiplicity = 1

                         Standard orientation:
 ---------------------------------------------------------------------
 Center     Atomic      Atomic             Coordinates (Angstroms)
 Number     Number       Type             X           Y           Z
 ---------------------------------------------------------------------
      1          8           0        0.037671   -3.261284    0.000000
      2          1           0       -0.762464   -3.831624    0.000000
      3          1           0        0.836677   -3.833207    0.000000
      4          8           0        0.037671    3.289556    0.000000
      5          1           0        0.263194    4.245927    0.000000
      6          1           0       -0.940149    3.192729    0.000000
 ---------------------------------------------------------------------

 SCF Done:  E(RHF) =  -152.107079689     A.U. after   10 cycles
 E2 =    -0.5259056949D+00 EUMP2 =    -0.15263298538408D+03
 CCSD(T)
 CCSD(T)= -0.15266021264D+03

 The electronic state is 1-A'.
 Alpha  occ. eigenvalues --  -20.55361 -20.55209  -1.32658  -1.32506  -0.70065
 Alpha  occ. eigenvalues --   -0.69909  -0.56090  -0.55938  -0.49767  -0.49615
 Alpha virt. eigenvalues --    0.14287   0.14441   0.20346   0.20505   0.54501
 Alpha virt. eigenvalues --    0.54664   0.57390   0.57542   0.68122   0.68281
 Alpha virt. eigenvalues --    0.79112   0.79262   0.80550   0.80715   0.82476

 Mulliken charges:
               1
     1  O   -0.506937
     2  H    0.252701
     3  H    0.254236
     4  O   -0.506823
     5  H    0.252215
     6  H    0.254608
 Sum of Mulliken charges =  -0.00000

 Dipole moment (field-independent basis, Debye):
    X=             -1.2951    Y=             -0.4931    Z=              0.0000  Tot=              1.3858
 Quadrupole moment (field-independent basis, Debye-Ang):
   XX=             -8.6955   YY=             11.7816   ZZ=            -14.7112
   XY=             -3.3937   XZ=              0.0000   YZ=              0.0000

 Normal termination of Gaussian 16 at Sat Aug 27 08:36:41 2022.
