 Gaussian 16, Revision A.03,
 Gaussian 16:  ES64L-G16RevA.03 25-Dec-2016

 ------------------
 #p CCSD(T)/cc-pVTZ
 ------------------

 ------------
 H2O_H2O_4397
 ------------
 Symbolic Z-matrix:
 Charge =  0 Multiplicity = 1

                         Standard orientation:
 ---------------------------------------------------------------------
 Center     Atomic      Atomic             Coordinates (Angstroms)
 Number     Number       Type             X           Y           Z
 ---------------------------------------------------------------------
      1          8           0        0.056702   -3.076542    0.000000
      2          1           0       -0.743759   -3.646427    0.000000
      3          1           0        0.855381   -3.648920    0.000000
      4          8           0        0.056702    3.175682    0.000000
      5          1           0       -0.403826    4.043680    0.000000
      6          1           0       -0.615028    2.458546    0.000000
 ---------------------------------------------------------------------

 SCF Done:  E(RHF) =  -152.107603792     A.U. after   10 cycles
 E2 =    -0.5258638464D+00 EUMP2 =    -0.15263346763798D+03
 CCSD(T)
 CCSD(T)= -0.15266068345D+03

 The electronic state is 1-A'.
 Alpha  occ. eigenvalues --  -20.55714 -20.55129  -1.33014  -1.32428  -0.70419
 Alpha  occ. eigenvalues --   -0.69827  -0.56470  -0.55880  -0.50127  -0.49543
 Alpha virt. eigenvalues --    0.13957   0.14576   0.20061   0.20692   0.54138
 Alpha virt. eigenvalues --    0.54744   0.57075   0.57658   0.67663   0.68346
 Alpha virt. eigenvalues --    0.78754   0.79327   0.80180   0.80778   0.82142

 Mulliken charges:
               1
     1  O   -0.510056
     2  H    0.253798
     3  H    0.256260
     4  O   -0.509691
     5  H    0.252273
     6  H    0.257415
 Sum of Mulliken charges =   0.00000

 Dipole moment (field-independent basis, Debye):
    X=             -1.9488    Y=             -1.7335    Z=              0.0000  Tot=              2.6082
 Quadrupole moment (field-independent basis, Debye-Ang):
   XX=             -9.8281   YY=              4.0071   ZZ=            -14.7125
   XY=             -6.0855   XZ=              0.0000   YZ=              0.0000

 Normal termination of Gaussian 16 at Sat Aug 27 07:05:51 2022.
