 Gaussian 16, Revision A.03,
 Gaussian 16:  ES64L-G16RevA.03 25-Dec-2016

 ------------------
 #p CCSD(T)/cc-pVTZ
 ------------------

 -----------
 H2O_H2O_917
 -----------
 Symbolic Z-matrix:
 Charge =  0 Multiplicity = 1

                         Standard orientation:
 ---------------------------------------------------------------------
 Center     Atomic      Atomic             Coordinates (Angstroms)
 Number     Number       Type             X           Y           Z
 ---------------------------------------------------------------------
      1          8           0        0.051333   -1.247841    0.000000
      2          1           0       -0.750202   -1.816214    0.000000
      3          1           0        0.848931   -1.821725    0.000000
      4          8           0        0.051333    1.311193    0.000000
      5          1           0       -0.103915    2.281453    0.000000
      6          1           0       -0.816137    0.849672    0.000000
 ---------------------------------------------------------------------

 SCF Done:  E(RHF) =  -152.100350449     A.U. after   11 cycles
 E2 =    -0.5290691087D+00 EUMP2 =    -0.15262941955814D+03
 CCSD(T)
 CCSD(T)= -0.15265656242D+03

 The electronic state is 1-A'.
 Alpha  occ. eigenvalues --  -20.55186 -20.52876  -1.32791  -1.30129  -0.70191
 Alpha  occ. eigenvalues --   -0.67981  -0.56182  -0.52813  -0.49911  -0.47154
 Alpha virt. eigenvalues --    0.13642   0.17547   0.19933   0.23994   0.52857
 Alpha virt. eigenvalues --    0.57300   0.58933   0.59378   0.70909   0.74974
 Alpha virt. eigenvalues --    0.77051   0.80722   0.82938   0.83362   0.84873

 Mulliken charges:
               1
     1  O   -0.472001
     2  H    0.231305
     3  H    0.249698
     4  O   -0.477562
     5  H    0.217135
     6  H    0.251425
 Sum of Mulliken charges =  -0.00000

 Dipole moment (field-independent basis, Debye):
    X=             -1.6142    Y=             -1.2603    Z=              0.0000  Tot=              2.0479
 Quadrupole moment (field-independent basis, Debye-Ang):
   XX=             -9.5161   YY=             -3.6060   ZZ=            -14.7241
   XY=             -1.7590   XZ=              0.0000   YZ=              0.0000

 Normal termination of Gaussian 16 at Fri Aug 26 21:10:44 2022.
