 Gaussian 16, Revision A.03,
 Gaussian 16:  ES64L-G16RevA.03 25-Dec-2016

 ------------------
 #p CCSD(T)/cc-pVTZ
 ------------------

 ------------
 H2O_H2O_3782
 ------------
 Symbolic Z-matrix:
 Charge =  0 Multiplicity = 1

                         Standard orientation:
 ---------------------------------------------------------------------
 Center     Atomic      Atomic             Coordinates (Angstroms)
 Number     Number       Type             X           Y           Z
 ---------------------------------------------------------------------
      1          8           0        0.025265   -2.804904    0.000000
      2          1           0       -0.774748   -3.375418    0.000000
      3          1           0        0.824394   -3.376655    0.000000
      4          8           0        0.025265    2.816645    0.000000
      5          1           0        0.490443    3.682160    0.000000
      6          1           0       -0.944331    2.975986    0.000000
 ---------------------------------------------------------------------

 SCF Done:  E(RHF) =  -152.106663463     A.U. after   10 cycles
 E2 =    -0.5259563394D+00 EUMP2 =    -0.15263261980233D+03
 CCSD(T)
 CCSD(T)= -0.15265985507D+03

 The electronic state is 1-A'.
 Alpha  occ. eigenvalues --  -20.55147 -20.55061  -1.32442  -1.32356  -0.69850
 Alpha  occ. eigenvalues --   -0.69761  -0.55855  -0.55768  -0.49548  -0.49462
 Alpha virt. eigenvalues --    0.14419   0.14601   0.20491   0.20607   0.54711
 Alpha virt. eigenvalues --    0.54822   0.57571   0.57663   0.68193   0.68685
 Alpha virt. eigenvalues --    0.79330   0.79415   0.80775   0.80873   0.82712

 Mulliken charges:
               1
     1  O   -0.504489
     2  H    0.251447
     3  H    0.253043
     4  O   -0.504375
     5  H    0.251063
     6  H    0.253312
 Sum of Mulliken charges =   0.00000

 Dipole moment (field-independent basis, Debye):
    X=             -0.8661    Y=             -0.2058    Z=              0.0000  Tot=              0.8903
 Quadrupole moment (field-independent basis, Debye-Ang):
   XX=             -8.2080   YY=              9.6751   ZZ=            -14.7105
   XY=             -1.7446   XZ=              0.0000   YZ=              0.0000

 Normal termination of Gaussian 16 at Sat Aug 27 03:15:46 2022.
