 Gaussian 16, Revision A.03,
 Gaussian 16:  ES64L-G16RevA.03 25-Dec-2016

 ------------------
 #p CCSD(T)/cc-pVTZ
 ------------------

 -----------
 H2O_H2O_207
 -----------
 Symbolic Z-matrix:
 Charge =  0 Multiplicity = 1

                         Standard orientation:
 ---------------------------------------------------------------------
 Center     Atomic      Atomic             Coordinates (Angstroms)
 Number     Number       Type             X           Y           Z
 ---------------------------------------------------------------------
      1          8           0        0.025275   -0.903632    0.000000
      2          1           0       -0.775660   -1.472851    0.000000
      3          1           0        0.823478   -1.476674    0.000000
      4          8           0        0.025275    0.915291    0.000000
      5          1           0        0.491852    1.780052    0.000000
      6          1           0       -0.944062    1.076200    0.000000
 ---------------------------------------------------------------------

 SCF Done:  E(RHF) =  -152.009486898     A.U. after   11 cycles
 E2 =    -0.5406761800D+00 EUMP2 =    -0.15255016307836D+03
 CCSD(T)
 CCSD(T)= -0.15257628976D+03

 The electronic state is 1-A'.
 Alpha  occ. eigenvalues --  -20.51767 -20.51415  -1.33770  -1.27686  -0.69929
 Alpha  occ. eigenvalues --   -0.67061  -0.62155  -0.50595  -0.44082  -0.40045
 Alpha virt. eigenvalues --    0.14492   0.18742   0.20145   0.23266   0.52151
 Alpha virt. eigenvalues --    0.57776   0.58899   0.65671   0.70002   0.78394
 Alpha virt. eigenvalues --    0.79420   0.83163   0.83839   0.85997   0.88220

 Mulliken charges:
               1
     1  O   -0.408134
     2  H    0.194539
     3  H    0.212205
     4  O   -0.382846
     5  H    0.159351
     6  H    0.224885
 Sum of Mulliken charges =  -0.00000

 Dipole moment (field-independent basis, Debye):
    X=             -0.7145    Y=             -0.2670    Z=              0.0000  Tot=              0.7627
 Quadrupole moment (field-independent basis, Debye-Ang):
   XX=             -8.5948   YY=             -7.1274   ZZ=            -14.7375
   XY=             -0.2853   XZ=              0.0000   YZ=              0.0000

 Normal termination of Gaussian 16 at Fri Aug 26 14:04:22 2022.
