 Gaussian 16, Revision A.03,
 Gaussian 16:  ES64L-G16RevA.03 25-Dec-2016

 ------------------
 #p CCSD(T)/cc-pVTZ
 ------------------

 ------------
 H2O_H2O_4920
 ------------
 Symbolic Z-matrix:
 Charge =  0 Multiplicity = 1

                         Standard orientation:
 ---------------------------------------------------------------------
 Center     Atomic      Atomic             Coordinates (Angstroms)
 Number     Number       Type             X           Y           Z
 ---------------------------------------------------------------------
      1          8           0        0.055226   -3.363702    0.000000
      2          1           0       -0.745140   -3.933719    0.000000
      3          1           0        0.854000   -3.935948    0.000000
      4          8           0        0.055226    3.448211    0.000000
      5          1           0       -0.288218    4.368837    0.000000
      6          1           0       -0.704259    2.824762    0.000000
 ---------------------------------------------------------------------

 SCF Done:  E(RHF) =  -152.107479271     A.U. after   10 cycles
 E2 =    -0.5258680980D+00 EUMP2 =    -0.15263334736902D+03
 CCSD(T)
 CCSD(T)= -0.15266056626D+03

 The electronic state is 1-A'.
 Alpha  occ. eigenvalues --  -20.55638 -20.55221  -1.32937  -1.32520  -0.70343
 Alpha  occ. eigenvalues --   -0.69921  -0.56388  -0.55968  -0.50049  -0.49633
 Alpha virt. eigenvalues --    0.14044   0.14461   0.20123   0.20563   0.54218
 Alpha virt. eigenvalues --    0.54651   0.57143   0.57559   0.67795   0.68226
 Alpha virt. eigenvalues --    0.78830   0.79241   0.80260   0.80701   0.82184

 Mulliken charges:
               1
     1  O   -0.509304
     2  H    0.253695
     3  H    0.255608
     4  O   -0.509083
     5  H    0.252671
     6  H    0.256412
 Sum of Mulliken charges =  -0.00000

 Dipole moment (field-independent basis, Debye):
    X=             -1.9000    Y=             -1.4731    Z=              0.0000  Tot=              2.4042
 Quadrupole moment (field-independent basis, Debye-Ang):
   XX=             -9.7245   YY=              6.9346   ZZ=            -14.7121
   XY=             -6.2016   XZ=              0.0000   YZ=              0.0000

 Normal termination of Gaussian 16 at Sat Aug 27 10:07:52 2022.
