 Gaussian 16, Revision A.03,
 Gaussian 16:  ES64L-G16RevA.03 25-Dec-2016

 ------------------
 #p CCSD(T)/cc-pVTZ
 ------------------

 -----------
 H2O_H2O_687
 -----------
 Symbolic Z-matrix:
 Charge =  0 Multiplicity = 1

                         Standard orientation:
 ---------------------------------------------------------------------
 Center     Atomic      Atomic             Coordinates (Angstroms)
 Number     Number       Type             X           Y           Z
 ---------------------------------------------------------------------
      1          8           0        0.040435   -1.144547    0.000000
      2          1           0       -0.760842   -1.713282    0.000000
      3          1           0        0.838292   -1.718070    0.000000
      4          8           0        0.040435    1.177761    0.000000
      5          1           0        0.204867    2.146506    0.000000
      6          1           0       -0.929278    1.019132    0.000000
 ---------------------------------------------------------------------

 SCF Done:  E(RHF) =  -152.088798953     A.U. after   11 cycles
 E2 =    -0.5305448801D+00 EUMP2 =    -0.15261934383271D+03
 CCSD(T)
 CCSD(T)= -0.15264651036D+03

 The electronic state is 1-A'.
 Alpha  occ. eigenvalues --  -20.53817 -20.52675  -1.31928  -1.29797  -0.69214
 Alpha  occ. eigenvalues --   -0.67733  -0.57190  -0.50008  -0.49147  -0.46603
 Alpha virt. eigenvalues --    0.14151   0.17626   0.20244   0.23289   0.53089
 Alpha virt. eigenvalues --    0.57938   0.58195   0.61779   0.70855   0.75842
 Alpha virt. eigenvalues --    0.78128   0.80583   0.83506   0.85718   0.87573

 Mulliken charges:
               1
     1  O   -0.463036
     2  H    0.222722
     3  H    0.241019
     4  O   -0.444309
     5  H    0.202009
     6  H    0.241596
 Sum of Mulliken charges =  -0.00000

 Dipole moment (field-independent basis, Debye):
    X=             -1.2354    Y=             -0.6559    Z=              0.0000  Tot=              1.3987
 Quadrupole moment (field-independent basis, Debye-Ang):
   XX=             -8.9754   YY=             -4.0309   ZZ=            -14.7274
   XY=             -0.8600   XZ=              0.0000   YZ=              0.0000

 Normal termination of Gaussian 16 at Fri Aug 26 19:05:24 2022.
