 Gaussian 16, Revision A.03,
 Gaussian 16:  ES64L-G16RevA.03 25-Dec-2016

 ------------------
 #p CCSD(T)/cc-pVTZ
 ------------------

 ------------
 H2O_H2O_1090
 ------------
 Symbolic Z-matrix:
 Charge =  0 Multiplicity = 1

                         Standard orientation:
 ---------------------------------------------------------------------
 Center     Atomic      Atomic             Coordinates (Angstroms)
 Number     Number       Type             X           Y           Z
 ---------------------------------------------------------------------
      1          8           0        0.047563   -1.347903    0.000000
      2          1           0       -0.753705   -1.916652    0.000000
      3          1           0        0.845430   -1.921413    0.000000
      4          8           0        0.047563    1.398385    0.000000
      5          1           0        0.019826    2.380595    0.000000
      6          1           0       -0.872564    1.053608    0.000000
 ---------------------------------------------------------------------

 SCF Done:  E(RHF) =  -152.102624283     A.U. after   10 cycles
 E2 =    -0.5281185450D+00 EUMP2 =    -0.15263074282758D+03
 CCSD(T)
 CCSD(T)= -0.15265794163D+03

 The electronic state is 1-A'.
 Alpha  occ. eigenvalues --  -20.54910 -20.53322  -1.32331  -1.30565  -0.69748
 Alpha  occ. eigenvalues --   -0.68096  -0.56110  -0.53178  -0.49470  -0.47608
 Alpha virt. eigenvalues --    0.13804   0.17169   0.20089   0.23301   0.53607
 Alpha virt. eigenvalues --    0.57624   0.58159   0.58472   0.69602   0.76008
 Alpha virt. eigenvalues --    0.76226   0.77204   0.81843   0.82865   0.85229

 Mulliken charges:
               1
     1  O   -0.477065
     2  H    0.232970
     3  H    0.249364
     4  O   -0.476688
     5  H    0.222894
     6  H    0.248525
 Sum of Mulliken charges =   0.00000

 Dipole moment (field-independent basis, Debye):
    X=             -1.5215    Y=             -0.9824    Z=              0.0000  Tot=              1.8111
 Quadrupole moment (field-independent basis, Debye-Ang):
   XX=             -9.2869   YY=             -2.5536   ZZ=            -14.7211
   XY=             -1.5806   XZ=              0.0000   YZ=              0.0000

 Normal termination of Gaussian 16 at Sat Aug 27 02:01:18 2022.
