 Gaussian 16, Revision A.03,
 Gaussian 16:  ES64L-G16RevA.03 25-Dec-2016

 ------------------
 #p CCSD(T)/cc-pVTZ
 ------------------

 ------------
 H2O_H2O_1222
 ------------
 Symbolic Z-matrix:
 Charge =  0 Multiplicity = 1

                         Standard orientation:
 ---------------------------------------------------------------------
 Center     Atomic      Atomic             Coordinates (Angstroms)
 Number     Number       Type             X           Y           Z
 ---------------------------------------------------------------------
      1          8           0        0.056793   -1.388070    0.000000
      2          1           0       -0.744710   -1.956487    0.000000
      3          1           0        0.854422   -1.961910    0.000000
      4          8           0        0.056793    1.487002    0.000000
      5          1           0       -0.402145    2.355842    0.000000
      6          1           0       -0.616250    0.771097    0.000000
 ---------------------------------------------------------------------

 SCF Done:  E(RHF) =  -152.107933685     A.U. after   10 cycles
 E2 =    -0.5279206390D+00 EUMP2 =    -0.15263585432355D+03
 CCSD(T)
 CCSD(T)= -0.15266292096D+03

 The electronic state is 1-A'.
 Alpha  occ. eigenvalues --  -20.56445 -20.52983  -1.33828  -1.30318  -0.71218
 Alpha  occ. eigenvalues --   -0.68020  -0.56986  -0.53825  -0.50931  -0.47437
 Alpha virt. eigenvalues --    0.13083   0.17487   0.19592   0.25420   0.52006
 Alpha virt. eigenvalues --    0.56359   0.57045   0.59255   0.69686   0.74666
 Alpha virt. eigenvalues --    0.74794   0.78705   0.82247   0.82795   0.84096

 Mulliken charges:
               1
     1  O   -0.486588
     2  H    0.242506
     3  H    0.258755
     4  O   -0.511370
     5  H    0.232456
     6  H    0.264240
 Sum of Mulliken charges =   0.00000

 Dipole moment (field-independent basis, Debye):
    X=             -1.8389    Y=             -1.9806    Z=              0.0000  Tot=              2.7027
 Quadrupole moment (field-independent basis, Debye-Ang):
   XX=             -9.8315   YY=             -3.8609   ZZ=            -14.7267
   XY=             -2.8716   XZ=              0.0000   YZ=              0.0000

 Normal termination of Gaussian 16 at Sat Aug 27 03:08:12 2022.
