 Gaussian 16, Revision A.03,
 Gaussian 16:  ES64L-G16RevA.03 25-Dec-2016

 ------------------
 #p CCSD(T)/cc-pVTZ
 ------------------

 ------------
 H2O_H2O_1755
 ------------
 Symbolic Z-matrix:
 Charge =  0 Multiplicity = 1

                         Standard orientation:
 ---------------------------------------------------------------------
 Center     Atomic      Atomic             Coordinates (Angstroms)
 Number     Number       Type             X           Y           Z
 ---------------------------------------------------------------------
      1          8           0        0.018361   -1.731038    0.000000
      2          1           0       -0.781730   -2.301441    0.000000
      3          1           0        0.817411   -2.302899    0.000000
      4          8           0        0.018361    1.737066    0.000000
      5          1           0        0.592642    2.534379    0.000000
      6          1           0       -0.922102    2.021733    0.000000
 ---------------------------------------------------------------------

 SCF Done:  E(RHF) =  -152.104116012     A.U. after   10 cycles
 E2 =    -0.5266954455D+00 EUMP2 =    -0.15263081145755D+03
 CCSD(T)
 CCSD(T)= -0.15265806394D+03

 The electronic state is 1-A'.
 Alpha  occ. eigenvalues --  -20.54360 -20.54240  -1.31647  -1.31508  -0.69071
 Alpha  occ. eigenvalues --   -0.68929  -0.55363  -0.54296  -0.48775  -0.48566
 Alpha virt. eigenvalues --    0.14179   0.16164   0.20557   0.21515   0.53117
 Alpha virt. eigenvalues --    0.57162   0.58052   0.58443   0.61990   0.76191
 Alpha virt. eigenvalues --    0.78886   0.79168   0.80290   0.81322   0.84070

 Mulliken charges:
               1
     1  O   -0.485012
     2  H    0.240543
     3  H    0.244703
     4  O   -0.484950
     5  H    0.239982
     6  H    0.244733
 Sum of Mulliken charges =  -0.00000

 Dipole moment (field-independent basis, Debye):
    X=             -0.6125    Y=             -0.1121    Z=              0.0000  Tot=              0.6227
 Quadrupole moment (field-independent basis, Debye-Ang):
   XX=             -8.0672   YY=              1.4696   ZZ=            -14.7093
   XY=             -0.5719   XZ=              0.0000   YZ=              0.0000

 Normal termination of Gaussian 16 at Sat Aug 27 06:36:24 2022.
