 Gaussian 16, Revision A.03,
 Gaussian 16:  ES64L-G16RevA.03 25-Dec-2016

 ------------------
 #p CCSD(T)/cc-pVTZ
 ------------------

 ------------
 H2O_H2O_1942
 ------------
 Symbolic Z-matrix:
 Charge =  0 Multiplicity = 1

                         Standard orientation:
 ---------------------------------------------------------------------
 Center     Atomic      Atomic             Coordinates (Angstroms)
 Number     Number       Type             X           Y           Z
 ---------------------------------------------------------------------
      1          8           0        0.051300   -1.792919    0.000000
      2          1           0       -0.749649   -2.362117    0.000000
      3          1           0        0.849489   -2.365981    0.000000
      4          8           0        0.051300    1.856376    0.000000
      5          1           0       -0.104947    2.826476    0.000000
      6          1           0       -0.815694    1.393961    0.000000
 ---------------------------------------------------------------------

 SCF Done:  E(RHF) =  -152.107021414     A.U. after   10 cycles
 E2 =    -0.5264361167D+00 EUMP2 =    -0.15263345753066D+03
 CCSD(T)
 CCSD(T)= -0.15266064167D+03

 The electronic state is 1-A'.
 Alpha  occ. eigenvalues --  -20.55452 -20.54202  -1.32726  -1.31477  -0.70142
 Alpha  occ. eigenvalues --   -0.68851  -0.56135  -0.54868  -0.49838  -0.48596
 Alpha virt. eigenvalues --    0.13434   0.16228   0.20072   0.22453   0.53918
 Alpha virt. eigenvalues --    0.54498   0.57331   0.58550   0.64664   0.76004
 Alpha virt. eigenvalues --    0.78531   0.78664   0.79946   0.80678   0.84904

 Mulliken charges:
               1
     1  O   -0.497166
     2  H    0.245059
     3  H    0.254820
     4  O   -0.502140
     5  H    0.241824
     6  H    0.257604
 Sum of Mulliken charges =  -0.00000

 Dipole moment (field-independent basis, Debye):
    X=             -1.7182    Y=             -1.1770    Z=              0.0000  Tot=              2.0827
 Quadrupole moment (field-independent basis, Debye-Ang):
   XX=             -9.4672   YY=             -0.0109   ZZ=            -14.7149
   XY=             -2.6726   XZ=              0.0000   YZ=              0.0000

 Normal termination of Gaussian 16 at Sat Aug 27 07:41:06 2022.
