 Gaussian 16, Revision A.03,
 Gaussian 16:  ES64L-G16RevA.03 25-Dec-2016

 ------------------
 #p CCSD(T)/cc-pVTZ
 ------------------

 ------------
 H2O_H2O_3810
 ------------
 Symbolic Z-matrix:
 Charge =  0 Multiplicity = 1

                         Standard orientation:
 ---------------------------------------------------------------------
 Center     Atomic      Atomic             Coordinates (Angstroms)
 Number     Number       Type             X           Y           Z
 ---------------------------------------------------------------------
      1          8           0        0.034781   -2.811798    0.000000
      2          1           0       -0.765395   -3.382082    0.000000
      3          1           0        0.833746   -3.383777    0.000000
      4          8           0        0.034781    2.835329    0.000000
      5          1           0        0.322437    3.774881    0.000000
      6          1           0       -0.947280    2.802730    0.000000
 ---------------------------------------------------------------------

 SCF Done:  E(RHF) =  -152.106803039     A.U. after   10 cycles
 E2 =    -0.5259444424D+00 EUMP2 =    -0.15263274748104D+03
 CCSD(T)
 CCSD(T)= -0.15265997974D+03

 The electronic state is 1-A'.
 Alpha  occ. eigenvalues --  -20.55231 -20.55060  -1.32527  -1.32354  -0.69935
 Alpha  occ. eigenvalues --   -0.69758  -0.55946  -0.55774  -0.49634  -0.49462
 Alpha virt. eigenvalues --    0.14349   0.14609   0.20427   0.20631   0.54627
 Alpha virt. eigenvalues --    0.54826   0.57497   0.57673   0.68120   0.68641
 Alpha virt. eigenvalues --    0.79245   0.79414   0.80687   0.80875   0.82628

 Mulliken charges:
               1
     1  O   -0.505322
     2  H    0.251576
     3  H    0.253747
     4  O   -0.505126
     5  H    0.250957
     6  H    0.254169
 Sum of Mulliken charges =   0.00000

 Dipole moment (field-independent basis, Debye):
    X=             -1.1926    Y=             -0.4125    Z=              0.0000  Tot=              1.2620
 Quadrupole moment (field-independent basis, Debye-Ang):
   XX=             -8.5663   YY=              8.9515   ZZ=            -14.7108
   XY=             -2.5460   XZ=              0.0000   YZ=              0.0000

 Normal termination of Gaussian 16 at Sat Aug 27 03:30:00 2022.
