 Gaussian 16, Revision A.03,
 Gaussian 16:  ES64L-G16RevA.03 25-Dec-2016

 ------------------
 #p CCSD(T)/cc-pVTZ
 ------------------

 ------------
 H2O_H2O_4379
 ------------
 Symbolic Z-matrix:
 Charge =  0 Multiplicity = 1

                         Standard orientation:
 ---------------------------------------------------------------------
 Center     Atomic      Atomic             Coordinates (Angstroms)
 Number     Number       Type             X           Y           Z
 ---------------------------------------------------------------------
      1          8           0        0.014783   -3.128276    0.000000
      2          1           0       -0.785020   -3.699083    0.000000
      3          1           0        0.814122   -3.699733    0.000000
      4          8           0        0.014783    3.132156    0.000000
      5          1           0        0.639598    3.890518    0.000000
      6          1           0       -0.905224    3.477257    0.000000
 ---------------------------------------------------------------------

 SCF Done:  E(RHF) =  -152.106825399     A.U. after   10 cycles
 E2 =    -0.5259304538D+00 EUMP2 =    -0.15263275585278D+03
 CCSD(T)
 CCSD(T)= -0.15265998836D+03

 The electronic state is 1-A'.
 Alpha  occ. eigenvalues --  -20.55200 -20.55177  -1.32496  -1.32473  -0.69903
 Alpha  occ. eigenvalues --   -0.69879  -0.55916  -0.55893  -0.49603  -0.49580
 Alpha virt. eigenvalues --    0.14421   0.14460   0.20471   0.20499   0.54665
 Alpha virt. eigenvalues --    0.54692   0.57532   0.57556   0.68294   0.68367
 Alpha virt. eigenvalues --    0.79276   0.79298   0.80719   0.80745   0.82648

 Mulliken charges:
               1
     1  O   -0.505430
     2  H    0.252371
     3  H    0.253059
     4  O   -0.505406
     5  H    0.252218
     6  H    0.253188
 Sum of Mulliken charges =  -0.00000

 Dipole moment (field-independent basis, Debye):
    X=             -0.5078    Y=             -0.0677    Z=              0.0000  Tot=              0.5123
 Quadrupole moment (field-independent basis, Debye-Ang):
   XX=             -7.9407   YY=             12.7144   ZZ=            -14.7107
   XY=             -1.1447   XZ=              0.0000   YZ=              0.0000

 Normal termination of Gaussian 16 at Sat Aug 27 06:58:58 2022.
