 Gaussian 16, Revision A.03,
 Gaussian 16:  ES64L-G16RevA.03 25-Dec-2016

 ------------------
 #p CCSD(T)/cc-pVTZ
 ------------------

 ------------
 H2O_H2O_2976
 ------------
 Symbolic Z-matrix:
 Charge =  0 Multiplicity = 1

                         Standard orientation:
 ---------------------------------------------------------------------
 Center     Atomic      Atomic             Coordinates (Angstroms)
 Number     Number       Type             X           Y           Z
 ---------------------------------------------------------------------
      1          8           0        0.003735   -2.385680    0.000000
      2          1           0       -0.795913   -2.956704    0.000000
      3          1           0        0.803229   -2.956920    0.000000
      4          8           0        0.003735    2.385923    0.000000
      5          1           0        0.764325    3.008025    0.000000
      6          1           0       -0.831408    2.903651    0.000000
 ---------------------------------------------------------------------

 SCF Done:  E(RHF) =  -152.105972908     A.U. after   10 cycles
 E2 =    -0.5260550033D+00 EUMP2 =    -0.15263202791153D+03
 CCSD(T)
 CCSD(T)= -0.15265927510D+03

 The electronic state is 1-A'.
 Alpha  occ. eigenvalues --  -20.54856 -20.54853  -1.32148  -1.32145  -0.69559
 Alpha  occ. eigenvalues --   -0.69556  -0.55550  -0.55495  -0.49251  -0.49245
 Alpha virt. eigenvalues --    0.14413   0.14983   0.20615   0.20790   0.54842
 Alpha virt. eigenvalues --    0.55192   0.57768   0.57855   0.66816   0.70670
 Alpha virt. eigenvalues --    0.79584   0.79668   0.81039   0.81135   0.82549

 Mulliken charges:
               1
     1  O   -0.500404
     2  H    0.250017
     3  H    0.250387
     4  O   -0.500398
     5  H    0.249965
     6  H    0.250433
 Sum of Mulliken charges =  -0.00000

 Dipole moment (field-independent basis, Debye):
    X=             -0.1274    Y=             -0.0043    Z=              0.0000  Tot=              0.1275
 Quadrupole moment (field-independent basis, Debye-Ang):
   XX=             -7.8267   YY=              6.9969   ZZ=            -14.7097
   XY=             -0.1908   XZ=              0.0000   YZ=              0.0000

 Normal termination of Gaussian 16 at Fri Aug 26 17:59:08 2022.
