 Gaussian 16, Revision A.03,
 Gaussian 16:  ES64L-G16RevA.03 25-Dec-2016

 ------------------
 #p CCSD(T)/cc-pVTZ
 ------------------

 ------------
 H2O_H2O_2595
 ------------
 Symbolic Z-matrix:
 Charge =  0 Multiplicity = 1

                         Standard orientation:
 ---------------------------------------------------------------------
 Center     Atomic      Atomic             Coordinates (Angstroms)
 Number     Number       Type             X           Y           Z
 ---------------------------------------------------------------------
      1          8           0        0.055260   -2.127228    0.000000
      2          1           0       -0.745560   -2.696609    0.000000
      3          1           0        0.853578   -2.700109    0.000000
      4          8           0        0.055260    2.211649    0.000000
      5          1           0       -0.287452    3.132548    0.000000
      6          1           0       -0.704721    1.588804    0.000000
 ---------------------------------------------------------------------

 SCF Done:  E(RHF) =  -152.107736477     A.U. after   10 cycles
 E2 =    -0.5260513868D+00 EUMP2 =    -0.15263378786346D+03
 CCSD(T)
 CCSD(T)= -0.15266098037D+03

 The electronic state is 1-A'.
 Alpha  occ. eigenvalues --  -20.55715 -20.54566  -1.33000  -1.31859  -0.70408
 Alpha  occ. eigenvalues --   -0.69238  -0.56448  -0.55306  -0.50114  -0.48979
 Alpha virt. eigenvalues --    0.13284   0.15635   0.20002   0.21807   0.54048
 Alpha virt. eigenvalues --    0.54698   0.57128   0.58202   0.66205   0.72566
 Alpha virt. eigenvalues --    0.78758   0.79630   0.79894   0.81438   0.82472

 Mulliken charges:
               1
     1  O   -0.507027
     2  H    0.250753
     3  H    0.257531
     4  O   -0.509094
     5  H    0.247669
     6  H    0.260168
 Sum of Mulliken charges =  -0.00000

 Dipole moment (field-independent basis, Debye):
    X=             -1.8775    Y=             -1.5241    Z=              0.0000  Tot=              2.4182
 Quadrupole moment (field-independent basis, Debye-Ang):
   XX=             -9.7228   YY=              0.6976   ZZ=            -14.7144
   XY=             -3.8811   XZ=              0.0000   YZ=              0.0000

 Normal termination of Gaussian 16 at Fri Aug 26 14:10:56 2022.
