 Gaussian 16, Revision A.03,
 Gaussian 16:  ES64L-G16RevA.03 25-Dec-2016

 ------------------
 #p CCSD(T)/cc-pVTZ
 ------------------

 -----------
 H2O_H2O_920
 -----------
 Symbolic Z-matrix:
 Charge =  0 Multiplicity = 1

                         Standard orientation:
 ---------------------------------------------------------------------
 Center     Atomic      Atomic             Coordinates (Angstroms)
 Number     Number       Type             X           Y           Z
 ---------------------------------------------------------------------
      1          8           0        0.055324   -1.236490    0.000000
      2          1           0       -0.746363   -1.804649    0.000000
      3          1           0        0.852768   -1.810588    0.000000
      4          8           0        0.055324    1.320742    0.000000
      5          1           0       -0.285983    2.242163    0.000000
      6          1           0       -0.705605    0.699057    0.000000
 ---------------------------------------------------------------------

 SCF Done:  E(RHF) =  -152.101837758     A.U. after   10 cycles
 E2 =    -0.5293779825D+00 EUMP2 =    -0.15263121574016D+03
 CCSD(T)
 CCSD(T)= -0.15265826588D+03

 The electronic state is 1-A'.
 Alpha  occ. eigenvalues --  -20.55956 -20.52524  -1.33609  -1.29855  -0.70996
 Alpha  occ. eigenvalues --   -0.68055  -0.56187  -0.53210  -0.50680  -0.46918
 Alpha virt. eigenvalues --    0.13320   0.17819   0.19679   0.25022   0.51864
 Alpha virt. eigenvalues --    0.56707   0.59337   0.60034   0.71181   0.74206
 Alpha virt. eigenvalues --    0.76278   0.82397   0.82774   0.84244   0.84300

 Mulliken charges:
               1
     1  O   -0.470176
     2  H    0.233942
     3  H    0.251981
     4  O   -0.494691
     5  H    0.220141
     6  H    0.258804
 Sum of Mulliken charges =  -0.00000

 Dipole moment (field-independent basis, Debye):
    X=             -1.7415    Y=             -1.7207    Z=              0.0000  Tot=              2.4482
 Quadrupole moment (field-independent basis, Debye-Ang):
   XX=             -9.7492   YY=             -4.2559   ZZ=            -14.7233
   XY=             -2.2572   XZ=              0.0000   YZ=              0.0000

 Normal termination of Gaussian 16 at Fri Aug 26 21:12:12 2022.
