 Gaussian 16, Revision A.03,
 Gaussian 16:  ES64L-G16RevA.03 25-Dec-2016

 ------------------
 #p CCSD(T)/cc-pVTZ
 ------------------

 ------------
 H2O_H2O_1335
 ------------
 Symbolic Z-matrix:
 Charge =  0 Multiplicity = 1

                         Standard orientation:
 ---------------------------------------------------------------------
 Center     Atomic      Atomic             Coordinates (Angstroms)
 Number     Number       Type             X           Y           Z
 ---------------------------------------------------------------------
      1          8           0        0.034792   -1.495536    0.000000
      2          1           0       -0.765912   -2.065079    0.000000
      3          1           0        0.833227   -2.068254    0.000000
      4          8           0        0.034792    1.519002    0.000000
      5          1           0        0.323317    2.458289    0.000000
      6          1           0       -0.947299    1.487314    0.000000
 ---------------------------------------------------------------------

 SCF Done:  E(RHF) =  -152.102984180     A.U. after   11 cycles
 E2 =    -0.5273595537D+00 EUMP2 =    -0.15263034373361D+03
 CCSD(T)
 CCSD(T)= -0.15265759490D+03

 The electronic state is 1-A'.
 Alpha  occ. eigenvalues --  -20.54389 -20.53795  -1.31716  -1.31047  -0.69141
 Alpha  occ. eigenvalues --   -0.68471  -0.55726  -0.53468  -0.48861  -0.48084
 Alpha virt. eigenvalues --    0.14085   0.16718   0.20383   0.22252   0.52945
 Alpha virt. eigenvalues --    0.57861   0.58089   0.58910   0.66273   0.76533
 Alpha virt. eigenvalues --    0.77506   0.78094   0.79777   0.82538   0.85706

 Mulliken charges:
               1
     1  O   -0.478719
     2  H    0.234527
     3  H    0.245307
     4  O   -0.475191
     5  H    0.230142
     6  H    0.243934
 Sum of Mulliken charges =  -0.00000

 Dipole moment (field-independent basis, Debye):
    X=             -1.1358    Y=             -0.4453    Z=              0.0000  Tot=              1.2199
 Quadrupole moment (field-independent basis, Debye-Ang):
   XX=             -8.6339   YY=             -0.8328   ZZ=            -14.7133
   XY=             -1.0137   XZ=              0.0000   YZ=              0.0000

 Normal termination of Gaussian 16 at Sat Aug 27 04:01:06 2022.
