 Gaussian 16, Revision A.03,
 Gaussian 16:  ES64L-G16RevA.03 25-Dec-2016

 ------------------
 #p CCSD(T)/cc-pVTZ
 ------------------

 -----------
 H2O_H2O_651
 -----------
 Symbolic Z-matrix:
 Charge =  0 Multiplicity = 1

                         Standard orientation:
 ---------------------------------------------------------------------
 Center     Atomic      Atomic             Coordinates (Angstroms)
 Number     Number       Type             X           Y           Z
 ---------------------------------------------------------------------
      1          8           0        0.003735   -1.149161    0.000000
      2          1           0       -0.795995   -1.720069    0.000000
      3          1           0        0.803147   -1.720516    0.000000
      4          8           0        0.003735    1.149403    0.000000
      5          1           0        0.764415    1.771394    0.000000
      6          1           0       -0.831333    1.667252    0.000000
 ---------------------------------------------------------------------

 SCF Done:  E(RHF) =  -152.082358310     A.U. after   10 cycles
 E2 =    -0.5307823975D+00 EUMP2 =    -0.15261314070793D+03
 CCSD(T)
 CCSD(T)= -0.15264036015D+03

 The electronic state is 1-A'.
 Alpha  occ. eigenvalues --  -20.52604 -20.52597  -1.31103  -1.29573  -0.68222
 Alpha  occ. eigenvalues --   -0.67242  -0.58199  -0.48421  -0.48001  -0.46208
 Alpha virt. eigenvalues --    0.14569   0.17868   0.20574   0.22520   0.50185
 Alpha virt. eigenvalues --    0.59008   0.59041   0.64518   0.72364   0.76879
 Alpha virt. eigenvalues --    0.77818   0.80763   0.84289   0.86635   0.86817

 Mulliken charges:
               1
     1  O   -0.451406
     2  H    0.224715
     3  H    0.226616
     4  O   -0.450934
     5  H    0.223637
     6  H    0.227372
 Sum of Mulliken charges =  -0.00000

 Dipole moment (field-independent basis, Debye):
    X=             -0.1142    Y=             -0.0048    Z=              0.0000  Tot=              0.1143
 Quadrupole moment (field-independent basis, Debye-Ang):
   XX=             -8.0453   YY=             -3.9305   ZZ=            -14.7365
   XY=             -0.0432   XZ=              0.0000   YZ=              0.0000

 Normal termination of Gaussian 16 at Fri Aug 26 18:41:47 2022.
