 Gaussian 16, Revision A.03,
 Gaussian 16:  ES64L-G16RevA.03 25-Dec-2016

 ------------------
 #p CCSD(T)/cc-pVTZ
 ------------------

 ------------
 H2O_H2O_1025
 ------------
 Symbolic Z-matrix:
 Charge =  0 Multiplicity = 1

                         Standard orientation:
 ---------------------------------------------------------------------
 Center     Atomic      Atomic             Coordinates (Angstroms)
 Number     Number       Type             X           Y           Z
 ---------------------------------------------------------------------
      1          8           0        0.000000   -0.000000    1.348731
      2          1           0        0.000000    0.799571    1.919863
      3          1           0       -0.000000   -0.799571    1.919863
      4          8           0        0.000000   -0.000000   -1.348731
      5          1           0       -0.000000   -0.799571   -1.919863
      6          1           0        0.000000    0.799571   -1.919863
 ---------------------------------------------------------------------

 SCF Done:  E(RHF) =  -152.097173897     A.U. after   10 cycles
 E2 =    -0.5282615074D+00 EUMP2 =    -0.15262543540473D+03
 CCSD(T)
 CCSD(T)= -0.15265275678D+03

 The electronic state is 1-AG.
 Alpha  occ. eigenvalues --  -20.53403 -20.53402  -1.31056  -1.30536  -0.68414
 Alpha  occ. eigenvalues --   -0.68052  -0.56258  -0.51411  -0.48313  -0.47384
 Alpha virt. eigenvalues --    0.14472   0.17185   0.20570   0.22132   0.50699
 Alpha virt. eigenvalues --    0.58601   0.58812   0.61930   0.71851   0.76521
 Alpha virt. eigenvalues --    0.76953   0.78314   0.79919   0.83578   0.86362

 Mulliken charges:
               1
     1  O   -0.464306
     2  H    0.232153
     3  H    0.232153
     4  O   -0.464306
     5  H    0.232153
     6  H    0.232153
 Sum of Mulliken charges =  -0.00000

 Dipole moment (field-independent basis, Debye):
    X=             -0.0000    Y=              0.0000    Z=             -0.0000  Tot=              0.0000
 Quadrupole moment (field-independent basis, Debye-Ang):
   XX=            -14.7167   YY=             -7.9429   ZZ=             -1.8612
   XY=              0.0000   XZ=             -0.0000   YZ=             -0.0000

 9\MP4DQ=-152.6342034\MP4SDQ=-152.6374004\CCSD=-152.6367636\CCSD(T)=-15
 Normal termination of Gaussian 16 at Sat Aug 27 01:28:55 2022.
