 Gaussian 16, Revision A.03,
 Gaussian 16:  ES64L-G16RevA.03 25-Dec-2016

 ------------------
 #p CCSD(T)/cc-pVTZ
 ------------------

 -----------
 H2O_H2O_997
 -----------
 Symbolic Z-matrix:
 Charge =  0 Multiplicity = 1

                         Standard orientation:
 ---------------------------------------------------------------------
 Center     Atomic      Atomic             Coordinates (Angstroms)
 Number     Number       Type             X           Y           Z
 ---------------------------------------------------------------------
      1          8           0        0.056808   -1.268425    0.000000
      2          1           0       -0.744870   -1.836596    0.000000
      3          1           0        0.854261   -1.842510    0.000000
      4          8           0        0.056808    1.367322    0.000000
      5          1           0       -0.401862    2.236304    0.000000
      6          1           0       -0.616455    0.651624    0.000000
 ---------------------------------------------------------------------

 SCF Done:  E(RHF) =  -152.104803080     A.U. after   10 cycles
 E2 =    -0.5291138378D+00 EUMP2 =    -0.15263391691826D+03
 CCSD(T)
 CCSD(T)= -0.15266091756D+03

 The electronic state is 1-A'.
 Alpha  occ. eigenvalues --  -20.56534 -20.52409  -1.34120  -1.29803  -0.71487
 Alpha  occ. eigenvalues --   -0.68064  -0.56669  -0.53344  -0.51181  -0.46893
 Alpha virt. eigenvalues --    0.13082   0.17892   0.19505   0.25881   0.51309
 Alpha virt. eigenvalues --    0.56323   0.58899   0.60270   0.70955   0.73905
 Alpha virt. eigenvalues --    0.75166   0.80869   0.82648   0.83889   0.85541

 Mulliken charges:
               1
     1  O   -0.474396
     2  H    0.238334
     3  H    0.255536
     4  O   -0.510242
     5  H    0.225512
     6  H    0.265256
 Sum of Mulliken charges =  -0.00000

 Dipole moment (field-independent basis, Debye):
    X=             -1.8044    Y=             -2.0434    Z=              0.0000  Tot=              2.7261
 Quadrupole moment (field-independent basis, Debye-Ang):
   XX=             -9.8322   YY=             -4.5529   ZZ=            -14.7237
   XY=             -2.6509   XZ=              0.0000   YZ=              0.0000

 Normal termination of Gaussian 16 at Sat Aug 27 01:15:37 2022.
