 Gaussian 16, Revision A.03,
 Gaussian 16:  ES64L-G16RevA.03 25-Dec-2016

 ------------------
 #p CCSD(T)/cc-pVTZ
 ------------------

 ------------
 H2O_H2O_3671
 ------------
 Symbolic Z-matrix:
 Charge =  0 Multiplicity = 1

                         Standard orientation:
 ---------------------------------------------------------------------
 Center     Atomic      Atomic             Coordinates (Angstroms)
 Number     Number       Type             X           Y           Z
 ---------------------------------------------------------------------
      1          8           0        0.056097   -2.694976    0.000000
      2          1           0       -0.744478   -3.264701    0.000000
      3          1           0        0.854662   -3.267514    0.000000
      4          8           0        0.056097    2.786721    0.000000
      5          1           0       -0.346496    3.683061    0.000000
      6          1           0       -0.661233    2.115196    0.000000
 ---------------------------------------------------------------------

 SCF Done:  E(RHF) =  -152.107603936     A.U. after   10 cycles
 E2 =    -0.5258880374D+00 EUMP2 =    -0.15263349197313D+03
 CCSD(T)
 CCSD(T)= -0.15266070560D+03

 The electronic state is 1-A'.
 Alpha  occ. eigenvalues --  -20.55694 -20.54971  -1.32993  -1.32269  -0.70399
 Alpha  occ. eigenvalues --   -0.69663  -0.56449  -0.55719  -0.50106  -0.49385
 Alpha virt. eigenvalues --    0.13830   0.14828   0.20065   0.20906   0.54142
 Alpha virt. eigenvalues --    0.54881   0.57095   0.57782   0.67377   0.68865
 Alpha virt. eigenvalues --    0.78777   0.79481   0.80178   0.80658   0.82584

 Mulliken charges:
               1
     1  O   -0.509993
     2  H    0.253206
     3  H    0.256843
     4  O   -0.509475
     5  H    0.251087
     6  H    0.258333
 Sum of Mulliken charges =  -0.00000

 Dipole moment (field-independent basis, Debye):
    X=             -1.9233    Y=             -1.6150    Z=              0.0000  Tot=              2.5115
 Quadrupole moment (field-independent basis, Debye-Ang):
   XX=             -9.7832   YY=              2.9393   ZZ=            -14.7128
   XY=             -5.1529   XZ=              0.0000   YZ=              0.0000

 Normal termination of Gaussian 16 at Sat Aug 27 02:21:42 2022.
