 Gaussian 16, Revision A.03,
 Gaussian 16:  ES64L-G16RevA.03 25-Dec-2016

 ------------------
 #p CCSD(T)/cc-pVTZ
 ------------------

 ------------
 H2O_H2O_3073
 ------------
 Symbolic Z-matrix:
 Charge =  0 Multiplicity = 1

                         Standard orientation:
 ---------------------------------------------------------------------
 Center     Atomic      Atomic             Coordinates (Angstroms)
 Number     Number       Type             X           Y           Z
 ---------------------------------------------------------------------
      1          8           0        0.057099   -2.367848    0.000000
      2          1           0       -0.743628   -2.937358    0.000000
      3          1           0        0.855511   -2.940599    0.000000
      4          8           0        0.057099    2.474372    0.000000
      5          1           0       -0.458823    3.310632    0.000000
      6          1           0       -0.566645    1.715129    0.000000
 ---------------------------------------------------------------------

 SCF Done:  E(RHF) =  -152.108042387     A.U. after   10 cycles
 E2 =    -0.5259267400D+00 EUMP2 =    -0.15263396912724D+03
 CCSD(T)
 CCSD(T)= -0.15266116429D+03

 The electronic state is 1-A'.
 Alpha  occ. eigenvalues --  -20.55875 -20.54751  -1.33168  -1.32051  -0.70574
 Alpha  occ. eigenvalues --   -0.69437  -0.56639  -0.55510  -0.50284  -0.49171
 Alpha virt. eigenvalues --    0.13332   0.15284   0.19930   0.21413   0.53942
 Alpha virt. eigenvalues --    0.54871   0.56971   0.57942   0.66721   0.70117
 Alpha virt. eigenvalues --    0.78608   0.79659   0.79684   0.80299   0.82808

 Mulliken charges:
               1
     1  O   -0.510951
     2  H    0.253253
     3  H    0.258308
     4  O   -0.511195
     5  H    0.249969
     6  H    0.260616
 Sum of Mulliken charges =  -0.00000

 Dipole moment (field-independent basis, Debye):
    X=             -1.9506    Y=             -1.8984    Z=              0.0000  Tot=              2.7219
 Quadrupole moment (field-independent basis, Debye-Ang):
   XX=             -9.8529   YY=              0.2093   ZZ=            -14.7144
   XY=             -4.8896   XZ=              0.0000   YZ=              0.0000

 Normal termination of Gaussian 16 at Fri Aug 26 19:09:44 2022.
