 Gaussian 16, Revision A.03,
 Gaussian 16:  ES64L-G16RevA.03 25-Dec-2016

 ------------------
 #p CCSD(T)/cc-pVTZ
 ------------------

 ------------
 H2O_H2O_2290
 ------------
 Symbolic Z-matrix:
 Charge =  0 Multiplicity = 1

                         Standard orientation:
 ---------------------------------------------------------------------
 Center     Atomic      Atomic             Coordinates (Angstroms)
 Number     Number       Type             X           Y           Z
 ---------------------------------------------------------------------
      1          8           0        0.047539   -1.986059    0.000000
      2          1           0       -0.753191   -2.555565    0.000000
      3          1           0        0.845948   -2.558815    0.000000
      4          8           0        0.047539    2.036632    0.000000
      5          1           0        0.018875    3.018816    0.000000
      6          1           0       -0.872262    1.690986    0.000000
 ---------------------------------------------------------------------

 SCF Done:  E(RHF) =  -152.106673716     A.U. after   10 cycles
 E2 =    -0.5262085580D+00 EUMP2 =    -0.15263288227449D+03
 CCSD(T)
 CCSD(T)= -0.15266009239D+03

 The electronic state is 1-A'.
 Alpha  occ. eigenvalues --  -20.55268 -20.54479  -1.32550  -1.31760  -0.69963
 Alpha  occ. eigenvalues --   -0.69145  -0.55952  -0.55152  -0.49658  -0.48873
 Alpha virt. eigenvalues --    0.13585   0.15790   0.20213   0.21672   0.53726
 Alpha virt. eigenvalues --    0.54924   0.57484   0.58254   0.64844   0.74825
 Alpha virt. eigenvalues --    0.79073   0.79756   0.80129   0.81590   0.83740

 Mulliken charges:
               1
     1  O   -0.501022
     2  H    0.247339
     3  H    0.254671
     4  O   -0.502253
     5  H    0.245016
     6  H    0.256249
 Sum of Mulliken charges =  -0.00000

 Dipole moment (field-independent basis, Debye):
    X=             -1.6066    Y=             -0.9193    Z=              0.0000  Tot=              1.8510
 Quadrupole moment (field-independent basis, Debye-Ang):
   XX=             -9.2326   YY=              1.7840   ZZ=            -14.7126
   XY=             -2.5811   XZ=              0.0000   YZ=              0.0000

 Normal termination of Gaussian 16 at Sat Aug 27 09:41:00 2022.
