 Gaussian 16, Revision A.03,
 Gaussian 16:  ES64L-G16RevA.03 25-Dec-2016

 ------------------
 #p CCSD(T)/cc-pVTZ
 ------------------

 ------------
 H2O_H2O_3665
 ------------
 Symbolic Z-matrix:
 Charge =  0 Multiplicity = 1

                         Standard orientation:
 ---------------------------------------------------------------------
 Center     Atomic      Atomic             Coordinates (Angstroms)
 Number     Number       Type             X           Y           Z
 ---------------------------------------------------------------------
      1          8           0        0.047526   -2.717308    0.000000
      2          1           0       -0.752896   -3.287247    0.000000
      3          1           0        0.846244   -3.289631    0.000000
      4          8           0        0.047526    2.767932    0.000000
      5          1           0        0.018329    3.750099    0.000000
      6          1           0       -0.872088    2.421787    0.000000
 ---------------------------------------------------------------------

 SCF Done:  E(RHF) =  -152.107075790     A.U. after   10 cycles
 E2 =    -0.5259281546D+00 EUMP2 =    -0.15263300394499D+03
 CCSD(T)
 CCSD(T)= -0.15266022976D+03

 The electronic state is 1-A'.
 Alpha  occ. eigenvalues --  -20.55401 -20.55007  -1.32698  -1.32301  -0.70106
 Alpha  occ. eigenvalues --   -0.69699  -0.56130  -0.55732  -0.49807  -0.49412
 Alpha virt. eigenvalues --    0.14148   0.14721   0.20283   0.20753   0.54442
 Alpha virt. eigenvalues --    0.54881   0.57347   0.57740   0.67804   0.68800
 Alpha virt. eigenvalues --    0.79072   0.79460   0.80501   0.80893   0.82530

 Mulliken charges:
               1
     1  O   -0.506945
     2  H    0.251875
     3  H    0.255082
     4  O   -0.506584
     5  H    0.250644
     6  H    0.255928
 Sum of Mulliken charges =   0.00000

 Dipole moment (field-independent basis, Debye):
    X=             -1.6290    Y=             -0.8897    Z=              0.0000  Tot=              1.8561
 Quadrupole moment (field-independent basis, Debye-Ang):
   XX=             -9.2250   YY=              6.3914   ZZ=            -14.7115
   XY=             -3.7539   XZ=              0.0000   YZ=              0.0000

 Normal termination of Gaussian 16 at Sat Aug 27 02:19:19 2022.
