 Gaussian 16, Revision A.03,
 Gaussian 16:  ES64L-G16RevA.03 25-Dec-2016

 ------------------
 #p CCSD(T)/cc-pVTZ
 ------------------

 ------------
 H2O_H2O_2535
 ------------
 Symbolic Z-matrix:
 Charge =  0 Multiplicity = 1

                         Standard orientation:
 ---------------------------------------------------------------------
 Center     Atomic      Atomic             Coordinates (Angstroms)
 Number     Number       Type             X           Y           Z
 ---------------------------------------------------------------------
      1          8           0        0.034785   -2.133718    0.000000
      2          1           0       -0.765582   -2.703734    0.000000
      3          1           0        0.833558   -2.705965    0.000000
      4          8           0        0.034785    2.157225    0.000000
      5          1           0        0.322756    3.096682    0.000000
      6          1           0       -0.947287    2.124957    0.000000
 ---------------------------------------------------------------------

 SCF Done:  E(RHF) =  -152.106056998     A.U. after   10 cycles
 E2 =    -0.5261357521D+00 EUMP2 =    -0.15263219274988D+03
 CCSD(T)
 CCSD(T)= -0.15265942902D+03

 The electronic state is 1-A'.
 Alpha  occ. eigenvalues --  -20.54963 -20.54656  -1.32251  -1.31941  -0.69664
 Alpha  occ. eigenvalues --   -0.69342  -0.55642  -0.55302  -0.49354  -0.49046
 Alpha virt. eigenvalues --    0.14012   0.15425   0.20444   0.21127   0.54266
 Alpha virt. eigenvalues --    0.55359   0.57698   0.58015   0.64960   0.73138
 Alpha virt. eigenvalues --    0.79438   0.79904   0.80739   0.81277   0.82572

 Mulliken charges:
               1
     1  O   -0.500229
     2  H    0.247894
     3  H    0.252508
     4  O   -0.499847
     5  H    0.246719
     6  H    0.252955
 Sum of Mulliken charges =  -0.00000

 Dipole moment (field-independent basis, Debye):
    X=             -1.1807    Y=             -0.4216    Z=              0.0000  Tot=              1.2538
 Quadrupole moment (field-independent basis, Debye-Ang):
   XX=             -8.5781   YY=              4.0276   ZZ=            -14.7106
   XY=             -1.7498   XZ=              0.0000   YZ=              0.0000

 Normal termination of Gaussian 16 at Fri Aug 26 13:27:49 2022.
