 Gaussian 16, Revision A.03,
 Gaussian 16:  ES64L-G16RevA.03 25-Dec-2016

 ------------------
 #p CCSD(T)/cc-pVTZ
 ------------------

 ------------
 H2O_H2O_1758
 ------------
 Symbolic Z-matrix:
 Charge =  0 Multiplicity = 1

                         Standard orientation:
 ---------------------------------------------------------------------
 Center     Atomic      Atomic             Coordinates (Angstroms)
 Number     Number       Type             X           Y           Z
 ---------------------------------------------------------------------
      1          8           0        0.028567   -1.726044    0.000000
      2          1           0       -0.771813   -2.296042    0.000000
      3          1           0        0.827328   -2.298310    0.000000
      4          8           0        0.028567    1.741267    0.000000
      5          1           0        0.436719    2.635089    0.000000
      6          1           0       -0.949312    1.837483    0.000000
 ---------------------------------------------------------------------

 SCF Done:  E(RHF) =  -152.104534480     A.U. after   10 cycles
 E2 =    -0.5266836553D+00 EUMP2 =    -0.15263121813520D+03
 CCSD(T)
 CCSD(T)= -0.15265845872D+03

 The electronic state is 1-A'.
 Alpha  occ. eigenvalues --  -20.54527 -20.54221  -1.31809  -1.31488  -0.69233
 Alpha  occ. eigenvalues --   -0.68899  -0.55437  -0.54410  -0.48923  -0.48569
 Alpha virt. eigenvalues --    0.14056   0.16195   0.20476   0.21639   0.53047
 Alpha virt. eigenvalues --    0.56499   0.58001   0.58477   0.62799   0.76586
 Alpha virt. eigenvalues --    0.78798   0.78994   0.80255   0.81271   0.84208

 Mulliken charges:
               1
     1  O   -0.486624
     2  H    0.240377
     3  H    0.246857
     4  O   -0.486673
     5  H    0.239059
     6  H    0.247005
 Sum of Mulliken charges =  -0.00000

 Dipole moment (field-independent basis, Debye):
    X=             -0.9525    Y=             -0.2830    Z=              0.0000  Tot=              0.9936
 Quadrupole moment (field-independent basis, Debye-Ang):
   XX=             -8.3611   YY=              1.2090   ZZ=            -14.7101
   XY=             -0.9707   XZ=              0.0000   YZ=              0.0000

 Normal termination of Gaussian 16 at Sat Aug 27 06:37:30 2022.
