 Gaussian 16, Revision A.03,
 Gaussian 16:  ES64L-G16RevA.03 25-Dec-2016

 ------------------
 #p CCSD(T)/cc-pVTZ
 ------------------

 ------------
 H2O_H2O_2557
 ------------
 Symbolic Z-matrix:
 Charge =  0 Multiplicity = 1

                         Standard orientation:
 ---------------------------------------------------------------------
 Center     Atomic      Atomic             Coordinates (Angstroms)
 Number     Number       Type             X           Y           Z
 ---------------------------------------------------------------------
      1          8           0        0.025266   -2.153412    0.000000
      2          1           0       -0.774879   -2.723738    0.000000
      3          1           0        0.824262   -2.725349    0.000000
      4          8           0        0.025266    2.165141    0.000000
      5          1           0        0.490646    3.030546    0.000000
      6          1           0       -0.944292    2.324708    0.000000
 ---------------------------------------------------------------------

 SCF Done:  E(RHF) =  -152.105792601     A.U. after   10 cycles
 E2 =    -0.5261435293D+00 EUMP2 =    -0.15263193613059D+03
 CCSD(T)
 CCSD(T)= -0.15265917980D+03

 The electronic state is 1-A'.
 Alpha  occ. eigenvalues --  -20.54832 -20.54683  -1.32120  -1.31969  -0.69534
 Alpha  occ. eigenvalues --   -0.69377  -0.55516  -0.55298  -0.49222  -0.49071
 Alpha virt. eigenvalues --    0.14166   0.15357   0.20543   0.21022   0.54487
 Alpha virt. eigenvalues --    0.55503   0.57780   0.58004   0.64759   0.72943
 Alpha virt. eigenvalues --    0.79544   0.79905   0.81006   0.81169   0.82286

 Mulliken charges:
               1
     1  O   -0.498932
     2  H    0.247854
     3  H    0.251146
     4  O   -0.498620
     5  H    0.247173
     6  H    0.251379
 Sum of Mulliken charges =  -0.00000

 Dipole moment (field-independent basis, Debye):
    X=             -0.8580    Y=             -0.2100    Z=              0.0000  Tot=              0.8833
 Quadrupole moment (field-independent basis, Debye-Ang):
   XX=             -8.2231   YY=              4.6685   ZZ=            -14.7100
   XY=             -1.1894   XZ=              0.0000   YZ=              0.0000

 Normal termination of Gaussian 16 at Fri Aug 26 13:42:23 2022.
