 Gaussian 16, Revision A.03,
 Gaussian 16:  ES64L-G16RevA.03 25-Dec-2016

 ------------------
 #p CCSD(T)/cc-pVTZ
 ------------------

 -----------
 H2O_H2O_583
 -----------
 Symbolic Z-matrix:
 Charge =  0 Multiplicity = 1

                         Standard orientation:
 ---------------------------------------------------------------------
 Center     Atomic      Atomic             Coordinates (Angstroms)
 Number     Number       Type             X           Y           Z
 ---------------------------------------------------------------------
      1          8           0        0.028573   -1.101160    0.000000
      2          1           0       -0.772262   -1.670518    0.000000
      3          1           0        0.826876   -1.674064    0.000000
      4          8           0        0.028573    1.116337    0.000000
      5          1           0        0.437440    2.009834    0.000000
      6          1           0       -0.949229    1.213334    0.000000
 ---------------------------------------------------------------------

 SCF Done:  E(RHF) =  -152.079276422     A.U. after   11 cycles
 E2 =    -0.5316241833D+00 EUMP2 =    -0.15261090060576D+03
 CCSD(T)
 CCSD(T)= -0.15263802933D+03

 The electronic state is 1-A'.
 Alpha  occ. eigenvalues --  -20.52947 -20.52456  -1.31573  -1.29444  -0.68691
 Alpha  occ. eigenvalues --   -0.67336  -0.58338  -0.48852  -0.47868  -0.46092
 Alpha virt. eigenvalues --    0.14434   0.17802   0.20420   0.22951   0.51958
 Alpha virt. eigenvalues --    0.58482   0.58619   0.63599   0.70563   0.76645
 Alpha virt. eigenvalues --    0.77766   0.81401   0.83935   0.86286   0.87425

 Mulliken charges:
               1
     1  O   -0.455324
     2  H    0.218978
     3  H    0.234269
     4  O   -0.433798
     5  H    0.200159
     6  H    0.235716
 Sum of Mulliken charges =  -0.00000

 Dipole moment (field-independent basis, Debye):
    X=             -0.8609    Y=             -0.3029    Z=              0.0000  Tot=              0.9126
 Quadrupole moment (field-independent basis, Debye-Ang):
   XX=             -8.5306   YY=             -4.4288   ZZ=            -14.7345
   XY=             -0.4181   XZ=              0.0000   YZ=              0.0000

 Normal termination of Gaussian 16 at Fri Aug 26 17:51:39 2022.
