 Gaussian 16, Revision A.03,
 Gaussian 16:  ES64L-G16RevA.03 25-Dec-2016

 ------------------
 #p CCSD(T)/cc-pVTZ
 ------------------

 -----------
 H2O_H2O_230
 -----------
 Symbolic Z-matrix:
 Charge =  0 Multiplicity = 1

                         Standard orientation:
 ---------------------------------------------------------------------
 Center     Atomic      Atomic             Coordinates (Angstroms)
 Number     Number       Type             X           Y           Z
 ---------------------------------------------------------------------
      1          8           0        0.018364   -0.920003    0.000000
      2          1           0       -0.782184   -1.489765    0.000000
      3          1           0        0.816955   -1.492503    0.000000
      4          8           0        0.018364    0.926002    0.000000
      5          1           0        0.593283    1.722855    0.000000
      6          1           0       -0.921871    1.211421    0.000000
 ---------------------------------------------------------------------

 SCF Done:  E(RHF) =  -152.015443884     A.U. after   11 cycles
 E2 =    -0.5398087822D+00 EUMP2 =    -0.15255525266621D+03
 CCSD(T)
 CCSD(T)= -0.15258149829D+03

 The electronic state is 1-A'.
 Alpha  occ. eigenvalues --  -20.51580 -20.51402  -1.33278  -1.27796  -0.69381
 Alpha  occ. eigenvalues --   -0.66543  -0.62665  -0.50222  -0.44152  -0.40241
 Alpha virt. eigenvalues --    0.14586   0.18762   0.20241   0.23108   0.51284
 Alpha virt. eigenvalues --    0.58559   0.59050   0.66248   0.69212   0.78594
 Alpha virt. eigenvalues --    0.79549   0.83442   0.84128   0.86340   0.87891

 Mulliken charges:
               1
     1  O   -0.410250
     2  H    0.197803
     3  H    0.211477
     4  O   -0.393477
     5  H    0.172889
     6  H    0.221557
 Sum of Mulliken charges =  -0.00000

 Dipole moment (field-independent basis, Debye):
    X=             -0.5239    Y=             -0.1378    Z=              0.0000  Tot=              0.5417
 Quadrupole moment (field-independent basis, Debye-Ang):
   XX=             -8.4308   YY=             -6.9191   ZZ=            -14.7483
   XY=             -0.1905   XZ=              0.0000   YZ=              0.0000

 6974\MP4DQ=-152.5612805\MP4SDQ=-152.5650602\CCSD=-152.564137\CCSD(T)=-
 Normal termination of Gaussian 16 at Fri Aug 26 14:17:54 2022.
