 Gaussian 16, Revision A.03,
 Gaussian 16:  ES64L-G16RevA.03 25-Dec-2016

 ------------------
 #p CCSD(T)/cc-pVTZ
 ------------------

 -----------
 H2O_H2O_353
 -----------
 Symbolic Z-matrix:
 Charge =  0 Multiplicity = 1

                         Standard orientation:
 ---------------------------------------------------------------------
 Center     Atomic      Atomic             Coordinates (Angstroms)
 Number     Number       Type             X           Y           Z
 ---------------------------------------------------------------------
      1          8           0        0.011143   -0.988561    0.000000
      2          1           0       -0.788981   -1.558918    0.000000
      3          1           0        0.810160   -1.560467    0.000000
      4          8           0        0.011143    0.990734    0.000000
      5          1           0        0.684622    1.706229    0.000000
      6          1           0       -0.884095    1.395772    0.000000
 ---------------------------------------------------------------------

 SCF Done:  E(RHF) =  -152.045627216     A.U. after   11 cycles
 E2 =    -0.5358803602D+00 EUMP2 =    -0.15258150757615D+03
 CCSD(T)
 CCSD(T)= -0.15260824924D+03

 The electronic state is 1-A'.
 Alpha  occ. eigenvalues --  -20.51773 -20.51707  -1.32100  -1.28392  -0.68618
 Alpha  occ. eigenvalues --   -0.66423  -0.61340  -0.49287  -0.44805  -0.43071
 Alpha virt. eigenvalues --    0.14650   0.18488   0.20433   0.22882   0.50530
 Alpha virt. eigenvalues --    0.59093   0.59164   0.66266   0.69602   0.78116
 Alpha virt. eigenvalues --    0.79199   0.83033   0.84398   0.86639   0.87397

 Mulliken charges:
               1
     1  O   -0.427099
     2  H    0.209684
     3  H    0.216816
     4  O   -0.420737
     5  H    0.198889
     6  H    0.222447
 Sum of Mulliken charges =  -0.00000

 Dipole moment (field-independent basis, Debye):
    X=             -0.3246    Y=             -0.0470    Z=              0.0000  Tot=              0.3280
 Quadrupole moment (field-independent basis, Debye-Ang):
   XX=             -8.2384   YY=             -5.9151   ZZ=            -14.7515
   XY=             -0.1054   XZ=              0.0000   YZ=              0.0000

 Normal termination of Gaussian 16 at Fri Aug 26 15:35:05 2022.
