 Gaussian 16, Revision A.03,
 Gaussian 16:  ES64L-G16RevA.03 25-Dec-2016

 ------------------
 #p CCSD(T)/cc-pVTZ
 ------------------

 ------------
 H2O_H2O_1445
 ------------
 Symbolic Z-matrix:
 Charge =  0 Multiplicity = 1

                         Standard orientation:
 ---------------------------------------------------------------------
 Center     Atomic      Atomic             Coordinates (Angstroms)
 Number     Number       Type             X           Y           Z
 ---------------------------------------------------------------------
      1          8           0        0.055296   -1.515666    0.000000
      2          1           0       -0.746012   -2.084358    0.000000
      3          1           0        0.853122   -2.089233    0.000000
      4          8           0        0.055296    1.599992    0.000000
      5          1           0       -0.286624    2.521185    0.000000
      6          1           0       -0.705219    0.977801    0.000000
 ---------------------------------------------------------------------

 SCF Done:  E(RHF) =  -152.107743269     A.U. after   10 cycles
 E2 =    -0.5271557315D+00 EUMP2 =    -0.15263489900053D+03
 CCSD(T)
 CCSD(T)= -0.15266203059D+03

 The electronic state is 1-A'.
 Alpha  occ. eigenvalues --  -20.55946 -20.53548  -1.33246  -1.30832  -0.70657
 Alpha  occ. eigenvalues --   -0.68268  -0.56611  -0.54267  -0.50362  -0.47956
 Alpha virt. eigenvalues --    0.13284   0.16990   0.19794   0.24124   0.53423
 Alpha virt. eigenvalues --    0.55460   0.56953   0.58383   0.67548   0.75555
 Alpha virt. eigenvalues --    0.76457   0.76822   0.80001   0.81798   0.84515

 Mulliken charges:
               1
     1  O   -0.489757
     2  H    0.242017
     3  H    0.256573
     4  O   -0.504217
     5  H    0.235728
     6  H    0.259656
 Sum of Mulliken charges =  -0.00000

 Dipole moment (field-independent basis, Debye):
    X=             -1.8145    Y=             -1.6319    Z=              0.0000  Tot=              2.4404
 Quadrupole moment (field-independent basis, Debye-Ang):
   XX=             -9.7343   YY=             -2.5343   ZZ=            -14.7223
   XY=             -2.7579   XZ=              0.0000   YZ=              0.0000

 Normal termination of Gaussian 16 at Sat Aug 27 04:48:20 2022.
