 Gaussian 16, Revision A.03,
 Gaussian 16:  ES64L-G16RevA.03 25-Dec-2016

 ------------------
 #p CCSD(T)/cc-pVTZ
 ------------------

 -----------
 H2O_H2O_261
 -----------
 Symbolic Z-matrix:
 Charge =  0 Multiplicity = 1

                         Standard orientation:
 ---------------------------------------------------------------------
 Center     Atomic      Atomic             Coordinates (Angstroms)
 Number     Number       Type             X           Y           Z
 ---------------------------------------------------------------------
      1          8           0        0.037706   -0.921301    0.000000
      2          1           0       -0.763839   -1.489659    0.000000
      3          1           0        0.835293   -1.495200    0.000000
      4          8           0        0.037706    0.949386    0.000000
      5          1           0        0.265596    1.905196    0.000000
      6          1           0       -0.940351    0.854980    0.000000
 ---------------------------------------------------------------------

 SCF Done:  E(RHF) =  -152.028481947     A.U. after   11 cycles
 E2 =    -0.5386740098D+00 EUMP2 =    -0.15256715595645D+03
 CCSD(T)
 CCSD(T)= -0.15259357097D+03

 The electronic state is 1-A'.
 Alpha  occ. eigenvalues --  -20.52542 -20.51594  -1.33786  -1.27978  -0.70536
 Alpha  occ. eigenvalues --   -0.67783  -0.59785  -0.50589  -0.44544  -0.42861
 Alpha virt. eigenvalues --    0.14285   0.18475   0.20050   0.23567   0.53399
 Alpha virt. eigenvalues --    0.56902   0.58548   0.64551   0.71699   0.77370
 Alpha virt. eigenvalues --    0.79822   0.82202   0.83356   0.85281   0.88484

 Mulliken charges:
               1
     1  O   -0.415948
     2  H    0.196877
     3  H    0.217542
     4  O   -0.387301
     5  H    0.156937
     6  H    0.231893
 Sum of Mulliken charges =  -0.00000

 Dipole moment (field-independent basis, Debye):
    X=             -1.0627    Y=             -0.6017    Z=              0.0000  Tot=              1.2212
 Quadrupole moment (field-independent basis, Debye-Ang):
   XX=             -8.9625   YY=             -6.6906   ZZ=            -14.7147
   XY=             -0.5367   XZ=              0.0000   YZ=              0.0000

 Normal termination of Gaussian 16 at Fri Aug 26 14:38:39 2022.
