 Gaussian 16, Revision A.03,
 Gaussian 16:  ES64L-G16RevA.03 25-Dec-2016

 ------------------
 #p CCSD(T)/cc-pVTZ
 ------------------

 ------------
 H2O_H2O_3318
 ------------
 Symbolic Z-matrix:
 Charge =  0 Multiplicity = 1

                         Standard orientation:
 ---------------------------------------------------------------------
 Center     Atomic      Atomic             Coordinates (Angstroms)
 Number     Number       Type             X           Y           Z
 ---------------------------------------------------------------------
      1          8           0        0.052828   -2.520465    0.000000
      2          1           0       -0.747757   -3.090175    0.000000
      3          1           0        0.851383   -3.093017    0.000000
      4          8           0        0.052828    2.590791    0.000000
      5          1           0       -0.167144    3.548454    0.000000
      6          1           0       -0.781735    2.072129    0.000000
 ---------------------------------------------------------------------

 SCF Done:  E(RHF) =  -152.107311037     A.U. after   10 cycles
 E2 =    -0.5259332235D+00 EUMP2 =    -0.15263324426087D+03
 CCSD(T)
 CCSD(T)= -0.15266046238D+03

 The electronic state is 1-A'.
 Alpha  occ. eigenvalues --  -20.55535 -20.54890  -1.32832  -1.32185  -0.70239
 Alpha  occ. eigenvalues --   -0.69578  -0.56273  -0.55624  -0.49942  -0.49299
 Alpha virt. eigenvalues --    0.13857   0.14970   0.20159   0.20981   0.54266
 Alpha virt. eigenvalues --    0.54943   0.57236   0.57826   0.67248   0.69486
 Alpha virt. eigenvalues --    0.78940   0.79568   0.80281   0.80791   0.82731

 Mulliken charges:
               1
     1  O   -0.508150
     2  H    0.251973
     3  H    0.256281
     4  O   -0.507706
     5  H    0.249979
     6  H    0.257623
 Sum of Mulliken charges =  -0.00000

 Dipole moment (field-independent basis, Debye):
    X=             -1.8076    Y=             -1.2432    Z=              0.0000  Tot=              2.1938
 Quadrupole moment (field-independent basis, Debye-Ang):
   XX=             -9.5589   YY=              3.7681   ZZ=            -14.7123
   XY=             -4.1651   XZ=              0.0000   YZ=              0.0000

 Normal termination of Gaussian 16 at Fri Aug 26 21:19:37 2022.
