 Gaussian 16, Revision A.03,
 Gaussian 16:  ES64L-G16RevA.03 25-Dec-2016

 ------------------
 #p CCSD(T)/cc-pVTZ
 ------------------

 ------------
 H2O_H2O_3335
 ------------
 Symbolic Z-matrix:
 Charge =  0 Multiplicity = 1

                         Standard orientation:
 ---------------------------------------------------------------------
 Center     Atomic      Atomic             Coordinates (Angstroms)
 Number     Number       Type             X           Y           Z
 ---------------------------------------------------------------------
      1          8           0        0.034782   -2.559179    0.000000
      2          1           0       -0.765453   -3.129380    0.000000
      3          1           0        0.833688   -3.131241    0.000000
      4          8           0        0.034782    2.582703    0.000000
      5          1           0        0.322536    3.522226    0.000000
      6          1           0       -0.947282    2.550207    0.000000
 ---------------------------------------------------------------------

 SCF Done:  E(RHF) =  -152.106591164     A.U. after   10 cycles
 E2 =    -0.5259813085D+00 EUMP2 =    -0.15263257247230D+03
 CCSD(T)
 CCSD(T)= -0.15265980801D+03

 The electronic state is 1-A'.
 Alpha  occ. eigenvalues --  -20.55149 -20.54942  -1.32444  -1.32234  -0.69853
 Alpha  occ. eigenvalues --   -0.69637  -0.55852  -0.55644  -0.49550  -0.49341
 Alpha virt. eigenvalues --    0.14297   0.14813   0.20450   0.20755   0.54668
 Alpha virt. eigenvalues --    0.54969   0.57558   0.57776   0.67681   0.69386
 Alpha virt. eigenvalues --    0.79328   0.79533   0.80754   0.81018   0.82735

 Mulliken charges:
               1
     1  O   -0.504083
     2  H    0.250633
     3  H    0.253461
     4  O   -0.503786
     5  H    0.249851
     6  H    0.253925
 Sum of Mulliken charges =  -0.00000

 Dipole moment (field-independent basis, Debye):
    X=             -1.1898    Y=             -0.4145    Z=              0.0000  Tot=              1.2599
 Quadrupole moment (field-independent basis, Debye-Ang):
   XX=             -8.5691   YY=              7.1255   ZZ=            -14.7106
   XY=             -2.2482   XZ=              0.0000   YZ=              0.0000

 Normal termination of Gaussian 16 at Fri Aug 26 21:27:58 2022.
