 Gaussian 16, Revision A.03,
 Gaussian 16:  ES64L-G16RevA.03 25-Dec-2016

 ------------------
 #p CCSD(T)/cc-pVTZ
 ------------------

 ------------
 H2O_H2O_2899
 ------------
 Symbolic Z-matrix:
 Charge =  0 Multiplicity = 1

                         Standard orientation:
 ---------------------------------------------------------------------
 Center     Atomic      Atomic             Coordinates (Angstroms)
 Number     Number       Type             X           Y           Z
 ---------------------------------------------------------------------
      1          8           0        0.057234   -2.270725    0.000000
      2          1           0       -0.743542   -2.840167    0.000000
      3          1           0        0.855597   -2.843544    0.000000
      4          8           0        0.057234    2.384710    0.000000
      5          1           0       -0.512208    3.185485    0.000000
      6          1           0       -0.515586    1.586346    0.000000
 ---------------------------------------------------------------------

 SCF Done:  E(RHF) =  -152.108329028     A.U. after   10 cycles
 E2 =    -0.5259506941D+00 EUMP2 =    -0.15263427972254D+03
 CCSD(T)
 CCSD(T)= -0.15266146339D+03

 The electronic state is 1-A'.
 Alpha  occ. eigenvalues --  -20.55986 -20.54659  -1.33275  -1.31962  -0.70680
 Alpha  occ. eigenvalues --   -0.69344  -0.56754  -0.55426  -0.50393  -0.49084
 Alpha virt. eigenvalues --    0.13137   0.15466   0.19864   0.21713   0.53871
 Alpha virt. eigenvalues --    0.54861   0.56894   0.58088   0.66667   0.70563
 Alpha virt. eigenvalues --    0.78503   0.79446   0.79767   0.80213   0.82793

 Mulliken charges:
               1
     1  O   -0.511030
     2  H    0.253340
     3  H    0.258807
     4  O   -0.512343
     5  H    0.249642
     6  H    0.261583
 Sum of Mulliken charges =  -0.00000

 Dipole moment (field-independent basis, Debye):
    X=             -1.9522    Y=             -2.0429    Z=              0.0000  Tot=              2.8257
 Quadrupole moment (field-independent basis, Debye-Ang):
   XX=             -9.8620   YY=             -0.7940   ZZ=            -14.7154
   XY=             -4.8536   XZ=              0.0000   YZ=              0.0000

 Normal termination of Gaussian 16 at Fri Aug 26 17:16:33 2022.
