 Gaussian 16, Revision A.03,
 Gaussian 16:  ES64L-G16RevA.03 25-Dec-2016

 ------------------
 #p CCSD(T)/cc-pVTZ
 ------------------

 ------------
 H2O_H2O_1639
 ------------
 Symbolic Z-matrix:
 Charge =  0 Multiplicity = 1

                         Standard orientation:
 ---------------------------------------------------------------------
 Center     Atomic      Atomic             Coordinates (Angstroms)
 Number     Number       Type             X           Y           Z
 ---------------------------------------------------------------------
      1          8           0        0.045363   -1.643675    0.000000
      2          1           0       -0.755543   -2.212934    0.000000
      3          1           0        0.843595   -2.216678    0.000000
      4          8           0        0.045363    1.688153    0.000000
      5          1           0        0.081301    2.670097    0.000000
      6          1           0       -0.895163    1.403695    0.000000
 ---------------------------------------------------------------------

 SCF Done:  E(RHF) =  -152.105648961     A.U. after   10 cycles
 E2 =    -0.5268022507D+00 EUMP2 =    -0.15263245121203D+03
 CCSD(T)
 CCSD(T)= -0.15265965475D+03

 The electronic state is 1-A'.
 Alpha  occ. eigenvalues --  -20.55036 -20.54025  -1.32317  -1.31284  -0.69739
 Alpha  occ. eigenvalues --   -0.68672  -0.55800  -0.54460  -0.49429  -0.48388
 Alpha virt. eigenvalues --    0.13734   0.16461   0.20202   0.22376   0.53713
 Alpha virt. eigenvalues --    0.55384   0.57644   0.58599   0.64553   0.76752
 Alpha virt. eigenvalues --    0.78138   0.78486   0.78960   0.81489   0.85230

 Mulliken charges:
               1
     1  O   -0.488490
     2  H    0.240101
     3  H    0.250950
     4  O   -0.491256
     5  H    0.236425
     6  H    0.252271
 Sum of Mulliken charges =  -0.00000

 Dipole moment (field-independent basis, Debye):
    X=             -1.5027    Y=             -0.8355    Z=              0.0000  Tot=              1.7194
 Quadrupole moment (field-independent basis, Debye-Ang):
   XX=             -9.1269   YY=             -0.2527   ZZ=            -14.7140
   XY=             -1.8538   XZ=              0.0000   YZ=              0.0000

 Normal termination of Gaussian 16 at Sat Aug 27 05:55:53 2022.
