 Gaussian 16, Revision A.03,
 Gaussian 16:  ES64L-G16RevA.03 25-Dec-2016

 ------------------
 #p CCSD(T)/cc-pVTZ
 ------------------

 ------------
 H2O_H2O_1620
 ------------
 Symbolic Z-matrix:
 Charge =  0 Multiplicity = 1

                         Standard orientation:
 ---------------------------------------------------------------------
 Center     Atomic      Atomic             Coordinates (Angstroms)
 Number     Number       Type             X           Y           Z
 ---------------------------------------------------------------------
      1          8           0        0.055289   -1.608727    0.000000
      2          1           0       -0.745922   -2.177557    0.000000
      3          1           0        0.853213   -2.182157    0.000000
      4          8           0        0.055289    1.693072    0.000000
      5          1           0       -0.286790    2.614206    0.000000
      6          1           0       -0.705120    1.070750    0.000000
 ---------------------------------------------------------------------

 SCF Done:  E(RHF) =  -152.108006038     A.U. after   10 cycles
 E2 =    -0.5268161418D+00 EUMP2 =    -0.15263482217945D+03
 CCSD(T)
 CCSD(T)= -0.15266196367D+03

 The electronic state is 1-A'.
 Alpha  occ. eigenvalues --  -20.55909 -20.53775  -1.33187  -1.31058  -0.70599
 Alpha  occ. eigenvalues --   -0.68448  -0.56595  -0.54499  -0.50305  -0.48186
 Alpha virt. eigenvalues --    0.13257   0.16753   0.19830   0.23800   0.53643
 Alpha virt. eigenvalues --    0.55092   0.56934   0.58273   0.66415   0.75870
 Alpha virt. eigenvalues --    0.76858   0.77217   0.79254   0.81373   0.84552

 Mulliken charges:
               1
     1  O   -0.493166
     2  H    0.243719
     3  H    0.256425
     4  O   -0.506030
     5  H    0.238754
     6  H    0.260298
 Sum of Mulliken charges =  -0.00000

 Dipole moment (field-independent basis, Debye):
    X=             -1.8303    Y=             -1.6093    Z=              0.0000  Tot=              2.4372
 Quadrupole moment (field-independent basis, Debye-Ang):
   XX=             -9.7305   YY=             -2.0136   ZZ=            -14.7202
   XY=             -2.9261   XZ=              0.0000   YZ=              0.0000

 Normal termination of Gaussian 16 at Sat Aug 27 05:49:13 2022.
