 Gaussian 16, Revision A.03,
 Gaussian 16:  ES64L-G16RevA.03 25-Dec-2016

 ------------------
 #p CCSD(T)/cc-pVTZ
 ------------------

 ------------
 H2O_H2O_1799
 ------------
 Symbolic Z-matrix:
 Charge =  0 Multiplicity = 1

                         Standard orientation:
 ---------------------------------------------------------------------
 Center     Atomic      Atomic             Coordinates (Angstroms)
 Number     Number       Type             X           Y           Z
 ---------------------------------------------------------------------
      1          8           0        0.057274   -1.685747    0.000000
      2          1           0       -0.743905   -2.254621    0.000000
      3          1           0        0.855231   -2.259133    0.000000
      4          8           0        0.057274    1.799651    0.000000
      5          1           0       -0.511600    2.600830    0.000000
      6          1           0       -0.516111    1.001693    0.000000
 ---------------------------------------------------------------------

 SCF Done:  E(RHF) =  -152.109836573     A.U. after   10 cycles
 E2 =    -0.5265740442D+00 EUMP2 =    -0.15263641061762D+03
 CCSD(T)
 CCSD(T)= -0.15266351957D+03

 The electronic state is 1-A'.
 Alpha  occ. eigenvalues --  -20.56479 -20.53783  -1.33744  -1.31099  -0.71143
 Alpha  occ. eigenvalues --   -0.68486  -0.57248  -0.54586  -0.50870  -0.48236
 Alpha virt. eigenvalues --    0.12867   0.16735   0.19618   0.24832   0.52758
 Alpha virt. eigenvalues --    0.55905   0.56484   0.58006   0.67461   0.74688
 Alpha virt. eigenvalues --    0.77054   0.77466   0.79877   0.80935   0.84120

 Mulliken charges:
               1
     1  O   -0.499594
     2  H    0.248868
     3  H    0.259582
     4  O   -0.517548
     5  H    0.243228
     6  H    0.265463
 Sum of Mulliken charges =  -0.00000

 Dipole moment (field-independent basis, Debye):
    X=             -1.9132    Y=             -2.1679    Z=              0.0000  Tot=              2.8913
 Quadrupole moment (field-independent basis, Debye-Ang):
   XX=             -9.8600   YY=             -3.1759   ZZ=            -14.7227
   XY=             -3.7344   XZ=              0.0000   YZ=              0.0000

 Normal termination of Gaussian 16 at Sat Aug 27 06:51:09 2022.
