 Gaussian 16, Revision A.03,
 Gaussian 16:  ES64L-G16RevA.03 25-Dec-2016

 ------------------
 #p CCSD(T)/cc-pVTZ
 ------------------

 -----------
 H2O_H2O_577
 -----------
 Symbolic Z-matrix:
 Charge =  0 Multiplicity = 1

                         Standard orientation:
 ---------------------------------------------------------------------
 Center     Atomic      Atomic             Coordinates (Angstroms)
 Number     Number       Type             X           Y           Z
 ---------------------------------------------------------------------
      1          8           0        0.007455   -1.108879    0.000000
      2          1           0       -0.792446   -1.679548    0.000000
      3          1           0        0.806696   -1.680473    0.000000
      4          8           0        0.007455    1.109848    0.000000
      5          1           0        0.726026    1.780042    0.000000
      6          1           0       -0.859557    1.572229    0.000000
 ---------------------------------------------------------------------

 SCF Done:  E(RHF) =  -152.076517722     A.U. after   10 cycles
 E2 =    -0.5316690988D+00 EUMP2 =    -0.15260818682108D+03
 CCSD(T)
 CCSD(T)= -0.15263534027D+03

 The electronic state is 1-A'.
 Alpha  occ. eigenvalues --  -20.52423 -20.52393  -1.31231  -1.29323  -0.68255
 Alpha  occ. eigenvalues --   -0.67051  -0.58813  -0.48544  -0.47036  -0.45906
 Alpha virt. eigenvalues --    0.14591   0.18004   0.20558   0.22615   0.50258
 Alpha virt. eigenvalues --    0.59031   0.59108   0.64963   0.71623   0.77080
 Alpha virt. eigenvalues --    0.78100   0.81421   0.84348   0.86667   0.86941

 Mulliken charges:
               1
     1  O   -0.447521
     2  H    0.221636
     3  H    0.225577
     4  O   -0.445437
     5  H    0.218268
     6  H    0.227478
 Sum of Mulliken charges =  -0.00000

 Dipole moment (field-independent basis, Debye):
    X=             -0.2253    Y=             -0.0195    Z=              0.0000  Tot=              0.2261
 Quadrupole moment (field-independent basis, Debye-Ang):
   XX=             -8.0957   YY=             -4.3889   ZZ=            -14.7410
   XY=             -0.0809   XZ=              0.0000   YZ=              0.0000

 2716\MP4DQ=-152.6162389\MP4SDQ=-152.6196046\CCSD=-152.6189036\CCSD(T)=
 Normal termination of Gaussian 16 at Fri Aug 26 17:48:21 2022.
