 Gaussian 16, Revision A.03,
 Gaussian 16:  ES64L-G16RevA.03 25-Dec-2016

 ------------------
 #p CCSD(T)/cc-pVTZ
 ------------------

 ------------
 H2O_H2O_2295
 ------------
 Symbolic Z-matrix:
 Charge =  0 Multiplicity = 1

                         Standard orientation:
 ---------------------------------------------------------------------
 Center     Atomic      Atomic             Coordinates (Angstroms)
 Number     Number       Type             X           Y           Z
 ---------------------------------------------------------------------
      1          8           0        0.055267   -1.967687    0.000000
      2          1           0       -0.745651   -2.536929    0.000000
      3          1           0        0.853486   -2.540707    0.000000
      4          8           0        0.055267    2.052089    0.000000
      5          1           0       -0.287285    2.973048    0.000000
      6          1           0       -0.704822    1.429376    0.000000
 ---------------------------------------------------------------------

 SCF Done:  E(RHF) =  -152.107871629     A.U. after   10 cycles
 E2 =    -0.5261726793D+00 EUMP2 =    -0.15263404430802D+03
 CCSD(T)
 CCSD(T)= -0.15266122295D+03

 The electronic state is 1-A'.
 Alpha  occ. eigenvalues --  -20.55762 -20.54384  -1.33039  -1.31675  -0.70449
 Alpha  occ. eigenvalues --   -0.69047  -0.56483  -0.55121  -0.50155  -0.48797
 Alpha virt. eigenvalues --    0.13193   0.15947   0.19961   0.22351   0.54172
 Alpha virt. eigenvalues --    0.54446   0.57093   0.58470   0.65753   0.74095
 Alpha virt. eigenvalues --    0.78629   0.79309   0.80141   0.81449   0.83064

 Mulliken charges:
               1
     1  O   -0.504342
     2  H    0.249286
     3  H    0.257383
     4  O   -0.509069
     5  H    0.245944
     6  H    0.260799
 Sum of Mulliken charges =   0.00000

 Dipole moment (field-independent basis, Debye):
    X=             -1.8681    Y=             -1.5437    Z=              0.0000  Tot=              2.4234
 Quadrupole moment (field-independent basis, Debye-Ang):
   XX=             -9.7236   YY=             -0.1170   ZZ=            -14.7155
   XY=             -3.5854   XZ=              0.0000   YZ=              0.0000

 Normal termination of Gaussian 16 at Sat Aug 27 09:42:41 2022.
