 Gaussian 16, Revision A.03,
 Gaussian 16:  ES64L-G16RevA.03 25-Dec-2016

 ------------------
 #p CCSD(T)/cc-pVTZ
 ------------------

 -----------
 H2O_H2O_466
 -----------
 Symbolic Z-matrix:
 Charge =  0 Multiplicity = 1

                         Standard orientation:
 ---------------------------------------------------------------------
 Center     Atomic      Atomic             Coordinates (Angstroms)
 Number     Number       Type             X           Y           Z
 ---------------------------------------------------------------------
      1          8           0        0.049578   -1.012122    0.000000
      2          1           0       -0.752324   -1.579977    0.000000
      3          1           0        0.846805   -1.586521    0.000000
      4          8           0        0.049578    1.068830    0.000000
      5          1           0       -0.041248    2.047225    0.000000
      6          1           0       -0.846480    0.665610    0.000000
 ---------------------------------------------------------------------

 SCF Done:  E(RHF) =  -152.069041773     A.U. after   11 cycles
 E2 =    -0.5341444076D+00 EUMP2 =    -0.15260318618013D+03
 CCSD(T)
 CCSD(T)= -0.15263005269D+03

 The electronic state is 1-A'.
 Alpha  occ. eigenvalues --  -20.54223 -20.51816  -1.33487  -1.28833  -0.70805
 Alpha  occ. eigenvalues --   -0.68373  -0.56495  -0.50402  -0.48823  -0.45662
 Alpha virt. eigenvalues --    0.13840   0.18241   0.19882   0.24227   0.52428
 Alpha virt. eigenvalues --    0.57109   0.59428   0.62931   0.71914   0.75465
 Alpha virt. eigenvalues --    0.79747   0.82891   0.83347   0.84541   0.88036

 Mulliken charges:
               1
     1  O   -0.432512
     2  H    0.208955
     3  H    0.231670
     4  O   -0.434078
     5  H    0.181948
     6  H    0.244016
 Sum of Mulliken charges =  -0.00000

 Dipole moment (field-independent basis, Debye):
    X=             -1.4540    Y=             -1.1683    Z=              0.0000  Tot=              1.8652
 Quadrupole moment (field-independent basis, Debye-Ang):
   XX=             -9.4644   YY=             -5.5920   ZZ=            -14.7081
   XY=             -1.2108   XZ=              0.0000   YZ=              0.0000

 Normal termination of Gaussian 16 at Fri Aug 26 16:43:39 2022.
