 Gaussian 16, Revision A.03,
 Gaussian 16:  ES64L-G16RevA.03 25-Dec-2016

 ------------------
 #p CCSD(T)/cc-pVTZ
 ------------------

 ------------
 H2O_H2O_4232
 ------------
 Symbolic Z-matrix:
 Charge =  0 Multiplicity = 1

                         Standard orientation:
 ---------------------------------------------------------------------
 Center     Atomic      Atomic             Coordinates (Angstroms)
 Number     Number       Type             X           Y           Z
 ---------------------------------------------------------------------
      1          8           0        0.025265   -3.044229    0.000000
      2          1           0       -0.774713   -3.614791    0.000000
      3          1           0        0.824428   -3.615931    0.000000
      4          8           0        0.025265    3.055973    0.000000
      5          1           0        0.490390    3.921516    0.000000
      6          1           0       -0.944341    3.215256    0.000000
 ---------------------------------------------------------------------

 SCF Done:  E(RHF) =  -152.106839937     A.U. after   10 cycles
 E2 =    -0.5259316662D+00 EUMP2 =    -0.15263277160329D+03
 CCSD(T)
 CCSD(T)= -0.15266000366D+03

 The electronic state is 1-A'.
 Alpha  occ. eigenvalues --  -20.55222 -20.55149  -1.32518  -1.32444  -0.69925
 Alpha  occ. eigenvalues --   -0.69850  -0.55938  -0.55866  -0.49625  -0.49552
 Alpha virt. eigenvalues --    0.14398   0.14491   0.20451   0.20532   0.54643
 Alpha virt. eigenvalues --    0.54724   0.57512   0.57586   0.68261   0.68404
 Alpha virt. eigenvalues --    0.79254   0.79326   0.80697   0.80777   0.82626

 Mulliken charges:
               1
     1  O   -0.505521
     2  H    0.252127
     3  H    0.253394
     4  O   -0.505444
     5  H    0.251809
     6  H    0.253634
 Sum of Mulliken charges =  -0.00000

 Dipole moment (field-independent basis, Debye):
    X=             -0.8675    Y=             -0.2052    Z=              0.0000  Tot=              0.8915
 Quadrupole moment (field-independent basis, Debye-Ang):
   XX=             -8.2055   YY=             11.4976   ZZ=            -14.7108
   XY=             -1.9501   XZ=              0.0000   YZ=              0.0000

 Normal termination of Gaussian 16 at Sat Aug 27 06:09:45 2022.
