 Gaussian 16, Revision A.03,
 Gaussian 16:  ES64L-G16RevA.03 25-Dec-2016

 ------------------
 #p CCSD(T)/cc-pVTZ
 ------------------

 ------------
 H2O_H2O_2019
 ------------
 Symbolic Z-matrix:
 Charge =  0 Multiplicity = 1

                         Standard orientation:
 ---------------------------------------------------------------------
 Center     Atomic      Atomic             Coordinates (Angstroms)
 Number     Number       Type             X           Y           Z
 ---------------------------------------------------------------------
      1          8           0        0.054179   -1.825322    0.000000
      2          1           0       -0.746816   -2.394455    0.000000
      3          1           0        0.852321   -2.398449    0.000000
      4          8           0        0.054179    1.902561    0.000000
      5          1           0       -0.227280    2.843990    0.000000
      6          1           0       -0.745087    1.331001    0.000000
 ---------------------------------------------------------------------

 SCF Done:  E(RHF) =  -152.107669159     A.U. after   10 cycles
 E2 =    -0.5263570675D+00 EUMP2 =    -0.15263402622641D+03
 CCSD(T)
 CCSD(T)= -0.15266119799D+03

 The electronic state is 1-A'.
 Alpha  occ. eigenvalues --  -20.55691 -20.54206  -1.32965  -1.31490  -0.70377
 Alpha  occ. eigenvalues --   -0.68859  -0.56390  -0.54922  -0.50079  -0.48613
 Alpha virt. eigenvalues --    0.13267   0.16218   0.19971   0.22720   0.54124
 Alpha virt. eigenvalues --    0.54384   0.57136   0.58551   0.65192   0.75333
 Alpha virt. eigenvalues --    0.78436   0.78868   0.79961   0.80522   0.84713

 Mulliken charges:
               1
     1  O   -0.499920
     2  H    0.246812
     3  H    0.256364
     4  O   -0.506577
     5  H    0.243319
     6  H    0.260001
 Sum of Mulliken charges =  -0.00000

 Dipole moment (field-independent basis, Debye):
    X=             -1.8191    Y=             -1.4313    Z=              0.0000  Tot=              2.3147
 Quadrupole moment (field-independent basis, Debye-Ang):
   XX=             -9.6519   YY=             -0.4820   ZZ=            -14.7160
   XY=             -3.1286   XZ=              0.0000   YZ=              0.0000

 Normal termination of Gaussian 16 at Sat Aug 27 08:08:14 2022.
