 Gaussian 16, Revision A.03,
 Gaussian 16:  ES64L-G16RevA.03 25-Dec-2016

 ------------------
 #p CCSD(T)/cc-pVTZ
 ------------------

 ------------
 H2O_H2O_2100
 ------------
 Symbolic Z-matrix:
 Charge =  0 Multiplicity = 1

                         Standard orientation:
 ---------------------------------------------------------------------
 Center     Atomic      Atomic             Coordinates (Angstroms)
 Number     Number       Type             X           Y           Z
 ---------------------------------------------------------------------
      1          8           0        0.000000   -0.000000    1.920456
      2          1           0        0.000000    0.799571    2.491588
      3          1           0       -0.000000   -0.799571    2.491588
      4          8           0        0.000000   -0.000000   -1.920456
      5          1           0       -0.000000   -0.799571   -2.491588
      6          1           0        0.000000    0.799571   -2.491588
 ---------------------------------------------------------------------

 SCF Done:  E(RHF) =  -152.104814755     A.U. after   10 cycles
 E2 =    -0.5263878631D+00 EUMP2 =    -0.15263120261799D+03
 CCSD(T)
 CCSD(T)= -0.15265845316D+03

 The electronic state is 1-AG.
 Alpha  occ. eigenvalues --  -20.54481 -20.54481  -1.31773  -1.31751  -0.69193
 Alpha  occ. eigenvalues --   -0.69171  -0.55320  -0.54798  -0.48893  -0.48822
 Alpha virt. eigenvalues --    0.14214   0.15759   0.20634   0.21196   0.54150
 Alpha virt. eigenvalues --    0.56626   0.57925   0.58236   0.61450   0.75209
 Alpha virt. eigenvalues --    0.79436   0.80547   0.80565   0.80920   0.82413

 Mulliken charges:
               1
     1  O   -0.491598
     2  H    0.245799
     3  H    0.245799
     4  O   -0.491598
     5  H    0.245799
     6  H    0.245799
 Sum of Mulliken charges =   0.00000

 Dipole moment (field-independent basis, Debye):
    X=             -0.0000    Y=              0.0000    Z=              0.0000  Tot=              0.0000
 Quadrupole moment (field-independent basis, Debye-Ang):
   XX=            -14.7092   YY=             -7.8420   ZZ=              3.1965
   XY=              0.0000   XZ=              0.0000   YZ=             -0.0000

 MP4DQ=-152.6402631\MP4SDQ=-152.6433529\CCSD=-152.6427512\CCSD(T)=-152.
 Normal termination of Gaussian 16 at Sat Aug 27 08:35:20 2022.
