 Gaussian 16, Revision A.03,
 Gaussian 16:  ES64L-G16RevA.03 25-Dec-2016

 ------------------
 #p CCSD(T)/cc-pVTZ
 ------------------

 ------------
 H2O_H2O_1322
 ------------
 Symbolic Z-matrix:
 Charge =  0 Multiplicity = 1

                         Standard orientation:
 ---------------------------------------------------------------------
 Center     Atomic      Atomic             Coordinates (Angstroms)
 Number     Number       Type             X           Y           Z
 ---------------------------------------------------------------------
      1          8           0        0.056787   -1.441246    0.000000
      2          1           0       -0.744648   -2.009761    0.000000
      3          1           0        0.854486   -2.014990    0.000000
      4          8           0        0.056787    1.540192    0.000000
      5          1           0       -0.402256    2.408976    0.000000
      6          1           0       -0.616169    0.824206    0.000000
 ---------------------------------------------------------------------

 SCF Done:  E(RHF) =  -152.108515493     A.U. after   10 cycles
 E2 =    -0.5275538173D+00 EUMP2 =    -0.15263606931005D+03
 CCSD(T)
 CCSD(T)= -0.15266315330D+03

 The electronic state is 1-A'.
 Alpha  occ. eigenvalues --  -20.56398 -20.53185  -1.33735  -1.30507  -0.71131
 Alpha  occ. eigenvalues --   -0.68082  -0.57019  -0.54004  -0.50846  -0.47633
 Alpha virt. eigenvalues --    0.13082   0.17322   0.19621   0.25211   0.52308
 Alpha virt. eigenvalues --    0.56028   0.56787   0.58887   0.68997   0.74801
 Alpha virt. eigenvalues --    0.75298   0.77887   0.81845   0.82025   0.84160

 Mulliken charges:
               1
     1  O   -0.489571
     2  H    0.243508
     3  H    0.259168
     4  O   -0.511616
     5  H    0.234797
     6  H    0.263714
 Sum of Mulliken charges =  -0.00000

 Dipole moment (field-independent basis, Debye):
    X=             -1.8515    Y=             -1.9576    Z=              0.0000  Tot=              2.6944
 Quadrupole moment (field-independent basis, Debye-Ang):
   XX=             -9.8308   YY=             -3.5724   ZZ=            -14.7262
   XY=             -2.9694   XZ=              0.0000   YZ=              0.0000

 Normal termination of Gaussian 16 at Sat Aug 27 03:54:28 2022.
