 Gaussian 16, Revision A.03,
 Gaussian 16:  ES64L-G16RevA.03 25-Dec-2016

 ------------------
 #p CCSD(T)/cc-pVTZ
 ------------------

 ------------
 H2O_H2O_2940
 ------------
 Symbolic Z-matrix:
 Charge =  0 Multiplicity = 1

                         Standard orientation:
 ---------------------------------------------------------------------
 Center     Atomic      Atomic             Coordinates (Angstroms)
 Number     Number       Type             X           Y           Z
 ---------------------------------------------------------------------
      1          8           0        0.047532   -2.331739    0.000000
      2          1           0       -0.753029   -2.901483    0.000000
      3          1           0        0.846111   -2.904257    0.000000
      4          8           0        0.047532    2.382339    0.000000
      5          1           0        0.018574    3.364514    0.000000
      6          1           0       -0.872166    2.036419    0.000000
 ---------------------------------------------------------------------

 SCF Done:  E(RHF) =  -152.106889831     A.U. after   10 cycles
 E2 =    -0.5260022650D+00 EUMP2 =    -0.15263289209592D+03
 CCSD(T)
 CCSD(T)= -0.15266011636D+03

 The electronic state is 1-A'.
 Alpha  occ. eigenvalues --  -20.55333 -20.54784  -1.32626  -1.32074  -0.70036
 Alpha  occ. eigenvalues --   -0.69467  -0.56046  -0.55495  -0.49734  -0.49186
 Alpha virt. eigenvalues --    0.13874   0.15177   0.20260   0.21084   0.54337
 Alpha virt. eigenvalues --    0.55018   0.57411   0.57897   0.66714   0.70864
 Alpha virt. eigenvalues --    0.79143   0.79685   0.80400   0.81251   0.82915

 Mulliken charges:
               1
     1  O   -0.505449
     2  H    0.250362
     3  H    0.255264
     4  O   -0.505093
     5  H    0.248571
     6  H    0.256346
 Sum of Mulliken charges =  -0.00000

 Dipole moment (field-independent basis, Debye):
    X=             -1.6213    Y=             -0.8999    Z=              0.0000  Tot=              1.8543
 Quadrupole moment (field-independent basis, Debye-Ang):
   XX=             -9.2269   YY=              3.9716   ZZ=            -14.7117
   XY=             -3.1338   XZ=              0.0000   YZ=              0.0000

 Normal termination of Gaussian 16 at Fri Aug 26 17:39:02 2022.
