 Gaussian 16, Revision A.03,
 Gaussian 16:  ES64L-G16RevA.03 25-Dec-2016

 ------------------
 #p CCSD(T)/cc-pVTZ
 ------------------

 ------------
 H2O_H2O_2643
 ------------
 Symbolic Z-matrix:
 Charge =  0 Multiplicity = 1

                         Standard orientation:
 ---------------------------------------------------------------------
 Center     Atomic      Atomic             Coordinates (Angstroms)
 Number     Number       Type             X           Y           Z
 ---------------------------------------------------------------------
      1          8           0        0.052838   -2.161491    0.000000
      2          1           0       -0.747912   -2.730968    0.000000
      3          1           0        0.851227   -2.734275    0.000000
      4          8           0        0.052838    2.231786    0.000000
      5          1           0       -0.166855    3.189514    0.000000
      6          1           0       -0.781875    1.713367    0.000000
 ---------------------------------------------------------------------

 SCF Done:  E(RHF) =  -152.107322532     A.U. after   10 cycles
 E2 =    -0.5260490972D+00 EUMP2 =    -0.15263337162887D+03
 CCSD(T)
 CCSD(T)= -0.15266057714D+03

 The electronic state is 1-A'.
 Alpha  occ. eigenvalues --  -20.55538 -20.54622  -1.32826  -1.31912  -0.70235
 Alpha  occ. eigenvalues --   -0.69296  -0.56258  -0.55346  -0.49937  -0.49029
 Alpha virt. eigenvalues --    0.13473   0.15526   0.20102   0.21540   0.54057
 Alpha virt. eigenvalues --    0.54811   0.57265   0.58085   0.66130   0.72530
 Alpha virt. eigenvalues --    0.78933   0.79848   0.79892   0.81648   0.82647

 Mulliken charges:
               1
     1  O   -0.506068
     2  H    0.250210
     3  H    0.256641
     4  O   -0.506994
     5  H    0.247580
     6  H    0.258632
 Sum of Mulliken charges =  -0.00000

 Dipole moment (field-independent basis, Debye):
    X=             -1.7963    Y=             -1.2642    Z=              0.0000  Tot=              2.1965
 Quadrupole moment (field-independent basis, Debye-Ang):
   XX=             -9.5599   YY=              1.7666   ZZ=            -14.7133
   XY=             -3.5251   XZ=              0.0000   YZ=              0.0000

 Normal termination of Gaussian 16 at Fri Aug 26 14:40:07 2022.
