 Gaussian 16, Revision A.03,
 Gaussian 16:  ES64L-G16RevA.03 25-Dec-2016

 ------------------
 #p CCSD(T)/cc-pVTZ
 ------------------

 -----------
 H2O_H2O_615
 -----------
 Symbolic Z-matrix:
 Charge =  0 Multiplicity = 1

                         Standard orientation:
 ---------------------------------------------------------------------
 Center     Atomic      Atomic             Coordinates (Angstroms)
 Number     Number       Type             X           Y           Z
 ---------------------------------------------------------------------
      1          8           0        0.047580   -1.095314    0.000000
      2          1           0       -0.754069   -1.663525    0.000000
      3          1           0        0.845062   -1.669359    0.000000
      4          8           0        0.047580    1.145732    0.000000
      5          1           0        0.020502    2.127962    0.000000
      6          1           0       -0.872779    0.801573    0.000000
 ---------------------------------------------------------------------

 SCF Done:  E(RHF) =  -152.085121900     A.U. after   11 cycles
 E2 =    -0.5315850051D+00 EUMP2 =    -0.15261670690477D+03
 CCSD(T)
 CCSD(T)= -0.15264377472D+03

 The electronic state is 1-A'.
 Alpha  occ. eigenvalues --  -20.54295 -20.52347  -1.32672  -1.29471  -0.69984
 Alpha  occ. eigenvalues --   -0.67975  -0.56740  -0.50201  -0.49781  -0.46326
 Alpha virt. eigenvalues --    0.13908   0.17884   0.20024   0.23873   0.52871
 Alpha virt. eigenvalues --    0.57482   0.58792   0.61786   0.71382   0.75265
 Alpha virt. eigenvalues --    0.79027   0.82203   0.83186   0.85059   0.87794

 Mulliken charges:
               1
     1  O   -0.454289
     2  H    0.219862
     3  H    0.239413
     4  O   -0.446079
     5  H    0.195904
     6  H    0.245189
 Sum of Mulliken charges =  -0.00000

 Dipole moment (field-independent basis, Debye):
    X=             -1.4356    Y=             -1.0132    Z=              0.0000  Tot=              1.7572
 Quadrupole moment (field-independent basis, Debye-Ang):
   XX=             -9.3402   YY=             -4.6754   ZZ=            -14.7222
   XY=             -1.1971   XZ=              0.0000   YZ=              0.0000

 Normal termination of Gaussian 16 at Fri Aug 26 18:15:12 2022.
