 Gaussian 16, Revision A.03,
 Gaussian 16:  ES64L-G16RevA.03 25-Dec-2016

 ------------------
 #p CCSD(T)/cc-pVTZ
 ------------------

 ------------
 H2O_H2O_2764
 ------------
 Symbolic Z-matrix:
 Charge =  0 Multiplicity = 1

                         Standard orientation:
 ---------------------------------------------------------------------
 Center     Atomic      Atomic             Coordinates (Angstroms)
 Number     Number       Type             X           Y           Z
 ---------------------------------------------------------------------
      1          8           0        0.045349   -2.241962    0.000000
      2          1           0       -0.755204   -2.811716    0.000000
      3          1           0        0.843935   -2.814471    0.000000
      4          8           0        0.045349    2.286496    0.000000
      5          1           0        0.080680    3.268462    0.000000
      6          1           0       -0.895001    2.001456    0.000000
 ---------------------------------------------------------------------

 SCF Done:  E(RHF) =  -152.106697751     A.U. after   10 cycles
 E2 =    -0.5260442514D+00 EUMP2 =    -0.15263274200232D+03
 CCSD(T)
 CCSD(T)= -0.15265996790D+03

 The electronic state is 1-A'.
 Alpha  occ. eigenvalues --  -20.55249 -20.54723  -1.32541  -1.32011  -0.69951
 Alpha  occ. eigenvalues --   -0.69404  -0.55950  -0.55421  -0.49647  -0.49121
 Alpha virt. eigenvalues --    0.13854   0.15303   0.20292   0.21156   0.54282
 Alpha virt. eigenvalues --    0.55065   0.57483   0.57948   0.66216   0.71826
 Alpha virt. eigenvalues --    0.79219   0.79759   0.80435   0.81518   0.83074

 Mulliken charges:
               1
     1  O   -0.504093
     2  H    0.249558
     3  H    0.254771
     4  O   -0.503806
     5  H    0.247815
     6  H    0.255754
 Sum of Mulliken charges =  -0.00000

 Dipole moment (field-independent basis, Debye):
    X=             -1.5439    Y=             -0.7950    Z=              0.0000  Tot=              1.7366
 Quadrupole moment (field-independent basis, Debye-Ang):
   XX=             -9.1015   YY=              3.7443   ZZ=            -14.7115
   XY=             -2.7616   XZ=              0.0000   YZ=              0.0000

 Normal termination of Gaussian 16 at Fri Aug 26 15:54:21 2022.
