 Gaussian 16, Revision A.03,
 Gaussian 16:  ES64L-G16RevA.03 25-Dec-2016

 ------------------
 #p CCSD(T)/cc-pVTZ
 ------------------

 ------------
 H2O_H2O_4914
 ------------
 Symbolic Z-matrix:
 Charge =  0 Multiplicity = 1

                         Standard orientation:
 ---------------------------------------------------------------------
 Center     Atomic      Atomic             Coordinates (Angstroms)
 Number     Number       Type             X           Y           Z
 ---------------------------------------------------------------------
      1          8           0        0.045336   -3.385383    0.000000
      2          1           0       -0.754888   -3.955599    0.000000
      3          1           0        0.844253   -3.957430    0.000000
      4          8           0        0.045336    3.429969    0.000000
      5          1           0        0.080100    4.411956    0.000000
      6          1           0       -0.894849    3.144386    0.000000
 ---------------------------------------------------------------------

 SCF Done:  E(RHF) =  -152.107227900     A.U. after   10 cycles
 E2 =    -0.5258904288D+00 EUMP2 =    -0.15263311832918D+03
 CCSD(T)
 CCSD(T)= -0.15266034257D+03

 The electronic state is 1-A'.
 Alpha  occ. eigenvalues --  -20.55458 -20.55238  -1.32756  -1.32535  -0.70163
 Alpha  occ. eigenvalues --   -0.69937  -0.56195  -0.55973  -0.49866  -0.49646
 Alpha virt. eigenvalues --    0.14204   0.14424   0.20269   0.20500   0.54402
 Alpha virt. eigenvalues --    0.54635   0.57304   0.57525   0.68008   0.68233
 Alpha virt. eigenvalues --    0.79013   0.79231   0.80448   0.80685   0.82372

 Mulliken charges:
               1
     1  O   -0.507812
     2  H    0.253088
     3  H    0.254724
     4  O   -0.507678
     5  H    0.252476
     6  H    0.255201
 Sum of Mulliken charges =  -0.00000

 Dipole moment (field-independent basis, Debye):
    X=             -1.5596    Y=             -0.7769    Z=              0.0000  Tot=              1.7424
 Quadrupole moment (field-independent basis, Debye-Ang):
   XX=             -9.0965   YY=             11.1385   ZZ=            -14.7115
   XY=             -4.5226   XZ=              0.0000   YZ=              0.0000

 Normal termination of Gaussian 16 at Sat Aug 27 10:05:59 2022.
