 Gaussian 16, Revision A.03,
 Gaussian 16:  ES64L-G16RevA.03 25-Dec-2016

 ------------------
 #p CCSD(T)/cc-pVTZ
 ------------------

 ------------
 H2O_H2O_3396
 ------------
 Symbolic Z-matrix:
 Charge =  0 Multiplicity = 1

                         Standard orientation:
 ---------------------------------------------------------------------
 Center     Atomic      Atomic             Coordinates (Angstroms)
 Number     Number       Type             X           Y           Z
 ---------------------------------------------------------------------
      1          8           0        0.056101   -2.548727    0.000000
      2          1           0       -0.744530   -3.118372    0.000000
      3          1           0        0.854609   -3.121344    0.000000
      4          8           0        0.056101    2.640461    0.000000
      5          1           0       -0.346403    3.536840    0.000000
      6          1           0       -0.661295    1.969007    0.000000
 ---------------------------------------------------------------------

 SCF Done:  E(RHF) =  -152.107651279     A.U. after   10 cycles
 E2 =    -0.5259049516D+00 EUMP2 =    -0.15263355623049D+03
 CCSD(T)
 CCSD(T)= -0.15266076651D+03

 The electronic state is 1-A'.
 Alpha  occ. eigenvalues --  -20.55709 -20.54890  -1.33006  -1.32188  -0.70412
 Alpha  occ. eigenvalues --   -0.69579  -0.56463  -0.55638  -0.50119  -0.49304
 Alpha virt. eigenvalues --    0.13693   0.14990   0.20045   0.21049   0.54108
 Alpha virt. eigenvalues --    0.54911   0.57090   0.57826   0.67117   0.69330
 Alpha virt. eigenvalues --    0.78766   0.79559   0.80085   0.80535   0.82738

 Mulliken charges:
               1
     1  O   -0.510027
     2  H    0.252962
     3  H    0.257220
     4  O   -0.509558
     5  H    0.250499
     6  H    0.258904
 Sum of Mulliken charges =  -0.00000

 Dipole moment (field-independent basis, Debye):
    X=             -1.9207    Y=             -1.6217    Z=              0.0000  Tot=              2.5138
 Quadrupole moment (field-independent basis, Debye-Ang):
   XX=             -9.7828   YY=              2.2393   ZZ=            -14.7131
   XY=             -4.8742   XZ=              0.0000   YZ=              0.0000

 Normal termination of Gaussian 16 at Fri Aug 26 21:58:31 2022.
