 Gaussian 16, Revision A.03,
 Gaussian 16:  ES64L-G16RevA.03 25-Dec-2016

 ------------------
 #p CCSD(T)/cc-pVTZ
 ------------------

 ------------
 H2O_H2O_4639
 ------------
 Symbolic Z-matrix:
 Charge =  0 Multiplicity = 1

                         Standard orientation:
 ---------------------------------------------------------------------
 Center     Atomic      Atomic             Coordinates (Angstroms)
 Number     Number       Type             X           Y           Z
 ---------------------------------------------------------------------
      1          8           0        0.045338   -3.239130    0.000000
      2          1           0       -0.754916   -3.809306    0.000000
      3          1           0        0.844225   -3.811218    0.000000
      4          8           0        0.045338    3.283711    0.000000
      5          1           0        0.080151    4.265697    0.000000
      6          1           0       -0.894863    2.998177    0.000000
 ---------------------------------------------------------------------

 SCF Done:  E(RHF) =  -152.107191841     A.U. after   10 cycles
 E2 =    -0.5258964172D+00 EUMP2 =    -0.15263308825866D+03
 CCSD(T)
 CCSD(T)= -0.15266031308D+03

 The electronic state is 1-A'.
 Alpha  occ. eigenvalues --  -20.55441 -20.55199  -1.32738  -1.32495  -0.70145
 Alpha  occ. eigenvalues --   -0.69898  -0.56176  -0.55933  -0.49848  -0.49606
 Alpha virt. eigenvalues --    0.14216   0.14462   0.20281   0.20536   0.54419
 Alpha virt. eigenvalues --    0.54677   0.57319   0.57561   0.68027   0.68280
 Alpha virt. eigenvalues --    0.79031   0.79270   0.80467   0.80727   0.82392

 Mulliken charges:
               1
     1  O   -0.507604
     2  H    0.252873
     3  H    0.254731
     4  O   -0.507443
     5  H    0.252184
     6  H    0.255259
 Sum of Mulliken charges =  -0.00000

 Dipole moment (field-independent basis, Debye):
    X=             -1.5588    Y=             -0.7778    Z=              0.0000  Tot=              1.7420
 Quadrupole moment (field-independent basis, Debye-Ang):
   XX=             -9.0966   YY=             10.1991   ZZ=            -14.7115
   XY=             -4.2960   XZ=              0.0000   YZ=              0.0000

 Normal termination of Gaussian 16 at Sat Aug 27 08:29:07 2022.
