 Gaussian 16, Revision A.03,
 Gaussian 16:  ES64L-G16RevA.03 25-Dec-2016

 ------------------
 #p CCSD(T)/cc-pVTZ
 ------------------

 ------------
 H2O_H2O_1212
 ------------
 Symbolic Z-matrix:
 Charge =  0 Multiplicity = 1

                         Standard orientation:
 ---------------------------------------------------------------------
 Center     Atomic      Atomic             Coordinates (Angstroms)
 Number     Number       Type             X           Y           Z
 ---------------------------------------------------------------------
      1          8           0        0.040425   -1.423736    0.000000
      2          1           0       -0.760522   -1.992937    0.000000
      3          1           0        0.838616   -1.996796    0.000000
      4          8           0        0.040425    1.456997    0.000000
      5          1           0        0.204295    2.425839    0.000000
      6          1           0       -0.929196    1.297806    0.000000
 ---------------------------------------------------------------------

 SCF Done:  E(RHF) =  -152.102660196     A.U. after   11 cycles
 E2 =    -0.5276784104D+00 EUMP2 =    -0.15263033860668D+03
 CCSD(T)
 CCSD(T)= -0.15265757562D+03

 The electronic state is 1-A'.
 Alpha  occ. eigenvalues --  -20.54528 -20.53603  -1.31888  -1.30849  -0.69310
 Alpha  occ. eigenvalues --   -0.68292  -0.55915  -0.53239  -0.49037  -0.47883
 Alpha virt. eigenvalues --    0.14002   0.16905   0.20279   0.22645   0.53374
 Alpha virt. eigenvalues --    0.57960   0.58034   0.58784   0.67773   0.76197
 Alpha virt. eigenvalues --    0.76906   0.77163   0.80860   0.82808   0.85571

 Mulliken charges:
               1
     1  O   -0.477684
     2  H    0.233271
     3  H    0.246488
     4  O   -0.473431
     5  H    0.226259
     6  H    0.245096
 Sum of Mulliken charges =  -0.00000

 Dipole moment (field-independent basis, Debye):
    X=             -1.3072    Y=             -0.6373    Z=              0.0000  Tot=              1.4543
 Quadrupole moment (field-independent basis, Debye-Ang):
   XX=             -8.9020   YY=             -1.6015   ZZ=            -14.7165
   XY=             -1.2133   XZ=              0.0000   YZ=              0.0000

 Normal termination of Gaussian 16 at Sat Aug 27 03:03:33 2022.
