 Gaussian 16, Revision A.03,
 Gaussian 16:  ES64L-G16RevA.03 25-Dec-2016

 ------------------
 #p CCSD(T)/cc-pVTZ
 ------------------

 -----------
 H2O_H2O_453
 -----------
 Symbolic Z-matrix:
 Charge =  0 Multiplicity = 1

                         Standard orientation:
 ---------------------------------------------------------------------
 Center     Atomic      Atomic             Coordinates (Angstroms)
 Number     Number       Type             X           Y           Z
 ---------------------------------------------------------------------
      1          8           0        0.011143   -1.041744    0.000000
      2          1           0       -0.788953   -1.612141    0.000000
      3          1           0        0.810189   -1.613611    0.000000
      4          8           0        0.011143    1.043919    0.000000
      5          1           0        0.684587    1.759446    0.000000
      6          1           0       -0.884115    1.448911    0.000000
 ---------------------------------------------------------------------

 SCF Done:  E(RHF) =  -152.062576502     A.U. after   10 cycles
 E2 =    -0.5336469773D+00 EUMP2 =    -0.15259622347937D+03
 CCSD(T)
 CCSD(T)= -0.15262320037D+03

 The electronic state is 1-A'.
 Alpha  occ. eigenvalues --  -20.52092 -20.52025  -1.31607  -1.28843  -0.68406
 Alpha  occ. eigenvalues --   -0.66716  -0.60057  -0.48877  -0.45336  -0.45089
 Alpha virt. eigenvalues --    0.14626   0.18244   0.20503   0.22776   0.50453
 Alpha virt. eigenvalues --    0.59056   0.59151   0.65667   0.70408   0.77577
 Alpha virt. eigenvalues --    0.78640   0.82400   0.84384   0.86674   0.87197

 Mulliken charges:
               1
     1  O   -0.438513
     2  H    0.215697
     3  H    0.222154
     4  O   -0.432974
     5  H    0.207420
     6  H    0.226215
 Sum of Mulliken charges =  -0.00000

 Dipole moment (field-independent basis, Debye):
    X=             -0.3299    Y=             -0.0452    Z=              0.0000  Tot=              0.3330
 Quadrupole moment (field-independent basis, Debye-Ang):
   XX=             -8.1862   YY=             -5.2012   ZZ=            -14.7473
   XY=             -0.1110   XZ=              0.0000   YZ=              0.0000

 Normal termination of Gaussian 16 at Fri Aug 26 16:35:58 2022.
