 Gaussian 16, Revision A.03,
 Gaussian 16:  ES64L-G16RevA.03 25-Dec-2016

 ------------------
 #p CCSD(T)/cc-pVTZ
 ------------------

 -----------
 H2O_H2O_829
 -----------
 Symbolic Z-matrix:
 Charge =  0 Multiplicity = 1

                         Standard orientation:
 ---------------------------------------------------------------------
 Center     Atomic      Atomic             Coordinates (Angstroms)
 Number     Number       Type             X           Y           Z
 ---------------------------------------------------------------------
      1          8           0        0.014784   -1.240266    0.000000
      2          1           0       -0.785372   -1.810579    0.000000
      3          1           0        0.813770   -1.812217    0.000000
      4          8           0        0.014784    1.244128    0.000000
      5          1           0        0.640068    2.002103    0.000000
      6          1           0       -0.905009    1.589798    0.000000
 ---------------------------------------------------------------------

 SCF Done:  E(RHF) =  -152.092048810     A.U. after   11 cycles
 E2 =    -0.5293047589D+00 EUMP2 =    -0.15262135356851D+03
 CCSD(T)
 CCSD(T)= -0.15264864309D+03

 The electronic state is 1-A'.
 Alpha  occ. eigenvalues --  -20.53141 -20.53028  -1.31072  -1.30124  -0.68352
 Alpha  occ. eigenvalues --   -0.67708  -0.57043  -0.50029  -0.48369  -0.46880
 Alpha virt. eigenvalues --    0.14476   0.17489   0.20554   0.22411   0.50761
 Alpha virt. eigenvalues --    0.58783   0.58892   0.62966   0.72453   0.76632
 Alpha virt. eigenvalues --    0.76899   0.79664   0.83969   0.85165   0.86453

 Mulliken charges:
               1
     1  O   -0.460827
     2  H    0.226584
     3  H    0.233519
     4  O   -0.455653
     5  H    0.223347
     6  H    0.233031
 Sum of Mulliken charges =  -0.00000

 Dipole moment (field-independent basis, Debye):
    X=             -0.4625    Y=             -0.0749    Z=              0.0000  Tot=              0.4685
 Quadrupole moment (field-independent basis, Debye-Ang):
   XX=             -8.1162   YY=             -2.9506   ZZ=            -14.7254
   XY=             -0.2221   XZ=              0.0000   YZ=              0.0000

 Normal termination of Gaussian 16 at Fri Aug 26 20:23:15 2022.
