 Gaussian 16, Revision A.03,
 Gaussian 16:  ES64L-G16RevA.03 25-Dec-2016

 ------------------
 #p CCSD(T)/cc-pVTZ
 ------------------

 ------------
 H2O_H2O_2094
 ------------
 Symbolic Z-matrix:
 Charge =  0 Multiplicity = 1

                         Standard orientation:
 ---------------------------------------------------------------------
 Center     Atomic      Atomic             Coordinates (Angstroms)
 Number     Number       Type             X           Y           Z
 ---------------------------------------------------------------------
      1          8           0        0.054177   -1.865206    0.000000
      2          1           0       -0.746788   -2.434381    0.000000
      3          1           0        0.852349   -2.438292    0.000000
      4          8           0        0.054177    1.942451    0.000000
      5          1           0       -0.227331    2.883865    0.000000
      6          1           0       -0.745059    1.370850    0.000000
 ---------------------------------------------------------------------

 SCF Done:  E(RHF) =  -152.107656177     A.U. after   10 cycles
 E2 =    -0.5263003531D+00 EUMP2 =    -0.15263395653001D+03
 CCSD(T)
 CCSD(T)= -0.15266113215D+03

 The electronic state is 1-A'.
 Alpha  occ. eigenvalues --  -20.55681 -20.54265  -1.32956  -1.31550  -0.70367
 Alpha  occ. eigenvalues --   -0.68920  -0.56383  -0.54984  -0.50070  -0.48673
 Alpha virt. eigenvalues --    0.13261   0.16133   0.19984   0.22571   0.54207
 Alpha virt. eigenvalues --    0.54299   0.57150   0.58541   0.65252   0.75109
 Alpha virt. eigenvalues --    0.78542   0.78998   0.80397   0.80462   0.84569

 Mulliken charges:
               1
     1  O   -0.501100
     2  H    0.247427
     3  H    0.256540
     4  O   -0.506950
     5  H    0.244053
     6  H    0.260030
 Sum of Mulliken charges =  -0.00000

 Dipole moment (field-independent basis, Debye):
    X=             -1.8227    Y=             -1.4254    Z=              0.0000  Tot=              2.3138
 Quadrupole moment (field-independent basis, Debye-Ang):
   XX=             -9.6511   YY=             -0.2634   ZZ=            -14.7157
   XY=             -3.2007   XZ=              0.0000   YZ=              0.0000

 Normal termination of Gaussian 16 at Sat Aug 27 08:33:09 2022.
