 Gaussian 16, Revision A.03,
 Gaussian 16:  ES64L-G16RevA.03 25-Dec-2016

 ------------------
 #p CCSD(T)/cc-pVTZ
 ------------------

 -----------
 H2O_H2O_562
 -----------
 Symbolic Z-matrix:
 Charge =  0 Multiplicity = 1

                         Standard orientation:
 ---------------------------------------------------------------------
 Center     Atomic      Atomic             Coordinates (Angstroms)
 Number     Number       Type             X           Y           Z
 ---------------------------------------------------------------------
      1          8           0        0.040438   -1.078075    0.000000
      2          1           0       -0.760943   -1.646665    0.000000
      3          1           0        0.838191   -1.651743    0.000000
      4          8           0        0.040438    1.111274    0.000000
      5          1           0        0.205046    2.079989    0.000000
      6          1           0       -0.929304    0.952822    0.000000
 ---------------------------------------------------------------------

 SCF Done:  E(RHF) =  -152.079566365     A.U. after   11 cycles
 E2 =    -0.5320127297D+00 EUMP2 =    -0.15261157909464D+03
 CCSD(T)
 CCSD(T)= -0.15263865304D+03

 The electronic state is 1-A'.
 Alpha  occ. eigenvalues --  -20.53540 -20.52371  -1.32172  -1.29384  -0.69375
 Alpha  occ. eigenvalues --   -0.67660  -0.57727  -0.49360  -0.48621  -0.46120
 Alpha virt. eigenvalues --    0.14188   0.17831   0.20211   0.23419   0.53124
 Alpha virt. eigenvalues --    0.57767   0.58262   0.62555   0.71076   0.76024
 Alpha virt. eigenvalues --    0.78829   0.81309   0.83494   0.85656   0.87838

 Mulliken charges:
               1
     1  O   -0.455212
     2  H    0.218059
     3  H    0.237017
     4  O   -0.431635
     5  H    0.191493
     6  H    0.240278
 Sum of Mulliken charges =  -0.00000

 Dipole moment (field-independent basis, Debye):
    X=             -1.2104    Y=             -0.6632    Z=              0.0000  Tot=              1.3802
 Quadrupole moment (field-independent basis, Debye-Ang):
   XX=             -8.9993   YY=             -4.7099   ZZ=            -14.7278
   XY=             -0.7812   XZ=              0.0000   YZ=              0.0000

 Normal termination of Gaussian 16 at Fri Aug 26 17:40:12 2022.
