 Gaussian 16, Revision A.03,
 Gaussian 16:  ES64L-G16RevA.03 25-Dec-2016

 ------------------
 #p CCSD(T)/cc-pVTZ
 ------------------

 ------------
 H2O_H2O_2923
 ------------
 Symbolic Z-matrix:
 Charge =  0 Multiplicity = 1

                         Standard orientation:
 ---------------------------------------------------------------------
 Center     Atomic      Atomic             Coordinates (Angstroms)
 Number     Number       Type             X           Y           Z
 ---------------------------------------------------------------------
      1          8           0        0.057103   -2.288076    0.000000
      2          1           0       -0.743663   -2.857532    0.000000
      3          1           0        0.855475   -2.860882    0.000000
      4          8           0        0.057103    2.394593    0.000000
      5          1           0       -0.458761    3.230889    0.000000
      6          1           0       -0.566694    1.635392    0.000000
 ---------------------------------------------------------------------

 SCF Done:  E(RHF) =  -152.108136895     A.U. after   10 cycles
 E2 =    -0.5259522386D+00 EUMP2 =    -0.15263408913373D+03
 CCSD(T)
 CCSD(T)= -0.15266127863D+03

 The electronic state is 1-A'.
 Alpha  occ. eigenvalues --  -20.55905 -20.54684  -1.33195  -1.31985  -0.70601
 Alpha  occ. eigenvalues --   -0.69368  -0.56667  -0.55445  -0.50312  -0.49106
 Alpha virt. eigenvalues --    0.13228   0.15415   0.19910   0.21600   0.53926
 Alpha virt. eigenvalues --    0.54847   0.56958   0.58037   0.66644   0.70604
 Alpha virt. eigenvalues --    0.78582   0.79546   0.79747   0.80342   0.82785

 Mulliken charges:
               1
     1  O   -0.510536
     2  H    0.252972
     3  H    0.258480
     4  O   -0.511483
     5  H    0.249517
     6  H    0.261051
 Sum of Mulliken charges =  -0.00000

 Dipole moment (field-independent basis, Debye):
    X=             -1.9480    Y=             -1.9065    Z=              0.0000  Tot=              2.7257
 Quadrupole moment (field-independent basis, Debye-Ang):
   XX=             -9.8527   YY=             -0.1298   ZZ=            -14.7149
   XY=             -4.7358   XZ=              0.0000   YZ=              0.0000

 Normal termination of Gaussian 16 at Fri Aug 26 17:29:39 2022.
