 Gaussian 16, Revision A.03,
 Gaussian 16:  ES64L-G16RevA.03 25-Dec-2016

 ------------------
 #p CCSD(T)/cc-pVTZ
 ------------------

 ------------
 H2O_H2O_1235
 ------------
 Symbolic Z-matrix:
 Charge =  0 Multiplicity = 1

                         Standard orientation:
 ---------------------------------------------------------------------
 Center     Atomic      Atomic             Coordinates (Angstroms)
 Number     Number       Type             X           Y           Z
 ---------------------------------------------------------------------
      1          8           0        0.034793   -1.442355    0.000000
      2          1           0       -0.765952   -2.011840    0.000000
      3          1           0        0.833186   -2.015131    0.000000
      4          8           0        0.034793    1.465816    0.000000
      5          1           0        0.323386    2.405082    0.000000
      6          1           0       -0.947301    1.434199    0.000000
 ---------------------------------------------------------------------

 SCF Done:  E(RHF) =  -152.102144666     A.U. after   11 cycles
 E2 =    -0.5276083942D+00 EUMP2 =    -0.15262975305988D+03
 CCSD(T)
 CCSD(T)= -0.15265701010D+03

 The electronic state is 1-A'.
 Alpha  occ. eigenvalues --  -20.54296 -20.53672  -1.31656  -1.30920  -0.69076
 Alpha  occ. eigenvalues --   -0.68359  -0.55845  -0.53106  -0.48817  -0.47931
 Alpha virt. eigenvalues --    0.14116   0.16842   0.20380   0.22374   0.52870
 Alpha virt. eigenvalues --    0.58136   0.58286   0.59154   0.67432   0.76410
 Alpha virt. eigenvalues --    0.77171   0.77687   0.80436   0.82836   0.85758

 Mulliken charges:
               1
     1  O   -0.476651
     2  H    0.233020
     3  H    0.244581
     4  O   -0.471224
     5  H    0.227583
     6  H    0.242691
 Sum of Mulliken charges =  -0.00000

 Dipole moment (field-independent basis, Debye):
    X=             -1.1281    Y=             -0.4473    Z=              0.0000  Tot=              1.2135
 Quadrupole moment (field-independent basis, Debye-Ang):
   XX=             -8.6444   YY=             -1.2710   ZZ=            -14.7146
   XY=             -0.9542   XZ=              0.0000   YZ=              0.0000

 Normal termination of Gaussian 16 at Sat Aug 27 03:14:07 2022.
