 Gaussian 16, Revision A.03,
 Gaussian 16:  ES64L-G16RevA.03 25-Dec-2016

 ------------------
 #p CCSD(T)/cc-pVTZ
 ------------------

 -----------
 H2O_H2O_818
 -----------
 Symbolic Z-matrix:
 Charge =  0 Multiplicity = 1

                         Standard orientation:
 ---------------------------------------------------------------------
 Center     Atomic      Atomic             Coordinates (Angstroms)
 Number     Number       Type             X           Y           Z
 ---------------------------------------------------------------------
      1          8           0        0.052896   -1.190980    0.000000
      2          1           0       -0.748786   -1.759146    0.000000
      3          1           0        0.850345   -1.765071    0.000000
      4          8           0        0.052896    1.261103    0.000000
      5          1           0       -0.165230    2.219187    0.000000
      6          1           0       -0.782665    0.744050    0.000000
 ---------------------------------------------------------------------

 SCF Done:  E(RHF) =  -152.097564028     A.U. after   11 cycles
 E2 =    -0.5298950925D+00 EUMP2 =    -0.15262745912046D+03
 CCSD(T)
 CCSD(T)= -0.15265454545D+03

 The electronic state is 1-A'.
 Alpha  occ. eigenvalues --  -20.55346 -20.52542  -1.33142  -1.29816  -0.70529
 Alpha  occ. eigenvalues --   -0.68046  -0.56049  -0.52561  -0.50228  -0.46826
 Alpha virt. eigenvalues --    0.13553   0.17793   0.19834   0.24425   0.52311
 Alpha virt. eigenvalues --    0.57062   0.59535   0.60215   0.71266   0.74525
 Alpha virt. eigenvalues --    0.77499   0.82938   0.83089   0.84592   0.85162

 Mulliken charges:
               1
     1  O   -0.465014
     2  H    0.229016
     3  H    0.247836
     4  O   -0.477660
     5  H    0.212800
     6  H    0.253023
 Sum of Mulliken charges =  -0.00000

 Dipole moment (field-independent basis, Debye):
    X=             -1.6443    Y=             -1.4188    Z=              0.0000  Tot=              2.1718
 Quadrupole moment (field-independent basis, Debye-Ang):
   XX=             -9.6132   YY=             -4.2012   ZZ=            -14.7228
   XY=             -1.8329   XZ=              0.0000   YZ=              0.0000

 Normal termination of Gaussian 16 at Fri Aug 26 20:17:30 2022.
