 Gaussian 16, Revision A.03,
 Gaussian 16:  ES64L-G16RevA.03 25-Dec-2016

 ------------------
 #p CCSD(T)/cc-pVTZ
 ------------------

 ------------
 H2O_H2O_3687
 ------------
 Symbolic Z-matrix:
 Charge =  0 Multiplicity = 1

                         Standard orientation:
 ---------------------------------------------------------------------
 Center     Atomic      Atomic             Coordinates (Angstroms)
 Number     Number       Type             X           Y           Z
 ---------------------------------------------------------------------
      1          8           0        0.040406   -2.739983    0.000000
      2          1           0       -0.759884   -3.310106    0.000000
      3          1           0        0.839256   -3.312122    0.000000
      4          8           0        0.040406    2.773337    0.000000
      5          1           0        0.203159    3.742366    0.000000
      6          1           0       -0.929031    2.613028    0.000000
 ---------------------------------------------------------------------

 SCF Done:  E(RHF) =  -152.106870732     A.U. after   10 cycles
 E2 =    -0.5259432366D+00 EUMP2 =    -0.15263281396898D+03
 CCSD(T)
 CCSD(T)= -0.15266004446D+03

 The electronic state is 1-A'.
 Alpha  occ. eigenvalues --  -20.55281 -20.55025  -1.32577  -1.32319  -0.69985
 Alpha  occ. eigenvalues --   -0.69721  -0.55999  -0.55742  -0.49685  -0.49428
 Alpha virt. eigenvalues --    0.14276   0.14671   0.20379   0.20688   0.54569
 Alpha virt. eigenvalues --    0.54866   0.57452   0.57712   0.67978   0.68764
 Alpha virt. eigenvalues --    0.79194   0.79446   0.80632   0.80907   0.82597

 Mulliken charges:
               1
     1  O   -0.505732
     2  H    0.251519
     3  H    0.254218
     4  O   -0.505455
     5  H    0.250658
     6  H    0.254792
 Sum of Mulliken charges =   0.00000

 Dipole moment (field-independent basis, Debye):
    X=             -1.3849    Y=             -0.5856    Z=              0.0000  Tot=              1.5036
 Quadrupole moment (field-independent basis, Debye-Ang):
   XX=             -8.8322   YY=              7.7742   ZZ=            -14.7110
   XY=             -2.9910   XZ=              0.0000   YZ=              0.0000

 Normal termination of Gaussian 16 at Sat Aug 27 02:29:13 2022.
