 Gaussian 16, Revision A.03,
 Gaussian 16:  ES64L-G16RevA.03 25-Dec-2016

 ------------------
 #p CCSD(T)/cc-pVTZ
 ------------------

 ------------
 H2O_H2O_2166
 ------------
 Symbolic Z-matrix:
 Charge =  0 Multiplicity = 1

                         Standard orientation:
 ---------------------------------------------------------------------
 Center     Atomic      Atomic             Coordinates (Angstroms)
 Number     Number       Type             X           Y           Z
 ---------------------------------------------------------------------
      1          8           0        0.049524   -1.916145    0.000000
      2          1           0       -0.751296   -2.485525    0.000000
      3          1           0        0.847842   -2.489027    0.000000
      4          8           0        0.049524    1.973042    0.000000
      5          1           0       -0.043163    2.951262    0.000000
      6          1           0       -0.845765    1.568117    0.000000
 ---------------------------------------------------------------------

 SCF Done:  E(RHF) =  -152.106844881     A.U. after   10 cycles
 E2 =    -0.5262729517D+00 EUMP2 =    -0.15263311783304D+03
 CCSD(T)
 CCSD(T)= -0.15266031763D+03

 The electronic state is 1-A'.
 Alpha  occ. eigenvalues --  -20.55351 -20.54385  -1.32630  -1.31665  -0.70044
 Alpha  occ. eigenvalues --   -0.69045  -0.56036  -0.55060  -0.49739  -0.48780
 Alpha virt. eigenvalues --    0.13492   0.15950   0.20152   0.21949   0.53708
 Alpha virt. eigenvalues --    0.54744   0.57419   0.58396   0.64730   0.75371
 Alpha virt. eigenvalues --    0.78908   0.79323   0.80290   0.81242   0.84269

 Mulliken charges:
               1
     1  O   -0.500103
     2  H    0.246705
     3  H    0.254932
     4  O   -0.502593
     5  H    0.244045
     6  H    0.257014
 Sum of Mulliken charges =  -0.00000

 Dipole moment (field-independent basis, Debye):
    X=             -1.6690    Y=             -1.0414    Z=              0.0000  Tot=              1.9673
 Quadrupole moment (field-independent basis, Debye-Ang):
   XX=             -9.3533   YY=              1.0451   ZZ=            -14.7134
   XY=             -2.6764   XZ=              0.0000   YZ=              0.0000

 Normal termination of Gaussian 16 at Sat Aug 27 08:57:49 2022.
