 Gaussian 16, Revision A.03,
 Gaussian 16:  ES64L-G16RevA.03 25-Dec-2016

 ------------------
 #p CCSD(T)/cc-pVTZ
 ------------------

 ------------
 H2O_H2O_2938
 ------------
 Symbolic Z-matrix:
 Charge =  0 Multiplicity = 1

                         Standard orientation:
 ---------------------------------------------------------------------
 Center     Atomic      Atomic             Coordinates (Angstroms)
 Number     Number       Type             X           Y           Z
 ---------------------------------------------------------------------
      1          8           0        0.042970   -2.338160    0.000000
      2          1           0       -0.757495   -2.908038    0.000000
      3          1           0        0.841645   -2.910545    0.000000
      4          8           0        0.042970    2.376937    0.000000
      5          1           0        0.142297    3.354505    0.000000
      6          1           0       -0.913974    2.153861    0.000000
 ---------------------------------------------------------------------

 SCF Done:  E(RHF) =  -152.106650447     A.U. after   10 cycles
 E2 =    -0.5260159478D+00 EUMP2 =    -0.15263266639451D+03
 CCSD(T)
 CCSD(T)= -0.15265989683D+03

 The electronic state is 1-A'.
 Alpha  occ. eigenvalues --  -20.55215 -20.54798  -1.32508  -1.32088  -0.69918
 Alpha  occ. eigenvalues --   -0.69485  -0.55917  -0.55498  -0.49614  -0.49197
 Alpha virt. eigenvalues --    0.14009   0.15132   0.20343   0.21003   0.54450
 Alpha virt. eigenvalues --    0.55074   0.57503   0.57889   0.66712   0.70841
 Alpha virt. eigenvalues --    0.79259   0.79677   0.80576   0.81288   0.82871

 Mulliken charges:
               1
     1  O   -0.504221
     2  H    0.249943
     3  H    0.254385
     4  O   -0.503788
     5  H    0.248509
     6  H    0.255172
 Sum of Mulliken charges =  -0.00000

 Dipole moment (field-independent basis, Debye):
    X=             -1.4656    Y=             -0.6888    Z=              0.0000  Tot=              1.6194
 Quadrupole moment (field-independent basis, Debye-Ang):
   XX=             -8.9694   YY=              4.7019   ZZ=            -14.7112
   XY=             -2.6741   XZ=              0.0000   YZ=              0.0000

 Normal termination of Gaussian 16 at Fri Aug 26 17:37:54 2022.
