 Gaussian 16, Revision A.03,
 Gaussian 16:  ES64L-G16RevA.03 25-Dec-2016

 ------------------
 #p CCSD(T)/cc-pVTZ
 ------------------

 ------------
 H2O_H2O_3467
 ------------
 Symbolic Z-matrix:
 Charge =  0 Multiplicity = 1

                         Standard orientation:
 ---------------------------------------------------------------------
 Center     Atomic      Atomic             Coordinates (Angstroms)
 Number     Number       Type             X           Y           Z
 ---------------------------------------------------------------------
      1          8           0        0.051276   -2.603929    0.000000
      2          1           0       -0.749249   -3.173723    0.000000
      3          1           0        0.849891   -3.176398    0.000000
      4          8           0        0.051276    2.667463    0.000000
      5          1           0       -0.105692    3.637446    0.000000
      6          1           0       -0.815373    2.204403    0.000000
 ---------------------------------------------------------------------

 SCF Done:  E(RHF) =  -152.107216767     A.U. after   10 cycles
 E2 =    -0.5259281206D+00 EUMP2 =    -0.15263314488735D+03
 CCSD(T)
 CCSD(T)= -0.15266036649D+03

 The electronic state is 1-A'.
 Alpha  occ. eigenvalues --  -20.55485 -20.54942  -1.32782  -1.32237  -0.70189
 Alpha  occ. eigenvalues --   -0.69632  -0.56220  -0.55673  -0.49892  -0.49350
 Alpha virt. eigenvalues --    0.13986   0.14856   0.20207   0.20876   0.54338
 Alpha virt. eigenvalues --    0.54927   0.57275   0.57793   0.67494   0.69136
 Alpha virt. eigenvalues --    0.78990   0.79520   0.80386   0.80848   0.82638

 Mulliken charges:
               1
     1  O   -0.507727
     2  H    0.251961
     3  H    0.255813
     4  O   -0.507282
     5  H    0.250284
     6  H    0.256951
 Sum of Mulliken charges =   0.00000

 Dipole moment (field-independent basis, Debye):
    X=             -1.7560    Y=             -1.1201    Z=              0.0000  Tot=              2.0828
 Quadrupole moment (field-independent basis, Debye-Ang):
   XX=             -9.4576   YY=              4.7474   ZZ=            -14.7119
   XY=             -4.0724   XZ=              0.0000   YZ=              0.0000

 Normal termination of Gaussian 16 at Fri Aug 26 22:35:18 2022.
