 Gaussian 16, Revision A.03,
 Gaussian 16:  ES64L-G16RevA.03 25-Dec-2016

 ------------------
 #p CCSD(T)/cc-pVTZ
 ------------------

 ------------
 H2O_H2O_4857
 ------------
 Symbolic Z-matrix:
 Charge =  0 Multiplicity = 1

                         Standard orientation:
 ---------------------------------------------------------------------
 Center     Atomic      Atomic             Coordinates (Angstroms)
 Number     Number       Type             X           Y           Z
 ---------------------------------------------------------------------
      1          8           0        0.025264   -3.376625    0.000000
      2          1           0       -0.774674   -3.947243    0.000000
      3          1           0        0.824468   -3.948271    0.000000
      4          8           0        0.025264    3.388373    0.000000
      5          1           0        0.490329    4.253948    0.000000
      6          1           0       -0.944353    3.547587    0.000000
 ---------------------------------------------------------------------

 SCF Done:  E(RHF) =  -152.107012070     A.U. after   10 cycles
 E2 =    -0.5259092667D+00 EUMP2 =    -0.15263292133643D+03
 CCSD(T)
 CCSD(T)= -0.15266015018D+03

 The electronic state is 1-A'.
 Alpha  occ. eigenvalues --  -20.55302 -20.55243  -1.32599  -1.32539  -0.70005
 Alpha  occ. eigenvalues --   -0.69945  -0.56028  -0.55969  -0.49707  -0.49648
 Alpha virt. eigenvalues --    0.14342   0.14402   0.20397   0.20458   0.54562
 Alpha virt. eigenvalues --    0.54626   0.57445   0.57504   0.68192   0.68253
 Alpha virt. eigenvalues --    0.79172   0.79231   0.80612   0.80676   0.82537

 Mulliken charges:
               1
     1  O   -0.506530
     2  H    0.252794
     3  H    0.253736
     4  O   -0.506482
     5  H    0.252544
     6  H    0.253937
 Sum of Mulliken charges =  -0.00000

 Dipole moment (field-independent basis, Debye):
    X=             -0.8689    Y=             -0.2046    Z=              0.0000  Tot=              0.8926
 Quadrupole moment (field-independent basis, Debye-Ang):
   XX=             -8.2030   YY=             14.0188   ZZ=            -14.7110
   XY=             -2.2366   XZ=              0.0000   YZ=              0.0000

 Normal termination of Gaussian 16 at Sat Aug 27 09:43:45 2022.
