 Gaussian 16, Revision A.03,
 Gaussian 16:  ES64L-G16RevA.03 25-Dec-2016

 ------------------
 #p CCSD(T)/cc-pVTZ
 ------------------

 ------------
 H2O_H2O_2560
 ------------
 Symbolic Z-matrix:
 Charge =  0 Multiplicity = 1

                         Standard orientation:
 ---------------------------------------------------------------------
 Center     Atomic      Atomic             Coordinates (Angstroms)
 Number     Number       Type             X           Y           Z
 ---------------------------------------------------------------------
      1          8           0        0.034785   -2.147014    0.000000
      2          1           0       -0.765577   -2.717037    0.000000
      3          1           0        0.833563   -2.719254    0.000000
      4          8           0        0.034785    2.170522    0.000000
      5          1           0        0.322747    3.109981    0.000000
      6          1           0       -0.947287    2.138245    0.000000
 ---------------------------------------------------------------------

 SCF Done:  E(RHF) =  -152.106077829     A.U. after   10 cycles
 E2 =    -0.5261270995D+00 EUMP2 =    -0.15263220492817D+03
 CCSD(T)
 CCSD(T)= -0.15265944147D+03

 The electronic state is 1-A'.
 Alpha  occ. eigenvalues --  -20.54970 -20.54667  -1.32259  -1.31953  -0.69671
 Alpha  occ. eigenvalues --   -0.69354  -0.55649  -0.55316  -0.49361  -0.49058
 Alpha virt. eigenvalues --    0.14022   0.15401   0.20445   0.21112   0.54300
 Alpha virt. eigenvalues --    0.55345   0.57693   0.58005   0.65081   0.72980
 Alpha virt. eigenvalues --    0.79440   0.79884   0.80754   0.81290   0.82566

 Mulliken charges:
               1
     1  O   -0.500426
     2  H    0.248023
     3  H    0.252563
     4  O   -0.500033
     5  H    0.246863
     6  H    0.253010
 Sum of Mulliken charges =  -0.00000

 Dipole moment (field-independent basis, Debye):
    X=             -1.1812    Y=             -0.4213    Z=              0.0000  Tot=              1.2540
 Quadrupole moment (field-independent basis, Debye-Ang):
   XX=             -8.5777   YY=              4.1249   ZZ=            -14.7106
   XY=             -1.7653   XZ=              0.0000   YZ=              0.0000

 Normal termination of Gaussian 16 at Fri Aug 26 13:44:23 2022.
