 Gaussian 16, Revision A.03,
 Gaussian 16:  ES64L-G16RevA.03 25-Dec-2016

 ------------------
 #p CCSD(T)/cc-pVTZ
 ------------------

 ------------
 H2O_H2O_1472
 ------------
 Symbolic Z-matrix:
 Charge =  0 Multiplicity = 1

                         Standard orientation:
 ---------------------------------------------------------------------
 Center     Atomic      Atomic             Coordinates (Angstroms)
 Number     Number       Type             X           Y           Z
 ---------------------------------------------------------------------
      1          8           0        0.056778   -1.521012    0.000000
      2          1           0       -0.744561   -2.089660    0.000000
      3          1           0        0.854573   -2.094623    0.000000
      4          8           0        0.056778    1.619977    0.000000
      5          1           0       -0.402408    2.488684    0.000000
      6          1           0       -0.616058    0.903878    0.000000
 ---------------------------------------------------------------------

 SCF Done:  E(RHF) =  -152.108916285     A.U. after   10 cycles
 E2 =    -0.5271331089D+00 EUMP2 =    -0.15263604939387D+03
 CCSD(T)
 CCSD(T)= -0.15266315224D+03

 The electronic state is 1-A'.
 Alpha  occ. eigenvalues --  -20.56324 -20.53446  -1.33620  -1.30754  -0.71022
 Alpha  occ. eigenvalues --   -0.68216  -0.57009  -0.54241  -0.50738  -0.47886
 Alpha virt. eigenvalues --    0.13077   0.17088   0.19661   0.24885   0.52702
 Alpha virt. eigenvalues --    0.55549   0.56746   0.58444   0.68021   0.75287
 Alpha virt. eigenvalues --    0.76072   0.76877   0.80712   0.81677   0.84235

 Mulliken charges:
               1
     1  O   -0.492668
     2  H    0.244659
     3  H    0.258990
     4  O   -0.511956
     5  H    0.237697
     6  H    0.263278
 Sum of Mulliken charges =  -0.00000

 Dipole moment (field-independent basis, Debye):
    X=             -1.8677    Y=             -1.9273    Z=              0.0000  Tot=              2.6838
 Quadrupole moment (field-independent basis, Debye-Ang):
   XX=             -9.8295   YY=             -3.1556   ZZ=            -14.7245
   XY=             -3.1166   XZ=              0.0000   YZ=              0.0000

 Normal termination of Gaussian 16 at Sat Aug 27 04:57:18 2022.
