 Gaussian 16, Revision A.03,
 Gaussian 16:  ES64L-G16RevA.03 25-Dec-2016

 ------------------
 #p CCSD(T)/cc-pVTZ
 ------------------

 -----------
 H2O_H2O_188
 -----------
 Symbolic Z-matrix:
 Charge =  0 Multiplicity = 1

                         Standard orientation:
 ---------------------------------------------------------------------
 Center     Atomic      Atomic             Coordinates (Angstroms)
 Number     Number       Type             X           Y           Z
 ---------------------------------------------------------------------
      1          8           0        0.043020   -0.875725    0.000000
      2          1           0       -0.758903   -1.443550    0.000000
      3          1           0        0.840225   -1.450154    0.000000
      4          8           0        0.043020    0.914281    0.000000
      5          1           0        0.144851    1.891592    0.000000
      6          1           0       -0.914493    0.693658    0.000000
 ---------------------------------------------------------------------

 SCF Done:  E(RHF) =  -152.004606203     A.U. after   11 cycles
 E2 =    -0.5416944174D+00 EUMP2 =    -0.15254630062055D+03
 CCSD(T)
 CCSD(T)= -0.15257235984D+03

 The electronic state is 1-A'.
 Alpha  occ. eigenvalues --  -20.52804 -20.51384  -1.35216  -1.27496  -0.72014
 Alpha  occ. eigenvalues --   -0.68687  -0.58870  -0.51591  -0.44155  -0.41773
 Alpha virt. eigenvalues --    0.14098   0.18728   0.19848   0.23838   0.53248
 Alpha virt. eigenvalues --    0.56696   0.58643   0.64870   0.72673   0.77230
 Alpha virt. eigenvalues --    0.80786   0.82147   0.82724   0.84496   0.88722

 Mulliken charges:
               1
     1  O   -0.389199
     2  H    0.182711
     3  H    0.209190
     4  O   -0.375216
     5  H    0.139716
     6  H    0.232798
 Sum of Mulliken charges =   0.00000

 Dipole moment (field-independent basis, Debye):
    X=             -1.1839    Y=             -0.8439    Z=              0.0000  Tot=              1.4538
 Quadrupole moment (field-independent basis, Debye-Ang):
   XX=             -9.2068   YY=             -7.3713   ZZ=            -14.6853
   XY=             -0.6724   XZ=              0.0000   YZ=              0.0000

 56052\MP4DQ=-152.552017\MP4SDQ=-152.5558148\CCSD=-152.554866\CCSD(T)=-
 Normal termination of Gaussian 16 at Fri Aug 26 13:47:58 2022.
