 Gaussian 16, Revision A.03,
 Gaussian 16:  ES64L-G16RevA.03 25-Dec-2016

 ------------------
 #p CCSD(T)/cc-pVTZ
 ------------------

 ------------
 H2O_H2O_2512
 ------------
 Symbolic Z-matrix:
 Charge =  0 Multiplicity = 1

                         Standard orientation:
 ---------------------------------------------------------------------
 Center     Atomic      Atomic             Coordinates (Angstroms)
 Number     Number       Type             X           Y           Z
 ---------------------------------------------------------------------
      1          8           0        0.040412   -2.115091    0.000000
      2          1           0       -0.760089   -2.684918    0.000000
      3          1           0        0.839051   -2.687526    0.000000
      4          8           0        0.040412    2.148415    0.000000
      5          1           0        0.203524    3.117383    0.000000
      6          1           0       -0.929084    1.988465    0.000000
 ---------------------------------------------------------------------

 SCF Done:  E(RHF) =  -152.106290396     A.U. after   10 cycles
 E2 =    -0.5261314451D+00 EUMP2 =    -0.15263242184123D+03
 CCSD(T)
 CCSD(T)= -0.15265965125D+03

 The electronic state is 1-A'.
 Alpha  occ. eigenvalues --  -20.55076 -20.54630  -1.32364  -1.31914  -0.69776
 Alpha  occ. eigenvalues --   -0.69310  -0.55757  -0.55293  -0.49468  -0.49022
 Alpha virt. eigenvalues --    0.13877   0.15489   0.20363   0.21236   0.54105
 Alpha virt. eigenvalues --    0.55228   0.57621   0.58039   0.65118   0.73374
 Alpha virt. eigenvalues --    0.79336   0.79916   0.80506   0.81454   0.82855

 Mulliken charges:
               1
     1  O   -0.501232
     2  H    0.248046
     3  H    0.253488
     4  O   -0.500999
     5  H    0.246491
     6  H    0.254206
 Sum of Mulliken charges =  -0.00000

 Dipole moment (field-independent basis, Debye):
    X=             -1.3712    Y=             -0.5989    Z=              0.0000  Tot=              1.4963
 Quadrupole moment (field-independent basis, Debye-Ang):
   XX=             -8.8410   YY=              3.4540   ZZ=            -14.7111
   XY=             -2.1387   XZ=              0.0000   YZ=              0.0000

 Normal termination of Gaussian 16 at Fri Aug 26 13:10:12 2022.
