 Gaussian 16, Revision A.03,
 Gaussian 16:  ES64L-G16RevA.03 25-Dec-2016

 ------------------
 #p CCSD(T)/cc-pVTZ
 ------------------

 ----------
 H2O_H2O_55
 ----------
 Symbolic Z-matrix:
 Charge =  0 Multiplicity = 1

                         Standard orientation:
 ---------------------------------------------------------------------
 Center     Atomic      Atomic             Coordinates (Angstroms)
 Number     Number       Type             X           Y           Z
 ---------------------------------------------------------------------
      1          8           0        0.018364   -0.826935    0.000000
      2          1           0       -0.782293   -1.396544    0.000000
      3          1           0        0.816846   -1.399589    0.000000
      4          8           0        0.018364    0.832928    0.000000
      5          1           0        0.593436    1.629669    0.000000
      6          1           0       -0.921816    1.118527    0.000000
 ---------------------------------------------------------------------

 SCF Done:  E(RHF) =  -151.939752321     A.U. after   12 cycles
 E2 =    -0.5493099484D+00 EUMP2 =    -0.15248906226920D+03
 CCSD(T)
 CCSD(T)= -0.15251379567D+03

 The electronic state is 1-A'.
 Alpha  occ. eigenvalues --  -20.51532 -20.51359  -1.36312  -1.26975  -0.71214
 Alpha  occ. eigenvalues --   -0.68331  -0.64255  -0.52525  -0.43262  -0.34191
 Alpha virt. eigenvalues --    0.14383   0.19463   0.19885   0.23207   0.51538
 Alpha virt. eigenvalues --    0.57744   0.59064   0.66040   0.69229   0.78977
 Alpha virt. eigenvalues --    0.80253   0.83676   0.83717   0.85639   0.88299

 Mulliken charges:
               1
     1  O   -0.356941
     2  H    0.169692
     3  H    0.187989
     4  O   -0.342457
     5  H    0.132148
     6  H    0.209570
 Sum of Mulliken charges =  -0.00000

 Dipole moment (field-independent basis, Debye):
    X=             -0.5216    Y=             -0.1637    Z=              0.0000  Tot=              0.5467
 Quadrupole moment (field-independent basis, Debye-Ang):
   XX=             -8.6286   YY=             -8.8025   ZZ=            -14.7546
   XY=             -0.2623   XZ=              0.0000   YZ=              0.0000

 Normal termination of Gaussian 16 at Fri Aug 26 12:19:11 2022.
