 Gaussian 16, Revision A.03,
 Gaussian 16:  ES64L-G16RevA.03 25-Dec-2016

 ------------------
 #p CCSD(T)/cc-pVTZ
 ------------------

 ------------
 H2O_H2O_1628
 ------------
 Symbolic Z-matrix:
 Charge =  0 Multiplicity = 1

                         Standard orientation:
 ---------------------------------------------------------------------
 Center     Atomic      Atomic             Coordinates (Angstroms)
 Number     Number       Type             X           Y           Z
 ---------------------------------------------------------------------
      1          8           0        0.011143   -1.666648    0.000000
      2          1           0       -0.788756   -2.237320    0.000000
      3          1           0        0.810385   -2.238239    0.000000
      4          8           0        0.011143    1.668830    0.000000
      5          1           0        0.684340    2.384590    0.000000
      6          1           0       -0.884255    2.073514    0.000000
 ---------------------------------------------------------------------

 SCF Done:  E(RHF) =  -152.103426899     A.U. after   10 cycles
 E2 =    -0.5268535983D+00 EUMP2 =    -0.15263028049773D+03
 CCSD(T)
 CCSD(T)= -0.15265754631D+03

 The electronic state is 1-A'.
 Alpha  occ. eigenvalues --  -20.54190 -20.54144  -1.31501  -1.31396  -0.68922
 Alpha  occ. eigenvalues --   -0.68831  -0.55376  -0.53958  -0.48655  -0.48420
 Alpha virt. eigenvalues --    0.14270   0.16303   0.20579   0.21579   0.52798
 Alpha virt. eigenvalues --    0.58058   0.58136   0.58535   0.62224   0.76149
 Alpha virt. eigenvalues --    0.78642   0.78801   0.79912   0.81710   0.84930

 Mulliken charges:
               1
     1  O   -0.481099
     2  H    0.239192
     3  H    0.241999
     4  O   -0.480975
     5  H    0.238985
     6  H    0.241898
 Sum of Mulliken charges =  -0.00000

 Dipole moment (field-independent basis, Debye):
    X=             -0.3701    Y=             -0.0408    Z=              0.0000  Tot=              0.3724
 Quadrupole moment (field-independent basis, Debye-Ang):
   XX=             -7.9452   YY=              1.0025   ZZ=            -14.7089
   XY=             -0.3096   XZ=              0.0000   YZ=              0.0000

 Normal termination of Gaussian 16 at Sat Aug 27 05:52:06 2022.
