 Gaussian 16, Revision A.03,
 Gaussian 16:  ES64L-G16RevA.03 25-Dec-2016

 ------------------
 #p CCSD(T)/cc-pVTZ
 ------------------

 ------------
 H2O_H2O_1447
 ------------
 Symbolic Z-matrix:
 Charge =  0 Multiplicity = 1

                         Standard orientation:
 ---------------------------------------------------------------------
 Center     Atomic      Atomic             Coordinates (Angstroms)
 Number     Number       Type             X           Y           Z
 ---------------------------------------------------------------------
      1          8           0        0.056780   -1.507718    0.000000
      2          1           0       -0.744575   -2.076344    0.000000
      3          1           0        0.854559   -2.081350    0.000000
      4          8           0        0.056780    1.606680    0.000000
      5          1           0       -0.402384    2.475400    0.000000
      6          1           0       -0.616076    0.890599    0.000000
 ---------------------------------------------------------------------

 SCF Done:  E(RHF) =  -152.108877291     A.U. after   10 cycles
 E2 =    -0.5271942190D+00 EUMP2 =    -0.15263607150996D+03
 CCSD(T)
 CCSD(T)= -0.15266317164D+03

 The electronic state is 1-A'.
 Alpha  occ. eigenvalues --  -20.56336 -20.53406  -1.33638  -1.30715  -0.71039
 Alpha  occ. eigenvalues --   -0.68191  -0.57014  -0.54204  -0.50754  -0.47846
 Alpha virt. eigenvalues --    0.13078   0.17126   0.19655   0.24940   0.52644
 Alpha virt. eigenvalues --    0.55602   0.56749   0.58506   0.68174   0.75192
 Alpha virt. eigenvalues --    0.75945   0.77020   0.80877   0.81736   0.84224

 Mulliken charges:
               1
     1  O   -0.492219
     2  H    0.244480
     3  H    0.259061
     4  O   -0.511900
     5  H    0.237258
     6  H    0.263320
 Sum of Mulliken charges =  -0.00000

 Dipole moment (field-independent basis, Debye):
    X=             -1.8652    Y=             -1.9320    Z=              0.0000  Tot=              2.6854
 Quadrupole moment (field-independent basis, Debye-Ang):
   XX=             -9.8297   YY=             -3.2239   ZZ=            -14.7249
   XY=             -3.0920   XZ=              0.0000   YZ=              0.0000

 Normal termination of Gaussian 16 at Sat Aug 27 04:49:00 2022.
