 Gaussian 16, Revision A.03,
 Gaussian 16:  ES64L-G16RevA.03 25-Dec-2016

 ------------------
 #p CCSD(T)/cc-pVTZ
 ------------------

 ------------
 H2O_H2O_2257
 ------------
 Symbolic Z-matrix:
 Charge =  0 Multiplicity = 1

                         Standard orientation:
 ---------------------------------------------------------------------
 Center     Atomic      Atomic             Coordinates (Angstroms)
 Number     Number       Type             X           Y           Z
 ---------------------------------------------------------------------
      1          8           0        0.025267   -1.993862    0.000000
      2          1           0       -0.774925   -2.564125    0.000000
      3          1           0        0.824216   -2.565863    0.000000
      4          8           0        0.025267    2.005587    0.000000
      5          1           0        0.490716    2.870956    0.000000
      6          1           0       -0.944279    2.165233    0.000000
 ---------------------------------------------------------------------

 SCF Done:  E(RHF) =  -152.105438126     A.U. after   10 cycles
 E2 =    -0.5262769086D+00 EUMP2 =    -0.15263171503465D+03
 CCSD(T)
 CCSD(T)= -0.15265895611D+03

 The electronic state is 1-A'.
 Alpha  occ. eigenvalues --  -20.54720 -20.54543  -1.32003  -1.31823  -0.69420
 Alpha  occ. eigenvalues --   -0.69232  -0.55438  -0.55059  -0.49105  -0.48921
 Alpha virt. eigenvalues --    0.14078   0.15647   0.20536   0.21199   0.54044
 Alpha virt. eigenvalues --    0.55831   0.57852   0.58140   0.63066   0.74634
 Alpha virt. eigenvalues --    0.79456   0.80242   0.80510   0.81172   0.82391

 Mulliken charges:
               1
     1  O   -0.495703
     2  H    0.245933
     3  H    0.249939
     4  O   -0.495482
     5  H    0.245134
     6  H    0.250181
 Sum of Mulliken charges =  -0.00000

 Dipole moment (field-independent basis, Debye):
    X=             -0.8538    Y=             -0.2125    Z=              0.0000  Tot=              0.8798
 Quadrupole moment (field-independent basis, Debye-Ang):
   XX=             -8.2307   YY=              3.4270   ZZ=            -14.7100
   XY=             -1.0545   XZ=              0.0000   YZ=              0.0000

 Normal termination of Gaussian 16 at Sat Aug 27 09:29:46 2022.
