 Gaussian 16, Revision A.03,
 Gaussian 16:  ES64L-G16RevA.03 25-Dec-2016

 ------------------
 #p CCSD(T)/cc-pVTZ
 ------------------

 ------------
 H2O_H2O_3964
 ------------
 Symbolic Z-matrix:
 Charge =  0 Multiplicity = 1

                         Standard orientation:
 ---------------------------------------------------------------------
 Center     Atomic      Atomic             Coordinates (Angstroms)
 Number     Number       Type             X           Y           Z
 ---------------------------------------------------------------------
      1          8           0        0.045341   -2.880148    0.000000
      2          1           0       -0.754997   -3.450205    0.000000
      3          1           0        0.844144   -3.452354    0.000000
      4          8           0        0.045341    2.924716    0.000000
      5          1           0        0.080300    3.906695    0.000000
      6          1           0       -0.894901    2.639320    0.000000
 ---------------------------------------------------------------------

 SCF Done:  E(RHF) =  -152.107072149     A.U. after   10 cycles
 E2 =    -0.5259185143D+00 EUMP2 =    -0.15263299066303D+03
 CCSD(T)
 CCSD(T)= -0.15266021730D+03

 The electronic state is 1-A'.
 Alpha  occ. eigenvalues --  -20.55387 -20.55079  -1.32684  -1.32374  -0.70091
 Alpha  occ. eigenvalues --   -0.69775  -0.56116  -0.55806  -0.49793  -0.49485
 Alpha virt. eigenvalues --    0.14224   0.14600   0.20310   0.20655   0.54469
 Alpha virt. eigenvalues --    0.54806   0.57362   0.57673   0.68000   0.68518
 Alpha virt. eigenvalues --    0.79086   0.79390   0.80522   0.80849   0.82471

 Mulliken charges:
               1
     1  O   -0.506917
     2  H    0.252157
     3  H    0.254763
     4  O   -0.506652
     5  H    0.251211
     6  H    0.255439
 Sum of Mulliken charges =  -0.00000

 Dipole moment (field-independent basis, Debye):
    X=             -1.5559    Y=             -0.7809    Z=              0.0000  Tot=              1.7409
 Quadrupole moment (field-independent basis, Debye-Ang):
   XX=             -9.0973   YY=              7.8869   ZZ=            -14.7114
   XY=             -3.7411   XZ=              0.0000   YZ=              0.0000

 Normal termination of Gaussian 16 at Sat Aug 27 04:36:33 2022.
