 Gaussian 16, Revision A.03,
 Gaussian 16:  ES64L-G16RevA.03 25-Dec-2016

 ------------------
 #p CCSD(T)/cc-pVTZ
 ------------------

 ------------
 H2O_H2O_2987
 ------------
 Symbolic Z-matrix:
 Charge =  0 Multiplicity = 1

                         Standard orientation:
 ---------------------------------------------------------------------
 Center     Atomic      Atomic             Coordinates (Angstroms)
 Number     Number       Type             X           Y           Z
 ---------------------------------------------------------------------
      1          8           0        0.040409   -2.367705    0.000000
      2          1           0       -0.759993   -2.937671    0.000000
      3          1           0        0.839147   -2.940003    0.000000
      4          8           0        0.040409    2.401044    0.000000
      5          1           0        0.203354    3.370041    0.000000
      6          1           0       -0.929059    2.240926    0.000000
 ---------------------------------------------------------------------

 SCF Done:  E(RHF) =  -152.106569620     A.U. after   10 cycles
 E2 =    -0.5260141512D+00 EUMP2 =    -0.15263258377171D+03
 CCSD(T)
 CCSD(T)= -0.15265981693D+03

 The electronic state is 1-A'.
 Alpha  occ. eigenvalues --  -20.55170 -20.54823  -1.32464  -1.32113  -0.69873
 Alpha  occ. eigenvalues --   -0.69512  -0.55870  -0.55519  -0.49569  -0.49221
 Alpha virt. eigenvalues --    0.14092   0.15073   0.20383   0.20943   0.54525
 Alpha virt. eigenvalues --    0.55083   0.57537   0.57872   0.66853   0.70593
 Alpha virt. eigenvalues --    0.79304   0.79654   0.80657   0.81235   0.82788

 Mulliken charges:
               1
     1  O   -0.503842
     2  H    0.249930
     3  H    0.253981
     4  O   -0.503405
     5  H    0.248695
     6  H    0.254641
 Sum of Mulliken charges =  -0.00000

 Dipole moment (field-independent basis, Debye):
    X=             -1.3788    Y=             -0.5912    Z=              0.0000  Tot=              1.5002
 Quadrupole moment (field-independent basis, Debye-Ang):
   XX=             -8.8359   YY=              5.2074   ZZ=            -14.7109
   XY=             -2.4822   XZ=              0.0000   YZ=              0.0000

 Normal termination of Gaussian 16 at Fri Aug 26 18:09:56 2022.
