 Gaussian 16, Revision A.03,
 Gaussian 16:  ES64L-G16RevA.03 25-Dec-2016

 ------------------
 #p CCSD(T)/cc-pVTZ
 ------------------

 ----------
 H2O_H2O_74
 ----------
 Symbolic Z-matrix:
 Charge =  0 Multiplicity = 1

                         Standard orientation:
 ---------------------------------------------------------------------
 Center     Atomic      Atomic             Coordinates (Angstroms)
 Number     Number       Type             X           Y           Z
 ---------------------------------------------------------------------
      1          8           0        0.057452   -0.768517    0.000000
      2          1           0       -0.745507   -1.334875    0.000000
      3          1           0        0.853607   -1.344402    0.000000
      4          8           0        0.057452    0.882061    0.000000
      5          1           0       -0.508906    1.685021    0.000000
      6          1           0       -0.518433    0.085906    0.000000
 ---------------------------------------------------------------------

 SCF Done:  E(RHF) =  -151.853870268     A.U. after   12 cycles
 E2 =    -0.5533648042D+00 EUMP2 =    -0.15240723507172D+03
 CCSD(T)
 CCSD(T)= -0.15243072312D+03

 The electronic state is 1-A'.
 Alpha  occ. eigenvalues --  -20.58629 -20.44513  -1.47216  -1.24251  -0.83730
 Alpha  occ. eigenvalues --   -0.75398  -0.58665  -0.48824  -0.40883  -0.39622
 Alpha virt. eigenvalues --    0.11985   0.16856   0.21494   0.27626   0.47665
 Alpha virt. eigenvalues --    0.51922   0.63993   0.70662   0.72692   0.75121
 Alpha virt. eigenvalues --    0.77202   0.77688   0.85143   0.85341   0.89667

 Mulliken charges:
               1
     1  O   -0.210492
     2  H    0.164663
     3  H    0.224665
     4  O   -0.581320
     5  H    0.126751
     6  H    0.275734
 Sum of Mulliken charges =  -0.00000

 Dipole moment (field-independent basis, Debye):
    X=             -1.4114    Y=             -3.3462    Z=              0.0000  Tot=              3.6317
 Quadrupole moment (field-independent basis, Debye-Ang):
   XX=             -9.8133   YY=             -9.6692   ZZ=            -14.4619
   XY=             -1.9091   XZ=              0.0000   YZ=              0.0000

 Normal termination of Gaussian 16 at Fri Aug 26 12:30:36 2022.
