 Gaussian 16, Revision A.03,
 Gaussian 16:  ES64L-G16RevA.03 25-Dec-2016

 ------------------
 #p CCSD(T)/cc-pVTZ
 ------------------

 -----------
 H2O_H2O_170
 -----------
 Symbolic Z-matrix:
 Charge =  0 Multiplicity = 1

                         Standard orientation:
 ---------------------------------------------------------------------
 Center     Atomic      Atomic             Coordinates (Angstroms)
 Number     Number       Type             X           Y           Z
 ---------------------------------------------------------------------
      1          8           0        0.055395   -0.837710    0.000000
      2          1           0       -0.747248   -1.404518    0.000000
      3          1           0        0.851871   -1.413150    0.000000
      4          8           0        0.055395    0.921776    0.000000
      5          1           0       -0.284360    1.843770    0.000000
      6          1           0       -0.706580    0.301373    0.000000
 ---------------------------------------------------------------------

 SCF Done:  E(RHF) =  -151.970556779     A.U. after   11 cycles
 E2 =    -0.5456371205D+00 EUMP2 =    -0.15251619389937D+03
 CCSD(T)
 CCSD(T)= -0.15254155343D+03

 The electronic state is 1-A'.
 Alpha  occ. eigenvalues --  -20.55245 -20.49275  -1.39053  -1.26490  -0.76548
 Alpha  occ. eigenvalues --   -0.71424  -0.53982  -0.52564  -0.44280  -0.43457
 Alpha virt. eigenvalues --    0.13229   0.18733   0.19865   0.25590   0.50276
 Alpha virt. eigenvalues --    0.54720   0.61816   0.67421   0.73056   0.76342
 Alpha virt. eigenvalues --    0.79007   0.80260   0.84144   0.84982   0.88526

 Mulliken charges:
               1
     1  O   -0.328405
     2  H    0.167980
     3  H    0.214067
     4  O   -0.449980
     5  H    0.140007
     6  H    0.256331
 Sum of Mulliken charges =  -0.00000

 Dipole moment (field-independent basis, Debye):
    X=             -1.4849    Y=             -2.0116    Z=              0.0000  Tot=              2.5003
 Quadrupole moment (field-independent basis, Debye-Ang):
   XX=             -9.7867   YY=             -8.1146   ZZ=            -14.5914
   XY=             -1.4427   XZ=              0.0000   YZ=              0.0000

 Normal termination of Gaussian 16 at Fri Aug 26 13:35:31 2022.
