 Gaussian 16, Revision A.03,
 Gaussian 16:  ES64L-G16RevA.03 25-Dec-2016

 ------------------
 #p CCSD(T)/cc-pVTZ
 ------------------

 ------------
 H2O_H2O_3910
 ------------
 Symbolic Z-matrix:
 Charge =  0 Multiplicity = 1

                         Standard orientation:
 ---------------------------------------------------------------------
 Center     Atomic      Atomic             Coordinates (Angstroms)
 Number     Number       Type             X           Y           Z
 ---------------------------------------------------------------------
      1          8           0        0.034781   -2.864980    0.000000
      2          1           0       -0.765384   -3.435280    0.000000
      3          1           0        0.833757   -3.436944    0.000000
      4          8           0        0.034781    2.888513    0.000000
      5          1           0        0.322418    3.828071    0.000000
      6          1           0       -0.947280    2.855895    0.000000
 ---------------------------------------------------------------------

 SCF Done:  E(RHF) =  -152.106839428     A.U. after   10 cycles
 E2 =    -0.5259387146D+00 EUMP2 =    -0.15263277814290D+03
 CCSD(T)
 CCSD(T)= -0.15266000979D+03

 The electronic state is 1-A'.
 Alpha  occ. eigenvalues --  -20.55246 -20.55081  -1.32542  -1.32376  -0.69949
 Alpha  occ. eigenvalues --   -0.69779  -0.55963  -0.55797  -0.49649  -0.49484
 Alpha virt. eigenvalues --    0.14350   0.14579   0.20420   0.20611   0.54614
 Alpha virt. eigenvalues --    0.54802   0.57486   0.57655   0.68153   0.68560
 Alpha virt. eigenvalues --    0.79230   0.79392   0.80671   0.80852   0.82608

 Mulliken charges:
               1
     1  O   -0.505533
     2  H    0.251738
     3  H    0.253796
     4  O   -0.505354
     5  H    0.251147
     6  H    0.254207
 Sum of Mulliken charges =  -0.00000

 Dipole moment (field-independent basis, Debye):
    X=             -1.1931    Y=             -0.4122    Z=              0.0000  Tot=              1.2623
 Quadrupole moment (field-independent basis, Debye-Ang):
   XX=             -8.5659   YY=              9.3349   ZZ=            -14.7109
   XY=             -2.6088   XZ=              0.0000   YZ=              0.0000

 Normal termination of Gaussian 16 at Sat Aug 27 04:14:09 2022.
