 Gaussian 16, Revision A.03,
 Gaussian 16:  ES64L-G16RevA.03 25-Dec-2016

 ------------------
 #p CCSD(T)/cc-pVTZ
 ------------------

 ------------
 H2O_H2O_4883
 ------------
 Symbolic Z-matrix:
 Charge =  0 Multiplicity = 1

                         Standard orientation:
 ---------------------------------------------------------------------
 Center     Atomic      Atomic             Coordinates (Angstroms)
 Number     Number       Type             X           Y           Z
 ---------------------------------------------------------------------
      1          8           0        0.028562   -3.388012    0.000000
      2          1           0       -0.771422   -3.958565    0.000000
      3          1           0        0.827719   -3.959723    0.000000
      4          8           0        0.028562    3.403274    0.000000
      5          1           0        0.436094    4.297381    0.000000
      6          1           0       -0.949384    3.498811    0.000000
 ---------------------------------------------------------------------

 SCF Done:  E(RHF) =  -152.107039488     A.U. after   10 cycles
 E2 =    -0.5259067566D+00 EUMP2 =    -0.15263294624470D+03
 CCSD(T)
 CCSD(T)= -0.15266017451D+03

 The electronic state is 1-A'.
 Alpha  occ. eigenvalues --  -20.55321 -20.55245  -1.32618  -1.32541  -0.70024
 Alpha  occ. eigenvalues --   -0.69947  -0.56048  -0.55972  -0.49727  -0.49650
 Alpha virt. eigenvalues --    0.14326   0.14402   0.20381   0.20460   0.54542
 Alpha virt. eigenvalues --    0.54624   0.57428   0.57504   0.68170   0.68247
 Alpha virt. eigenvalues --    0.79153   0.79228   0.80592   0.80674   0.82517

 Mulliken charges:
               1
     1  O   -0.506693
     2  H    0.252820
     3  H    0.253873
     4  O   -0.506634
     5  H    0.252529
     6  H    0.254106
 Sum of Mulliken charges =  -0.00000

 Dipole moment (field-independent basis, Debye):
    X=             -0.9824    Y=             -0.2659    Z=              0.0000  Tot=              1.0177
 Quadrupole moment (field-independent basis, Debye-Ang):
   XX=             -8.3148   YY=             13.8075   ZZ=            -14.7111
   XY=             -2.5730   XZ=              0.0000   YZ=              0.0000

 Normal termination of Gaussian 16 at Sat Aug 27 09:52:35 2022.
