 Gaussian 16, Revision A.03,
 Gaussian 16:  ES64L-G16RevA.03 25-Dec-2016

 ------------------
 #p CCSD(T)/cc-pVTZ
 ------------------

 ------------
 H2O_H2O_3899
 ------------
 Symbolic Z-matrix:
 Charge =  0 Multiplicity = 1

                         Standard orientation:
 ---------------------------------------------------------------------
 Center     Atomic      Atomic             Coordinates (Angstroms)
 Number     Number       Type             X           Y           Z
 ---------------------------------------------------------------------
      1          8           0        0.057211   -2.802538    0.000000
      2          1           0       -0.743340   -3.372294    0.000000
      3          1           0        0.855799   -3.375044    0.000000
      4          8           0        0.057211    2.916568    0.000000
      5          1           0       -0.512545    3.717119    0.000000
      6          1           0       -0.515295    2.117980    0.000000
 ---------------------------------------------------------------------

 SCF Done:  E(RHF) =  -152.107822332     A.U. after   10 cycles
 E2 =    -0.5258594855D+00 EUMP2 =    -0.15263368181703D+03
 CCSD(T)
 CCSD(T)= -0.15266089164D+03

 The electronic state is 1-A'.
 Alpha  occ. eigenvalues --  -20.55825 -20.55011  -1.33125  -1.32312  -0.70530
 Alpha  occ. eigenvalues --   -0.69707  -0.56591  -0.55768  -0.50239  -0.49429
 Alpha virt. eigenvalues --    0.13762   0.14772   0.19974   0.20885   0.54020
 Alpha virt. eigenvalues --    0.54839   0.56980   0.57763   0.67327   0.68656
 Alpha virt. eigenvalues --    0.78644   0.79436   0.80056   0.80615   0.82451

 Mulliken charges:
               1
     1  O   -0.511306
     2  H    0.254119
     3  H    0.257228
     4  O   -0.510717
     5  H    0.251829
     6  H    0.258847
 Sum of Mulliken charges =  -0.00000

 Dipole moment (field-independent basis, Debye):
    X=             -1.9634    Y=             -2.0029    Z=              0.0000  Tot=              2.8047
 Quadrupole moment (field-independent basis, Debye-Ang):
   XX=             -9.8637   YY=              1.3242   ZZ=            -14.7132
   XY=             -5.8866   XZ=              0.0000   YZ=              0.0000

 Normal termination of Gaussian 16 at Sat Aug 27 04:09:31 2022.
