 Gaussian 16, Revision A.03,
 Gaussian 16:  ES64L-G16RevA.03 25-Dec-2016

 ------------------
 #p CCSD(T)/cc-pVTZ
 ------------------

 -----------
 H2O_H2O_682
 -----------
 Symbolic Z-matrix:
 Charge =  0 Multiplicity = 1

                         Standard orientation:
 ---------------------------------------------------------------------
 Center     Atomic      Atomic             Coordinates (Angstroms)
 Number     Number       Type             X           Y           Z
 ---------------------------------------------------------------------
      1          8           0        0.025272   -1.156241    0.000000
      2          1           0       -0.775367   -1.725876    0.000000
      3          1           0        0.823772   -1.728868    0.000000
      4          8           0        0.025272    1.167926    0.000000
      5          1           0        0.491399    2.032929    0.000000
      6          1           0       -0.944149    1.328331    0.000000
 ---------------------------------------------------------------------

 SCF Done:  E(RHF) =  -152.085971936     A.U. after   11 cycles
 E2 =    -0.5305085965D+00 EUMP2 =    -0.15261648053257D+03
 CCSD(T)
 CCSD(T)= -0.15264369158D+03

 The electronic state is 1-A'.
 Alpha  occ. eigenvalues --  -20.53070 -20.52703  -1.31326  -1.29760  -0.68525
 Alpha  occ. eigenvalues --   -0.67480  -0.57766  -0.48896  -0.48625  -0.46456
 Alpha virt. eigenvalues --    0.14442   0.17659   0.20477   0.22755   0.51551
 Alpha virt. eigenvalues --    0.58679   0.58736   0.63298   0.70940   0.76547
 Alpha virt. eigenvalues --    0.77297   0.80800   0.83988   0.86358   0.87111

 Mulliken charges:
               1
     1  O   -0.458952
     2  H    0.222190
     3  H    0.234972
     4  O   -0.443288
     5  H    0.209830
     6  H    0.235248
 Sum of Mulliken charges =  -0.00000

 Dipole moment (field-independent basis, Debye):
    X=             -0.7738    Y=             -0.2303    Z=              0.0000  Tot=              0.8073
 Quadrupole moment (field-independent basis, Debye-Ang):
   XX=             -8.4009   YY=             -3.8304   ZZ=            -14.7316
   XY=             -0.3801   XZ=              0.0000   YZ=              0.0000

 2721\MP4DQ=-152.6247827\MP4SDQ=-152.6280899\CCSD=-152.6274103\CCSD(T)=
 Normal termination of Gaussian 16 at Fri Aug 26 19:01:03 2022.
