 Gaussian 16, Revision A.03,
 Gaussian 16:  ES64L-G16RevA.03 25-Dec-2016

 ------------------
 #p CCSD(T)/cc-pVTZ
 ------------------

 -----------
 H2O_H2O_945
 -----------
 Symbolic Z-matrix:
 Charge =  0 Multiplicity = 1

                         Standard orientation:
 ---------------------------------------------------------------------
 Center     Atomic      Atomic             Coordinates (Angstroms)
 Number     Number       Type             X           Y           Z
 ---------------------------------------------------------------------
      1          8           0        0.055322   -1.249784    0.000000
      2          1           0       -0.746343   -1.817973    0.000000
      3          1           0        0.852788   -1.823851    0.000000
      4          8           0        0.055322    1.334040    0.000000
      5          1           0       -0.286020    2.255447    0.000000
      6          1           0       -0.705583    0.712326    0.000000
 ---------------------------------------------------------------------

 SCF Done:  E(RHF) =  -152.102518506     A.U. after   10 cycles
 E2 =    -0.5292020900D+00 EUMP2 =    -0.15263172059608D+03
 CCSD(T)
 CCSD(T)= -0.15265877918D+03

 The electronic state is 1-A'.
 Alpha  occ. eigenvalues --  -20.55963 -20.52589  -1.33578  -1.29916  -0.70967
 Alpha  occ. eigenvalues --   -0.68036  -0.56244  -0.53281  -0.50655  -0.46985
 Alpha virt. eigenvalues --    0.13318   0.17775   0.19687   0.24981   0.51935
 Alpha virt. eigenvalues --    0.56727   0.59123   0.59911   0.71099   0.74267
 Alpha virt. eigenvalues --    0.76118   0.82052   0.82750   0.83916   0.84269

 Mulliken charges:
               1
     1  O   -0.471988
     2  H    0.234685
     3  H    0.252599
     4  O   -0.495455
     5  H    0.221252
     6  H    0.258908
 Sum of Mulliken charges =  -0.00000

 Dipole moment (field-independent basis, Debye):
    X=             -1.7461    Y=             -1.7155    Z=              0.0000  Tot=              2.4478
 Quadrupole moment (field-independent basis, Debye-Ang):
   XX=             -9.7484   YY=             -4.1656   ZZ=            -14.7239
   XY=             -2.2813   XZ=              0.0000   YZ=              0.0000

 Normal termination of Gaussian 16 at Fri Aug 26 21:24:32 2022.
