 Gaussian 16, Revision A.03,
 Gaussian 16:  ES64L-G16RevA.03 25-Dec-2016

 ------------------
 #p CCSD(T)/cc-pVTZ
 ------------------

 ------------
 H2O_H2O_3332
 ------------
 Symbolic Z-matrix:
 Charge =  0 Multiplicity = 1

                         Standard orientation:
 ---------------------------------------------------------------------
 Center     Atomic      Atomic             Coordinates (Angstroms)
 Number     Number       Type             X           Y           Z
 ---------------------------------------------------------------------
      1          8           0        0.025266   -2.565580    0.000000
      2          1           0       -0.774788   -3.136036    0.000000
      3          1           0        0.824353   -3.137388    0.000000
      4          8           0        0.025266    2.577318    0.000000
      5          1           0        0.490506    3.442798    0.000000
      6          1           0       -0.944319    2.736728    0.000000
 ---------------------------------------------------------------------

 SCF Done:  E(RHF) =  -152.106421495     A.U. after   10 cycles
 E2 =    -0.5259940112D+00 EUMP2 =    -0.15263241550580D+03
 CCSD(T)
 CCSD(T)= -0.15265965487D+03

 The electronic state is 1-A'.
 Alpha  occ. eigenvalues --  -20.55053 -20.54951  -1.32348  -1.32243  -0.69757
 Alpha  occ. eigenvalues --   -0.69649  -0.55748  -0.55644  -0.49452  -0.49349
 Alpha virt. eigenvalues --    0.14389   0.14788   0.20524   0.20714   0.54763
 Alpha virt. eigenvalues --    0.54970   0.57639   0.57760   0.67753   0.69410
 Alpha virt. eigenvalues --    0.79424   0.79528   0.80857   0.81010   0.82750

 Mulliken charges:
               1
     1  O   -0.503076
     2  H    0.250516
     3  H    0.252564
     4  O   -0.502901
     5  H    0.250047
     6  H    0.252851
 Sum of Mulliken charges =  -0.00000

 Dipole moment (field-independent basis, Debye):
    X=             -0.8642    Y=             -0.2067    Z=              0.0000  Tot=              0.8885
 Quadrupole moment (field-independent basis, Debye-Ang):
   XX=             -8.2117   YY=              7.8445   ZZ=            -14.7103
   XY=             -1.5398   XZ=              0.0000   YZ=              0.0000

 Normal termination of Gaussian 16 at Fri Aug 26 21:26:27 2022.
