 Gaussian 16, Revision A.03,
 Gaussian 16:  ES64L-G16RevA.03 25-Dec-2016

 ------------------
 #p CCSD(T)/cc-pVTZ
 ------------------

 ------------
 H2O_H2O_2163
 ------------
 Symbolic Z-matrix:
 Charge =  0 Multiplicity = 1

                         Standard orientation:
 ---------------------------------------------------------------------
 Center     Atomic      Atomic             Coordinates (Angstroms)
 Number     Number       Type             X           Y           Z
 ---------------------------------------------------------------------
      1          8           0        0.042977   -1.926002    0.000000
      2          1           0       -0.757678   -2.495613    0.000000
      3          1           0        0.841461   -2.498652    0.000000
      4          8           0        0.042977    1.964750    0.000000
      5          1           0        0.142629    2.942286    0.000000
      6          1           0       -0.914042    1.741991    0.000000
 ---------------------------------------------------------------------

 SCF Done:  E(RHF) =  -152.106190566     A.U. after   10 cycles
 E2 =    -0.5262976452D+00 EUMP2 =    -0.15263248821095D+03
 CCSD(T)
 CCSD(T)= -0.15265970486D+03

 The electronic state is 1-A'.
 Alpha  occ. eigenvalues --  -20.55075 -20.54434  -1.32355  -1.31710  -0.69771
 Alpha  occ. eigenvalues --   -0.69100  -0.55754  -0.55052  -0.49461  -0.48819
 Alpha virt. eigenvalues --    0.13713   0.15866   0.20297   0.21617   0.53508
 Alpha virt. eigenvalues --    0.55173   0.57631   0.58287   0.64094   0.75446
 Alpha virt. eigenvalues --    0.79126   0.79677   0.80313   0.81208   0.83583

 Mulliken charges:
               1
     1  O   -0.497935
     2  H    0.245781
     3  H    0.253035
     4  O   -0.498778
     5  H    0.243736
     6  H    0.254162
 Sum of Mulliken charges =  -0.00000

 Dipole moment (field-independent basis, Debye):
    X=             -1.4485    Y=             -0.7073    Z=              0.0000  Tot=              1.6120
 Quadrupole moment (field-independent basis, Debye-Ang):
   XX=             -8.9797   YY=              1.9096   ZZ=            -14.7119
   XY=             -2.0788   XZ=              0.0000   YZ=              0.0000

 Normal termination of Gaussian 16 at Sat Aug 27 08:56:45 2022.
