 Gaussian 16, Revision A.03,
 Gaussian 16:  ES64L-G16RevA.03 25-Dec-2016

 ------------------
 #p CCSD(T)/cc-pVTZ
 ------------------

 ------------
 H2O_H2O_1452
 ------------
 Symbolic Z-matrix:
 Charge =  0 Multiplicity = 1

                         Standard orientation:
 ---------------------------------------------------------------------
 Center     Atomic      Atomic             Coordinates (Angstroms)
 Number     Number       Type             X           Y           Z
 ---------------------------------------------------------------------
      1          8           0        0.007455   -1.574234    0.000000
      2          1           0       -0.792349   -2.145040    0.000000
      3          1           0        0.806793   -2.145692    0.000000
      4          8           0        0.007455    1.575205    0.000000
      5          1           0        0.725911    2.245524    0.000000
      6          1           0       -0.859636    2.037439    0.000000
 ---------------------------------------------------------------------

 SCF Done:  E(RHF) =  -152.102372300     A.U. after   10 cycles
 E2 =    -0.5271234829D+00 EUMP2 =    -0.15262949578311D+03
 CCSD(T)
 CCSD(T)= -0.15265677959D+03

 The electronic state is 1-A'.
 Alpha  occ. eigenvalues --  -20.53999 -20.53977  -1.31359  -1.31203  -0.68775
 Alpha  occ. eigenvalues --   -0.68653  -0.55480  -0.53432  -0.48537  -0.48190
 Alpha virt. eigenvalues --    0.14346   0.16528   0.20574   0.21725   0.52168
 Alpha virt. eigenvalues --    0.58217   0.58583   0.59202   0.63923   0.76166
 Alpha virt. eigenvalues --    0.78178   0.78225   0.79504   0.82273   0.86033

 Mulliken charges:
               1
     1  O   -0.476065
     2  H    0.236938
     3  H    0.239161
     4  O   -0.475862
     5  H    0.236900
     6  H    0.238928
 Sum of Mulliken charges =  -0.00000

 Dipole moment (field-independent basis, Debye):
    X=             -0.2458    Y=             -0.0183    Z=              0.0000  Tot=              0.2464
 Quadrupole moment (field-independent basis, Debye-Ang):
   XX=             -7.9184   YY=              0.2147   ZZ=            -14.7094
   XY=             -0.1819   XZ=              0.0000   YZ=              0.0000

 46101\MP4DQ=-152.6384435\MP4SDQ=-152.6415791\CCSD=-152.640961\CCSD(T)=
 Normal termination of Gaussian 16 at Sat Aug 27 04:50:40 2022.
