 Gaussian 16, Revision A.03,
 Gaussian 16:  ES64L-G16RevA.03 25-Dec-2016

 ------------------
 #p CCSD(T)/cc-pVTZ
 ------------------

 -----------
 H2O_H2O_595
 -----------
 Symbolic Z-matrix:
 Charge =  0 Multiplicity = 1

                         Standard orientation:
 ---------------------------------------------------------------------
 Center     Atomic      Atomic             Coordinates (Angstroms)
 Number     Number       Type             X           Y           Z
 ---------------------------------------------------------------------
      1          8           0        0.055348   -1.063677    0.000000
      2          1           0       -0.746668   -1.631370    0.000000
      3          1           0        0.852459   -1.638238    0.000000
      4          8           0        0.055348    1.147865    0.000000
      5          1           0       -0.285424    2.069484    0.000000
      6          1           0       -0.705942    0.526622    0.000000
 ---------------------------------------------------------------------

 SCF Done:  E(RHF) =  -152.082526923     A.U. after   11 cycles
 E2 =    -0.5329764919D+00 EUMP2 =    -0.15261550341479D+03
 CCSD(T)
 CCSD(T)= -0.15264231540D+03

 The electronic state is 1-A'.
 Alpha  occ. eigenvalues --  -20.55732 -20.51432  -1.34403  -1.28836  -0.71799
 Alpha  occ. eigenvalues --   -0.68843  -0.54797  -0.51780  -0.51240  -0.45809
 Alpha virt. eigenvalues --    0.13333   0.18439   0.19532   0.25492   0.51038
 Alpha virt. eigenvalues --    0.56229   0.60919   0.62930   0.71891   0.74315
 Alpha virt. eigenvalues --    0.78300   0.82438   0.83888   0.84644   0.87458

 Mulliken charges:
               1
     1  O   -0.432672
     2  H    0.216671
     3  H    0.241360
     4  O   -0.479770
     5  H    0.198937
     6  H    0.255475
 Sum of Mulliken charges =  -0.00000

 Dipole moment (field-independent basis, Debye):
    X=             -1.6643    Y=             -1.8065    Z=              0.0000  Tot=              2.4563
 Quadrupole moment (field-independent basis, Debye-Ang):
   XX=             -9.7600   YY=             -5.5693   ZZ=            -14.7008
   XY=             -1.9351   XZ=              0.0000   YZ=              0.0000

 Normal termination of Gaussian 16 at Fri Aug 26 17:58:42 2022.
