 Gaussian 16, Revision A.03,
 Gaussian 16:  ES64L-G16RevA.03 25-Dec-2016

 ------------------
 #p CCSD(T)/cc-pVTZ
 ------------------

 ------------
 H2O_H2O_1845
 ------------
 Symbolic Z-matrix:
 Charge =  0 Multiplicity = 1

                         Standard orientation:
 ---------------------------------------------------------------------
 Center     Atomic      Atomic             Coordinates (Angstroms)
 Number     Number       Type             X           Y           Z
 ---------------------------------------------------------------------
      1          8           0        0.055280   -1.728379    0.000000
      2          1           0       -0.745820   -2.297365    0.000000
      3          1           0        0.853317   -2.301654    0.000000
      4          8           0        0.055280    1.812745    0.000000
      5          1           0       -0.286977    2.733814    0.000000
      6          1           0       -0.705007    1.190276    0.000000
 ---------------------------------------------------------------------

 SCF Done:  E(RHF) =  -152.108055559     A.U. after   10 cycles
 E2 =    -0.5265149682D+00 EUMP2 =    -0.15263457052724D+03
 CCSD(T)
 CCSD(T)= -0.15266172422D+03

 The electronic state is 1-A'.
 Alpha  occ. eigenvalues --  -20.55857 -20.54018  -1.33127  -1.31303  -0.70539
 Alpha  occ. eigenvalues --   -0.68673  -0.56557  -0.54747  -0.50245  -0.48430
 Alpha virt. eigenvalues --    0.13214   0.16467   0.19879   0.23335   0.53779
 Alpha virt. eigenvalues --    0.54861   0.56971   0.58428   0.65621   0.75458
 Alpha virt. eigenvalues --    0.77945   0.78415   0.78857   0.80856   0.84590

 Mulliken charges:
               1
     1  O   -0.497511
     2  H    0.245876
     3  H    0.256620
     4  O   -0.507716
     5  H    0.241796
     6  H    0.260935
 Sum of Mulliken charges =  -0.00000

 Dipole moment (field-independent basis, Debye):
    X=             -1.8463    Y=             -1.5838    Z=              0.0000  Tot=              2.4326
 Quadrupole moment (field-independent basis, Debye-Ang):
   XX=             -9.7270   YY=             -1.3659   ZZ=            -14.7180
   XY=             -3.1445   XZ=              0.0000   YZ=              0.0000

 Normal termination of Gaussian 16 at Sat Aug 27 07:08:10 2022.
