 Gaussian 16, Revision A.03,
 Gaussian 16:  ES64L-G16RevA.03 25-Dec-2016

 ------------------
 #p CCSD(T)/cc-pVTZ
 ------------------

 ------------
 H2O_H2O_1916
 ------------
 Symbolic Z-matrix:
 Charge =  0 Multiplicity = 1

                         Standard orientation:
 ---------------------------------------------------------------------
 Center     Atomic      Atomic             Coordinates (Angstroms)
 Number     Number       Type             X           Y           Z
 ---------------------------------------------------------------------
      1          8           0        0.049528   -1.783195    0.000000
      2          1           0       -0.751383   -2.352446    0.000000
      3          1           0        0.847755   -2.356204    0.000000
      4          8           0        0.049528    1.840075    0.000000
      5          1           0       -0.043002    2.818311    0.000000
      6          1           0       -0.845825    1.435295    0.000000
 ---------------------------------------------------------------------

 SCF Done:  E(RHF) =  -152.106702822     A.U. after   10 cycles
 E2 =    -0.5264674359D+00 EUMP2 =    -0.15263317025744D+03
 CCSD(T)
 CCSD(T)= -0.15266036111D+03

 The electronic state is 1-A'.
 Alpha  occ. eigenvalues --  -20.55333 -20.54208  -1.32608  -1.31480  -0.70024
 Alpha  occ. eigenvalues --   -0.68857  -0.56014  -0.54843  -0.49718  -0.48596
 Alpha virt. eigenvalues --    0.13514   0.16221   0.20124   0.22314   0.53742
 Alpha virt. eigenvalues --    0.54671   0.57426   0.58547   0.64435   0.76241
 Alpha virt. eigenvalues --    0.78585   0.78623   0.80035   0.80743   0.85000

 Mulliken charges:
               1
     1  O   -0.495922
     2  H    0.244320
     3  H    0.254005
     4  O   -0.499997
     5  H    0.241229
     6  H    0.256364
 Sum of Mulliken charges =  -0.00000

 Dipole moment (field-independent basis, Debye):
    X=             -1.6576    Y=             -1.0549    Z=              0.0000  Tot=              1.9648
 Quadrupole moment (field-independent basis, Debye-Ang):
   XX=             -9.3584   YY=              0.2142   ZZ=            -14.7143
   XY=             -2.4563   XZ=              0.0000   YZ=              0.0000

 Normal termination of Gaussian 16 at Sat Aug 27 07:31:43 2022.
