 Gaussian 16, Revision A.03,
 Gaussian 16:  ES64L-G16RevA.03 25-Dec-2016

 ------------------
 #p CCSD(T)/cc-pVTZ
 ------------------

 ------------
 H2O_H2O_1037
 ------------
 Symbolic Z-matrix:
 Charge =  0 Multiplicity = 1

                         Standard orientation:
 ---------------------------------------------------------------------
 Center     Atomic      Atomic             Coordinates (Angstroms)
 Number     Number       Type             X           Y           Z
 ---------------------------------------------------------------------
      1          8           0        0.040428   -1.330672    0.000000
      2          1           0       -0.760614   -1.899739    0.000000
      3          1           0        0.838523   -1.903865    0.000000
      4          8           0        0.040428    1.363919    0.000000
      5          1           0        0.204460    2.332733    0.000000
      6          1           0       -0.929219    1.204890    0.000000
 ---------------------------------------------------------------------

 SCF Done:  E(RHF) =  -152.100401678     A.U. after   11 cycles
 E2 =    -0.5282853902D+00 EUMP2 =    -0.15262868706849D+03
 CCSD(T)
 CCSD(T)= -0.15265592630D+03

 The electronic state is 1-A'.
 Alpha  occ. eigenvalues --  -20.54354 -20.53348  -1.31821  -1.30581  -0.69227
 Alpha  occ. eigenvalues --   -0.68093  -0.56185  -0.52483  -0.48998  -0.47560
 Alpha virt. eigenvalues --    0.14050   0.17129   0.20272   0.22871   0.53250
 Alpha virt. eigenvalues --    0.58013   0.58276   0.59589   0.69550   0.76332
 Alpha virt. eigenvalues --    0.76836   0.77090   0.82484   0.83191   0.85645

 Mulliken charges:
               1
     1  O   -0.473977
     2  H    0.230449
     3  H    0.245423
     4  O   -0.465905
     5  H    0.220617
     6  H    0.243392
 Sum of Mulliken charges =  -0.00000

 Dipole moment (field-independent basis, Debye):
    X=             -1.2882    Y=             -0.6430    Z=              0.0000  Tot=              1.4398
 Quadrupole moment (field-independent basis, Debye-Ang):
   XX=             -8.9221   YY=             -2.3608   ZZ=            -14.7197
   XY=             -1.0931   XZ=              0.0000   YZ=              0.0000

 Normal termination of Gaussian 16 at Sat Aug 27 01:35:09 2022.
