 Gaussian 16, Revision A.03,
 Gaussian 16:  ES64L-G16RevA.03 25-Dec-2016

 ------------------
 #p CCSD(T)/cc-pVTZ
 ------------------

 ------------
 H2O_H2O_3672
 ------------
 Symbolic Z-matrix:
 Charge =  0 Multiplicity = 1

                         Standard orientation:
 ---------------------------------------------------------------------
 Center     Atomic      Atomic             Coordinates (Angstroms)
 Number     Number       Type             X           Y           Z
 ---------------------------------------------------------------------
      1          8           0        0.056713   -2.690974    0.000000
      2          1           0       -0.743873   -3.260683    0.000000
      3          1           0        0.855267   -3.263527    0.000000
      4          8           0        0.056713    2.790089    0.000000
      5          1           0       -0.403625    3.658187    0.000000
      6          1           0       -0.615175    2.073100    0.000000
 ---------------------------------------------------------------------

 SCF Done:  E(RHF) =  -152.107699522     A.U. after   10 cycles
 E2 =    -0.5258808875D+00 EUMP2 =    -0.15263358040940D+03
 CCSD(T)
 CCSD(T)= -0.15266079180D+03

 The electronic state is 1-A'.
 Alpha  occ. eigenvalues --  -20.55746 -20.54964  -1.33044  -1.32264  -0.70450
 Alpha  occ. eigenvalues --   -0.69657  -0.56505  -0.55716  -0.50158  -0.49380
 Alpha virt. eigenvalues --    0.13773   0.14847   0.20028   0.20934   0.54091
 Alpha virt. eigenvalues --    0.54878   0.57052   0.57787   0.67299   0.68878
 Alpha virt. eigenvalues --    0.78725   0.79485   0.80121   0.80589   0.82612

 Mulliken charges:
               1
     1  O   -0.510527
     2  H    0.253486
     3  H    0.257111
     4  O   -0.509976
     5  H    0.251203
     6  H    0.258704
 Sum of Mulliken charges =   0.00000

 Dipole moment (field-independent basis, Debye):
    X=             -1.9445    Y=             -1.7452    Z=              0.0000  Tot=              2.6128
 Quadrupole moment (field-independent basis, Debye-Ang):
   XX=             -9.8271   YY=              2.2643   ZZ=            -14.7130
   XY=             -5.3400   XZ=              0.0000   YZ=              0.0000

 Normal termination of Gaussian 16 at Sat Aug 27 02:22:17 2022.
