 Gaussian 16, Revision A.03,
 Gaussian 16:  ES64L-G16RevA.03 25-Dec-2016

 ------------------
 #p CCSD(T)/cc-pVTZ
 ------------------

 ------------
 H2O_H2O_3905
 ------------
 Symbolic Z-matrix:
 Charge =  0 Multiplicity = 1

                         Standard orientation:
 ---------------------------------------------------------------------
 Center     Atomic      Atomic             Coordinates (Angstroms)
 Number     Number       Type             X           Y           Z
 ---------------------------------------------------------------------
      1          8           0        0.018360   -2.874480    0.000000
      2          1           0       -0.781525   -3.445172    0.000000
      3          1           0        0.817617   -3.446051    0.000000
      4          8           0        0.018360    2.880521    0.000000
      5          1           0        0.592352    3.678042    0.000000
      6          1           0       -0.922206    3.164846    0.000000
 ---------------------------------------------------------------------

 SCF Done:  E(RHF) =  -152.106660203     A.U. after   10 cycles
 E2 =    -0.5259531375D+00 EUMP2 =    -0.15263261334051D+03
 CCSD(T)
 CCSD(T)= -0.15265984888D+03

 The electronic state is 1-A'.
 Alpha  occ. eigenvalues --  -20.55133 -20.55091  -1.32428  -1.32385  -0.69836
 Alpha  occ. eigenvalues --   -0.69792  -0.55840  -0.55798  -0.49534  -0.49491
 Alpha virt. eigenvalues --    0.14445   0.14561   0.20509   0.20572   0.54729
 Alpha virt. eigenvalues --    0.54787   0.57585   0.57633   0.68268   0.68593
 Alpha virt. eigenvalues --    0.79344   0.79386   0.80790   0.80839   0.82723

 Mulliken charges:
               1
     1  O   -0.504462
     2  H    0.251689
     3  H    0.252774
     4  O   -0.504406
     5  H    0.251451
     6  H    0.252956
 Sum of Mulliken charges =  -0.00000

 Dipole moment (field-independent basis, Debye):
    X=             -0.6297    Y=             -0.1058    Z=              0.0000  Tot=              0.6385
 Quadrupole moment (field-independent basis, Debye-Ang):
   XX=             -8.0182   YY=             10.5760   ZZ=            -14.7105
   XY=             -1.2764   XZ=              0.0000   YZ=              0.0000

 Normal termination of Gaussian 16 at Sat Aug 27 04:12:03 2022.
