 Gaussian 16, Revision A.03,
 Gaussian 16:  ES64L-G16RevA.03 25-Dec-2016

 ------------------
 #p CCSD(T)/cc-pVTZ
 ------------------

 ------------
 H2O_H2O_1764
 ------------
 Symbolic Z-matrix:
 Charge =  0 Multiplicity = 1

                         Standard orientation:
 ---------------------------------------------------------------------
 Center     Atomic      Atomic             Coordinates (Angstroms)
 Number     Number       Type             X           Y           Z
 ---------------------------------------------------------------------
      1          8           0        0.045361   -1.710151    0.000000
      2          1           0       -0.755494   -2.279481    0.000000
      3          1           0        0.843644   -2.283081    0.000000
      4          8           0        0.045361    1.754636    0.000000
      5          1           0        0.081211    2.736584    0.000000
      6          1           0       -0.895140    1.470094    0.000000
 ---------------------------------------------------------------------

 SCF Done:  E(RHF) =  -152.105919810     A.U. after   10 cycles
 E2 =    -0.5266416308D+00 EUMP2 =    -0.15263256144046D+03
 CCSD(T)
 CCSD(T)= -0.15265976463D+03

 The electronic state is 1-A'.
 Alpha  occ. eigenvalues --  -20.55075 -20.54134  -1.32352  -1.31398  -0.69772
 Alpha  occ. eigenvalues --   -0.68783  -0.55796  -0.54643  -0.49461  -0.48506
 Alpha virt. eigenvalues --    0.13695   0.16322   0.20215   0.22210   0.53544
 Alpha virt. eigenvalues --    0.55152   0.57623   0.58583   0.64158   0.76783
 Alpha virt. eigenvalues --    0.78456   0.78456   0.79637   0.81142   0.85204

 Mulliken charges:
               1
     1  O   -0.491233
     2  H    0.241705
     3  H    0.251688
     4  O   -0.493979
     5  H    0.238603
     6  H    0.253216
 Sum of Mulliken charges =  -0.00000

 Dipole moment (field-independent basis, Debye):
    X=             -1.5104    Y=             -0.8298    Z=              0.0000  Tot=              1.7233
 Quadrupole moment (field-independent basis, Debye-Ang):
   XX=             -9.1213   YY=              0.2087   ZZ=            -14.7134
   XY=             -1.9535   XZ=              0.0000   YZ=              0.0000

 Normal termination of Gaussian 16 at Sat Aug 27 06:39:31 2022.
