 Gaussian 16, Revision A.03,
 Gaussian 16:  ES64L-G16RevA.03 25-Dec-2016

 ------------------
 #p CCSD(T)/cc-pVTZ
 ------------------

 ------------
 H2O_H2O_1228
 ------------
 Symbolic Z-matrix:
 Charge =  0 Multiplicity = 1

                         Standard orientation:
 ---------------------------------------------------------------------
 Center     Atomic      Atomic             Coordinates (Angstroms)
 Number     Number       Type             X           Y           Z
 ---------------------------------------------------------------------
      1          8           0        0.011143   -1.453914    0.000000
      2          1           0       -0.788804   -2.024519    0.000000
      3          1           0        0.810337   -2.025573    0.000000
      4          8           0        0.011143    1.456094    0.000000
      5          1           0        0.684400    2.171798    0.000000
      6          1           0       -0.884220    1.860854    0.000000
 ---------------------------------------------------------------------

 SCF Done:  E(RHF) =  -152.100462475     A.U. after   11 cycles
 E2 =    -0.5276080354D+00 EUMP2 =    -0.15262807051029D+03
 CCSD(T)
 CCSD(T)= -0.15265537514D+03

 The electronic state is 1-A'.
 Alpha  occ. eigenvalues --  -20.53761 -20.53707  -1.31210  -1.30909  -0.68609
 Alpha  occ. eigenvalues --   -0.68382  -0.55777  -0.52577  -0.48426  -0.47836
 Alpha virt. eigenvalues --    0.14396   0.16850   0.20555   0.21962   0.51456
 Alpha virt. eigenvalues --    0.58407   0.58701   0.60416   0.67781   0.76355
 Alpha virt. eigenvalues --    0.77470   0.78159   0.79114   0.82991   0.86170

 Mulliken charges:
               1
     1  O   -0.470514
     2  H    0.233194
     3  H    0.237299
     4  O   -0.469296
     5  H    0.232887
     6  H    0.236431
 Sum of Mulliken charges =  -0.00000

 Dipole moment (field-independent basis, Debye):
    X=             -0.3624    Y=             -0.0413    Z=              0.0000  Tot=              0.3647
 Quadrupole moment (field-independent basis, Debye-Ang):
   XX=             -7.9862   YY=             -0.8848   ZZ=            -14.7119
   XY=             -0.2336   XZ=              0.0000   YZ=              0.0000

 Normal termination of Gaussian 16 at Sat Aug 27 03:10:59 2022.
