 Gaussian 16, Revision A.03,
 Gaussian 16:  ES64L-G16RevA.03 25-Dec-2016

 ------------------
 #p CCSD(T)/cc-pVTZ
 ------------------

 ------------
 H2O_H2O_2435
 ------------
 Symbolic Z-matrix:
 Charge =  0 Multiplicity = 1

                         Standard orientation:
 ---------------------------------------------------------------------
 Center     Atomic      Atomic             Coordinates (Angstroms)
 Number     Number       Type             X           Y           Z
 ---------------------------------------------------------------------
      1          8           0        0.034785   -2.080536    0.000000
      2          1           0       -0.765602   -2.650523    0.000000
      3          1           0        0.833538   -2.652811    0.000000
      4          8           0        0.034785    2.104041    0.000000
      5          1           0        0.322789    3.043488    0.000000
      6          1           0       -0.947288    2.071807    0.000000
 ---------------------------------------------------------------------

 SCF Done:  E(RHF) =  -152.105969668     A.U. after   10 cycles
 E2 =    -0.5261742488D+00 EUMP2 =    -0.15263214391668D+03
 CCSD(T)
 CCSD(T)= -0.15265937883D+03

 The electronic state is 1-A'.
 Alpha  occ. eigenvalues --  -20.54935 -20.54610  -1.32222  -1.31894  -0.69635
 Alpha  occ. eigenvalues --   -0.69294  -0.55614  -0.55238  -0.49324  -0.48998
 Alpha virt. eigenvalues --    0.13974   0.15521   0.20440   0.21193   0.54115
 Alpha virt. eigenvalues --    0.55417   0.57721   0.58060   0.64477   0.73760
 Alpha virt. eigenvalues --    0.79422   0.79995   0.80640   0.81224   0.82620

 Mulliken charges:
               1
     1  O   -0.499345
     2  H    0.247328
     3  H    0.252248
     4  O   -0.499027
     5  H    0.246091
     6  H    0.252704
 Sum of Mulliken charges =  -0.00000

 Dipole moment (field-independent basis, Debye):
    X=             -1.1789    Y=             -0.4232    Z=              0.0000  Tot=              1.2526
 Quadrupole moment (field-independent basis, Debye-Ang):
   XX=             -8.5800   YY=              3.6376   ZZ=            -14.7106
   XY=             -1.6877   XZ=              0.0000   YZ=              0.0000

 Normal termination of Gaussian 16 at Sat Aug 27 10:32:47 2022.
