 Gaussian 16, Revision A.03,
 Gaussian 16:  ES64L-G16RevA.03 25-Dec-2016

 ------------------
 #p CCSD(T)/cc-pVTZ
 ------------------

 -----------
 H2O_H2O_641
 -----------
 Symbolic Z-matrix:
 Charge =  0 Multiplicity = 1

                         Standard orientation:
 ---------------------------------------------------------------------
 Center     Atomic      Atomic             Coordinates (Angstroms)
 Number     Number       Type             X           Y           Z
 ---------------------------------------------------------------------
      1          8           0        0.049568   -1.105176    0.000000
      2          1           0       -0.752142   -1.673300    0.000000
      3          1           0        0.846988   -1.679307    0.000000
      4          8           0        0.049568    1.161917    0.000000
      5          1           0       -0.041586    2.140281    0.000000
      6          1           0       -0.846354    0.758396    0.000000
 ---------------------------------------------------------------------

 SCF Done:  E(RHF) =  -152.087302182     A.U. after   11 cycles
 E2 =    -0.5314000675D+00 EUMP2 =    -0.15261870224921D+03
 CCSD(T)
 CCSD(T)= -0.15264576219D+03

 The electronic state is 1-A'.
 Alpha  occ. eigenvalues --  -20.54587 -20.52321  -1.32871  -1.29491  -0.70211
 Alpha  occ. eigenvalues --   -0.68061  -0.56413  -0.50790  -0.49955  -0.46388
 Alpha virt. eigenvalues --    0.13801   0.17915   0.19954   0.24071   0.52627
 Alpha virt. eigenvalues --    0.57327   0.59147   0.61570   0.71427   0.75000
 Alpha virt. eigenvalues --    0.78844   0.82742   0.83095   0.84854   0.87723

 Mulliken charges:
               1
     1  O   -0.454086
     2  H    0.220899
     3  H    0.240613
     4  O   -0.453278
     5  H    0.198663
     6  H    0.247188
 Sum of Mulliken charges =  -0.00000

 Dipole moment (field-independent basis, Debye):
    X=             -1.5019    Y=             -1.1459    Z=              0.0000  Tot=              1.8892
 Quadrupole moment (field-independent basis, Debye-Ang):
   XX=             -9.4429   YY=             -4.6672   ZZ=            -14.7208
   XY=             -1.3626   XZ=              0.0000   YZ=              0.0000

 Normal termination of Gaussian 16 at Fri Aug 26 18:35:51 2022.
