 Gaussian 16, Revision A.03,
 Gaussian 16:  ES64L-G16RevA.03 25-Dec-2016

 ------------------
 #p CCSD(T)/cc-pVTZ
 ------------------

 ------------
 H2O_H2O_3377
 ------------
 Symbolic Z-matrix:
 Charge =  0 Multiplicity = 1

                         Standard orientation:
 ---------------------------------------------------------------------
 Center     Atomic      Atomic             Coordinates (Angstroms)
 Number     Number       Type             X           Y           Z
 ---------------------------------------------------------------------
      1          8           0        0.007455   -2.598018    0.000000
      2          1           0       -0.792257   -3.168952    0.000000
      3          1           0        0.806885   -3.169347    0.000000
      4          8           0        0.007455    2.598991    0.000000
      5          1           0        0.725803    3.269425    0.000000
      6          1           0       -0.859710    3.061086    0.000000
 ---------------------------------------------------------------------

 SCF Done:  E(RHF) =  -152.106305278     A.U. after   10 cycles
 E2 =    -0.5260001543D+00 EUMP2 =    -0.15263230543244D+03
 CCSD(T)
 CCSD(T)= -0.15265954755D+03

 The electronic state is 1-A'.
 Alpha  occ. eigenvalues --  -20.54980 -20.54971  -1.32273  -1.32265  -0.69683
 Alpha  occ. eigenvalues --   -0.69674  -0.55672  -0.55655  -0.49377  -0.49368
 Alpha virt. eigenvalues --    0.14466   0.14752   0.20579   0.20676   0.54831
 Alpha virt. eigenvalues --    0.54958   0.57695   0.57741   0.67893   0.69333
 Alpha virt. eigenvalues --    0.79493   0.79514   0.80924   0.80992   0.82769

 Mulliken charges:
               1
     1  O   -0.502378
     2  H    0.250896
     3  H    0.251481
     4  O   -0.502362
     5  H    0.250797
     6  H    0.251565
 Sum of Mulliken charges =  -0.00000

 Dipole moment (field-independent basis, Debye):
    X=             -0.2550    Y=             -0.0171    Z=              0.0000  Tot=              0.2556
 Quadrupole moment (field-independent basis, Debye-Ang):
   XX=             -7.8468   YY=              8.6773   ZZ=            -14.7100
   XY=             -0.4359   XZ=              0.0000   YZ=              0.0000

 48992\MP4DQ=-152.641427\MP4SDQ=-152.6444921\CCSD=-152.6439019\CCSD(T)=
 Normal termination of Gaussian 16 at Fri Aug 26 21:49:49 2022.
