 Gaussian 16, Revision A.03,
 Gaussian 16:  ES64L-G16RevA.03 25-Dec-2016

 ------------------
 #p CCSD(T)/cc-pVTZ
 ------------------

 ------------
 H2O_H2O_3835
 ------------
 Symbolic Z-matrix:
 Charge =  0 Multiplicity = 1

                         Standard orientation:
 ---------------------------------------------------------------------
 Center     Atomic      Atomic             Coordinates (Angstroms)
 Number     Number       Type             X           Y           Z
 ---------------------------------------------------------------------
      1          8           0        0.034781   -2.825093    0.000000
      2          1           0       -0.765392   -3.395381    0.000000
      3          1           0        0.833749   -3.397068    0.000000
      4          8           0        0.034781    2.848624    0.000000
      5          1           0        0.322432    3.788179    0.000000
      6          1           0       -0.947280    2.816021    0.000000
 ---------------------------------------------------------------------

 SCF Done:  E(RHF) =  -152.106812297     A.U. after   10 cycles
 E2 =    -0.5259429957D+00 EUMP2 =    -0.15263275529281D+03
 CCSD(T)
 CCSD(T)= -0.15265998740D+03

 The electronic state is 1-A'.
 Alpha  occ. eigenvalues --  -20.55235 -20.55065  -1.32531  -1.32360  -0.69938
 Alpha  occ. eigenvalues --   -0.69763  -0.55950  -0.55780  -0.49638  -0.49468
 Alpha virt. eigenvalues --    0.14349   0.14601   0.20425   0.20626   0.54623
 Alpha virt. eigenvalues --    0.54820   0.57495   0.57669   0.68130   0.68620
 Alpha virt. eigenvalues --    0.79241   0.79408   0.80683   0.80869   0.82623

 Mulliken charges:
               1
     1  O   -0.505376
     2  H    0.251617
     3  H    0.253759
     4  O   -0.505185
     5  H    0.251006
     6  H    0.254178
 Sum of Mulliken charges =  -0.00000

 Dipole moment (field-independent basis, Debye):
    X=             -1.1927    Y=             -0.4124    Z=              0.0000  Tot=              1.2620
 Quadrupole moment (field-independent basis, Debye-Ang):
   XX=             -8.5662   YY=              9.0474   ZZ=            -14.7108
   XY=             -2.5617   XZ=              0.0000   YZ=              0.0000

 Normal termination of Gaussian 16 at Sat Aug 27 03:40:37 2022.
