 Gaussian 16, Revision A.03,
 Gaussian 16:  ES64L-G16RevA.03 25-Dec-2016

 ------------------
 #p CCSD(T)/cc-pVTZ
 ------------------

 ------------
 H2O_H2O_1653
 ------------
 Symbolic Z-matrix:
 Charge =  0 Multiplicity = 1

                         Standard orientation:
 ---------------------------------------------------------------------
 Center     Atomic      Atomic             Coordinates (Angstroms)
 Number     Number       Type             X           Y           Z
 ---------------------------------------------------------------------
      1          8           0        0.011143   -1.679944    0.000000
      2          1           0       -0.788754   -2.250619    0.000000
      3          1           0        0.810388   -2.251532    0.000000
      4          8           0        0.011143    1.682126    0.000000
      5          1           0        0.684336    2.397888    0.000000
      6          1           0       -0.884256    2.086806    0.000000
 ---------------------------------------------------------------------

 SCF Done:  E(RHF) =  -152.103540247     A.U. after   10 cycles
 E2 =    -0.5268206022D+00 EUMP2 =    -0.15263036084963D+03
 CCSD(T)
 CCSD(T)= -0.15265762480D+03

 The electronic state is 1-A'.
 Alpha  occ. eigenvalues --  -20.54211 -20.54166  -1.31518  -1.31420  -0.68940
 Alpha  occ. eigenvalues --   -0.68853  -0.55366  -0.54019  -0.48669  -0.48448
 Alpha virt. eigenvalues --    0.14262   0.16272   0.20581   0.21557   0.52879
 Alpha virt. eigenvalues --    0.57964   0.58106   0.58512   0.62044   0.76124
 Alpha virt. eigenvalues --    0.78702   0.78894   0.79974   0.81634   0.84757

 Mulliken charges:
               1
     1  O   -0.481760
     2  H    0.239553
     3  H    0.242297
     4  O   -0.481662
     5  H    0.239341
     6  H    0.242229
 Sum of Mulliken charges =  -0.00000

 Dipole moment (field-independent basis, Debye):
    X=             -0.3705    Y=             -0.0407    Z=              0.0000  Tot=              0.3727
 Quadrupole moment (field-independent basis, Debye-Ang):
   XX=             -7.9434   YY=              1.1168   ZZ=            -14.7089
   XY=             -0.3145   XZ=              0.0000   YZ=              0.0000

 Normal termination of Gaussian 16 at Sat Aug 27 06:01:02 2022.
