 Gaussian 16, Revision A.03,
 Gaussian 16:  ES64L-G16RevA.03 25-Dec-2016

 ------------------
 #p CCSD(T)/cc-pVTZ
 ------------------

 ------------
 H2O_H2O_4488
 ------------
 Symbolic Z-matrix:
 Charge =  0 Multiplicity = 1

                         Standard orientation:
 ---------------------------------------------------------------------
 Center     Atomic      Atomic             Coordinates (Angstroms)
 Number     Number       Type             X           Y           Z
 ---------------------------------------------------------------------
      1          8           0        0.042963   -3.162488    0.000000
      2          1           0       -0.757271   -3.732691    0.000000
      3          1           0        0.841870   -3.734549    0.000000
      4          8           0        0.042963    3.201300    0.000000
      5          1           0        0.141892    4.178909    0.000000
      6          1           0       -0.913892    2.977836    0.000000
 ---------------------------------------------------------------------

 SCF Done:  E(RHF) =  -152.107124633     A.U. after   10 cycles
 E2 =    -0.5259040730D+00 EUMP2 =    -0.15263302870573D+03
 CCSD(T)
 CCSD(T)= -0.15266025485D+03

 The electronic state is 1-A'.
 Alpha  occ. eigenvalues --  -20.55400 -20.55178  -1.32697  -1.32474  -0.70104
 Alpha  occ. eigenvalues --   -0.69877  -0.56131  -0.55909  -0.49806  -0.49585
 Alpha virt. eigenvalues --    0.14250   0.14478   0.20313   0.20547   0.54461
 Alpha virt. eigenvalues --    0.54699   0.57355   0.57577   0.68072   0.68314
 Alpha virt. eigenvalues --    0.79073   0.79292   0.80510   0.80749   0.82436

 Mulliken charges:
               1
     1  O   -0.507208
     2  H    0.252656
     3  H    0.254553
     4  O   -0.507046
     5  H    0.251994
     6  H    0.255052
 Sum of Mulliken charges =  -0.00000

 Dipole moment (field-independent basis, Debye):
    X=             -1.4765    Y=             -0.6776    Z=              0.0000  Tot=              1.6246
 Quadrupole moment (field-independent basis, Debye-Ang):
   XX=             -8.9646   YY=             10.2062   ZZ=            -14.7114
   XY=             -3.8761   XZ=              0.0000   YZ=              0.0000

 Normal termination of Gaussian 16 at Sat Aug 27 07:36:04 2022.
