 Gaussian 16, Revision A.03,
 Gaussian 16:  ES64L-G16RevA.03 25-Dec-2016

 ------------------
 #p CCSD(T)/cc-pVTZ
 ------------------

 ------------
 H2O_H2O_2304
 ------------
 Symbolic Z-matrix:
 Charge =  0 Multiplicity = 1

                         Standard orientation:
 ---------------------------------------------------------------------
 Center     Atomic      Atomic             Coordinates (Angstroms)
 Number     Number       Type             X           Y           Z
 ---------------------------------------------------------------------
      1          8           0        0.014783   -2.024719    0.000000
      2          1           0       -0.785146   -2.595348    0.000000
      3          1           0        0.813995   -2.596353    0.000000
      4          8           0        0.014783    2.028592    0.000000
      5          1           0        0.639766    2.786816    0.000000
      6          1           0       -0.905147    2.373897    0.000000
 ---------------------------------------------------------------------

 SCF Done:  E(RHF) =  -152.105281175     A.U. after   10 cycles
 E2 =    -0.5262612293D+00 EUMP2 =    -0.15263154240445D+03
 CCSD(T)
 CCSD(T)= -0.15265878981D+03

 The electronic state is 1-A'.
 Alpha  occ. eigenvalues --  -20.54636 -20.54580  -1.31921  -1.31862  -0.69338
 Alpha  occ. eigenvalues --   -0.69276  -0.55382  -0.55057  -0.49025  -0.48954
 Alpha virt. eigenvalues --    0.14190   0.15569   0.20607   0.21104   0.54349
 Alpha virt. eigenvalues --    0.55994   0.57877   0.58125   0.62872   0.74374
 Alpha virt. eigenvalues --    0.79539   0.80209   0.80803   0.81296   0.82022

 Mulliken charges:
               1
     1  O   -0.495235
     2  H    0.246509
     3  H    0.248772
     4  O   -0.495117
     5  H    0.246160
     6  H    0.248910
 Sum of Mulliken charges =  -0.00000

 Dipole moment (field-independent basis, Debye):
    X=             -0.5000    Y=             -0.0700    Z=              0.0000  Tot=              0.5049
 Quadrupole moment (field-independent basis, Debye-Ang):
   XX=             -7.9696   YY=              3.9354   ZZ=            -14.7095
   XY=             -0.5940   XZ=              0.0000   YZ=              0.0000

 Normal termination of Gaussian 16 at Sat Aug 27 09:45:46 2022.
