 Gaussian 16, Revision A.03,
 Gaussian 16:  ES64L-G16RevA.03 25-Dec-2016

 ------------------
 #p CCSD(T)/cc-pVTZ
 ------------------

 ------------
 H2O_H2O_4089
 ------------
 Symbolic Z-matrix:
 Charge =  0 Multiplicity = 1

                         Standard orientation:
 ---------------------------------------------------------------------
 Center     Atomic      Atomic             Coordinates (Angstroms)
 Number     Number       Type             X           Y           Z
 ---------------------------------------------------------------------
      1          8           0        0.045340   -2.946626    0.000000
      2          1           0       -0.754980   -3.516707    0.000000
      3          1           0        0.844160   -3.518808    0.000000
      4          8           0        0.045340    2.991196    0.000000
      5          1           0        0.080269    3.973177    0.000000
      6          1           0       -0.894894    2.705772    0.000000
 ---------------------------------------------------------------------

 SCF Done:  E(RHF) =  -152.107098364     A.U. after   10 cycles
 E2 =    -0.5259133372D+00 EUMP2 =    -0.15263301170155D+03
 CCSD(T)
 CCSD(T)= -0.15266023797D+03

 The electronic state is 1-A'.
 Alpha  occ. eigenvalues --  -20.55398 -20.55104  -1.32696  -1.32400  -0.70102
 Alpha  occ. eigenvalues --   -0.69801  -0.56129  -0.55833  -0.49805  -0.49510
 Alpha virt. eigenvalues --    0.14228   0.14566   0.20306   0.20628   0.54460
 Alpha virt. eigenvalues --    0.54779   0.57353   0.57649   0.68024   0.68447
 Alpha virt. eigenvalues --    0.79075   0.79364   0.80511   0.80826   0.82450

 Mulliken charges:
               1
     1  O   -0.507068
     2  H    0.252314
     3  H    0.254755
     4  O   -0.506827
     5  H    0.251425
     6  H    0.255401
 Sum of Mulliken charges =  -0.00000

 Dipole moment (field-independent basis, Debye):
    X=             -1.5566    Y=             -0.7802    Z=              0.0000  Tot=              1.7411
 Quadrupole moment (field-independent basis, Debye-Ang):
   XX=             -9.0971   YY=              8.3159   ZZ=            -14.7114
   XY=             -3.8437   XZ=              0.0000   YZ=              0.0000

 Normal termination of Gaussian 16 at Sat Aug 27 05:19:21 2022.
