 Gaussian 16, Revision A.03,
 Gaussian 16:  ES64L-G16RevA.03 25-Dec-2016

 ------------------
 #p CCSD(T)/cc-pVTZ
 ------------------

 ------------
 H2O_H2O_2590
 ------------
 Symbolic Z-matrix:
 Charge =  0 Multiplicity = 1

                         Standard orientation:
 ---------------------------------------------------------------------
 Center     Atomic      Atomic             Coordinates (Angstroms)
 Number     Number       Type             X           Y           Z
 ---------------------------------------------------------------------
      1          8           0        0.047536   -2.145603    0.000000
      2          1           0       -0.753109   -2.715228    0.000000
      3          1           0        0.846030   -2.718240    0.000000
      4          8           0        0.047536    2.196190    0.000000
      5          1           0        0.018724    3.178369    0.000000
      6          1           0       -0.872214    1.850406    0.000000
 ---------------------------------------------------------------------

 SCF Done:  E(RHF) =  -152.106784104     A.U. after   10 cycles
 E2 =    -0.5260847673D+00 EUMP2 =    -0.15263286887155D+03
 CCSD(T)
 CCSD(T)= -0.15266008768D+03

 The electronic state is 1-A'.
 Alpha  occ. eigenvalues --  -20.55298 -20.54635  -1.32587  -1.31922  -0.69998
 Alpha  occ. eigenvalues --   -0.69311  -0.55997  -0.55332  -0.49694  -0.49034
 Alpha virt. eigenvalues --    0.13691   0.15490   0.20236   0.21357   0.54071
 Alpha virt. eigenvalues --    0.54995   0.57453   0.58042   0.65751   0.72965
 Alpha virt. eigenvalues --    0.79153   0.79863   0.80214   0.81799   0.83252

 Mulliken charges:
               1
     1  O   -0.503751
     2  H    0.249081
     3  H    0.255151
     4  O   -0.503927
     5  H    0.247010
     6  H    0.256435
 Sum of Mulliken charges =   0.00000

 Dipole moment (field-independent basis, Debye):
    X=             -1.6148    Y=             -0.9087    Z=              0.0000  Tot=              1.8529
 Quadrupole moment (field-independent basis, Debye-Ang):
   XX=             -9.2291   YY=              2.7973   ZZ=            -14.7121
   XY=             -2.8359   XZ=              0.0000   YZ=              0.0000

 Normal termination of Gaussian 16 at Fri Aug 26 14:07:52 2022.
