 Gaussian 16, Revision A.03,
 Gaussian 16:  ES64L-G16RevA.03 25-Dec-2016

 ------------------
 #p CCSD(T)/cc-pVTZ
 ------------------

 -----------
 H2O_H2O_147
 -----------
 Symbolic Z-matrix:
 Charge =  0 Multiplicity = 1

                         Standard orientation:
 ---------------------------------------------------------------------
 Center     Atomic      Atomic             Coordinates (Angstroms)
 Number     Number       Type             X           Y           Z
 ---------------------------------------------------------------------
      1          8           0        0.056903   -0.816478    0.000000
      2          1           0       -0.745870   -1.383100    0.000000
      3          1           0        0.853246   -1.392103    0.000000
      4          8           0        0.056903    0.915156    0.000000
      5          1           0       -0.400088    1.785022    0.000000
      6          1           0       -0.617740    0.200760    0.000000
 ---------------------------------------------------------------------

 SCF Done:  E(RHF) =  -151.939322665     A.U. after   11 cycles
 E2 =    -0.5482068645D+00 EUMP2 =    -0.15248752952940D+03
 CCSD(T)
 CCSD(T)= -0.15251223274D+03

 The electronic state is 1-A'.
 Alpha  occ. eigenvalues --  -20.56575 -20.47507  -1.41642  -1.25659  -0.79086
 Alpha  occ. eigenvalues --   -0.72842  -0.55567  -0.50540  -0.43603  -0.42571
 Alpha virt. eigenvalues --    0.12742   0.18087   0.20455   0.26565   0.49165
 Alpha virt. eigenvalues --    0.53489   0.62927   0.69354   0.73410   0.75541
 Alpha virt. eigenvalues --    0.77863   0.79200   0.84422   0.85197   0.88744

 Mulliken charges:
               1
     1  O   -0.292768
     2  H    0.167722
     3  H    0.217748
     4  O   -0.501338
     5  H    0.139422
     6  H    0.269214
 Sum of Mulliken charges =  -0.00000

 Dipole moment (field-independent basis, Debye):
    X=             -1.4964    Y=             -2.5728    Z=              0.0000  Tot=              2.9763
 Quadrupole moment (field-independent basis, Debye-Ang):
   XX=             -9.8303   YY=             -8.6371   ZZ=            -14.5449
   XY=             -1.6981   XZ=              0.0000   YZ=              0.0000

 Normal termination of Gaussian 16 at Fri Aug 26 13:19:46 2022.
