 Gaussian 16, Revision A.03,
 Gaussian 16:  ES64L-G16RevA.03 25-Dec-2016

 ------------------
 #p CCSD(T)/cc-pVTZ
 ------------------

 ------------
 H2O_H2O_1318
 ------------
 Symbolic Z-matrix:
 Charge =  0 Multiplicity = 1

                         Standard orientation:
 ---------------------------------------------------------------------
 Center     Atomic      Atomic             Coordinates (Angstroms)
 Number     Number       Type             X           Y           Z
 ---------------------------------------------------------------------
      1          8           0        0.052873   -1.456862    0.000000
      2          1           0       -0.748433   -2.025557    0.000000
      3          1           0        0.850701   -2.030426    0.000000
      4          8           0        0.052873    1.527054    0.000000
      5          1           0       -0.165886    2.484995    0.000000
      6          1           0       -0.782347    1.009450    0.000000
 ---------------------------------------------------------------------

 SCF Done:  E(RHF) =  -152.106192786     A.U. after   10 cycles
 E2 =    -0.5274381379D+00 EUMP2 =    -0.15263363092359D+03
 CCSD(T)
 CCSD(T)= -0.15266078723D+03

 The electronic state is 1-A'.
 Alpha  occ. eigenvalues --  -20.55571 -20.53496  -1.32897  -1.30761  -0.70315
 Alpha  occ. eigenvalues --   -0.68219  -0.56276  -0.54052  -0.50013  -0.47868
 Alpha virt. eigenvalues --    0.13495   0.17035   0.19909   0.23690   0.53726
 Alpha virt. eigenvalues --    0.56164   0.57212   0.58382   0.68030   0.75477
 Alpha virt. eigenvalues --    0.76336   0.77074   0.80238   0.82192   0.84783

 Mulliken charges:
               1
     1  O   -0.484857
     2  H    0.238581
     3  H    0.253973
     4  O   -0.494614
     5  H    0.231454
     6  H    0.255463
 Sum of Mulliken charges =   0.00000

 Dipole moment (field-independent basis, Debye):
    X=             -1.7208    Y=             -1.3610    Z=              0.0000  Tot=              2.1940
 Quadrupole moment (field-independent basis, Debye-Ang):
   XX=             -9.5849   YY=             -2.3545   ZZ=            -14.7213
   XY=             -2.2880   XZ=              0.0000   YZ=              0.0000

 Normal termination of Gaussian 16 at Sat Aug 27 03:52:24 2022.
