 Gaussian 16, Revision A.03,
 Gaussian 16:  ES64L-G16RevA.03 25-Dec-2016

 ------------------
 #p CCSD(T)/cc-pVTZ
 ------------------

 ------------
 H2O_H2O_4272
 ------------
 Symbolic Z-matrix:
 Charge =  0 Multiplicity = 1

                         Standard orientation:
 ---------------------------------------------------------------------
 Center     Atomic      Atomic             Coordinates (Angstroms)
 Number     Number       Type             X           Y           Z
 ---------------------------------------------------------------------
      1          8           0        0.056704   -3.010064    0.000000
      2          1           0       -0.743776   -3.579922    0.000000
      3          1           0        0.855364   -3.582469    0.000000
      4          8           0        0.056704    3.109201    0.000000
      5          1           0       -0.403795    3.977214    0.000000
      6          1           0       -0.615051    2.392087    0.000000
 ---------------------------------------------------------------------

 SCF Done:  E(RHF) =  -152.107614809     A.U. after   10 cycles
 E2 =    -0.5258654266D+00 EUMP2 =    -0.15263348023525D+03
 CCSD(T)
 CCSD(T)= -0.15266069562D+03

 The electronic state is 1-A'.
 Alpha  occ. eigenvalues --  -20.55718 -20.55105  -1.33018  -1.32404  -0.70423
 Alpha  occ. eigenvalues --   -0.69802  -0.56475  -0.55856  -0.50131  -0.49519
 Alpha virt. eigenvalues --    0.13942   0.14609   0.20058   0.20723   0.54134
 Alpha virt. eigenvalues --    0.54768   0.57072   0.57681   0.67634   0.68395
 Alpha virt. eigenvalues --    0.78750   0.79351   0.80175   0.80784   0.82171

 Mulliken charges:
               1
     1  O   -0.510124
     2  H    0.253753
     3  H    0.256376
     4  O   -0.509727
     5  H    0.252124
     6  H    0.257598
 Sum of Mulliken charges =  -0.00000

 Dipole moment (field-independent basis, Debye):
    X=             -1.9482    Y=             -1.7350    Z=              0.0000  Tot=              2.6088
 Quadrupole moment (field-independent basis, Debye-Ang):
   XX=             -9.8279   YY=              3.7068   ZZ=            -14.7126
   XY=             -5.9568   XZ=              0.0000   YZ=              0.0000

 Normal termination of Gaussian 16 at Sat Aug 27 06:22:33 2022.
