 Gaussian 16, Revision A.03,
 Gaussian 16:  ES64L-G16RevA.03 25-Dec-2016

 ------------------
 #p CCSD(T)/cc-pVTZ
 ------------------

 ------------
 H2O_H2O_4644
 ------------
 Symbolic Z-matrix:
 Charge =  0 Multiplicity = 1

                         Standard orientation:
 ---------------------------------------------------------------------
 Center     Atomic      Atomic             Coordinates (Angstroms)
 Number     Number       Type             X           Y           Z
 ---------------------------------------------------------------------
      1          8           0        0.054138   -3.221332    0.000000
      2          1           0       -0.746248   -3.791321    0.000000
      3          1           0        0.852892   -3.793605    0.000000
      4          8           0        0.054138    3.298687    0.000000
      5          1           0       -0.228328    4.239813    0.000000
      6          1           0       -0.744517    2.726273    0.000000
 ---------------------------------------------------------------------

 SCF Done:  E(RHF) =  -152.107429474     A.U. after   10 cycles
 E2 =    -0.5258756453D+00 EUMP2 =    -0.15263330511967D+03
 CCSD(T)
 CCSD(T)= -0.15266052487D+03

 The electronic state is 1-A'.
 Alpha  occ. eigenvalues --  -20.55603 -20.55184  -1.32902  -1.32482  -0.70308
 Alpha  occ. eigenvalues --   -0.69882  -0.56350  -0.55928  -0.50014  -0.49595
 Alpha virt. eigenvalues --    0.14071   0.14497   0.20150   0.20596   0.54253
 Alpha virt. eigenvalues --    0.54692   0.57174   0.57594   0.67829   0.68276
 Alpha virt. eigenvalues --    0.78866   0.79279   0.80297   0.80742   0.82224

 Mulliken charges:
               1
     1  O   -0.509015
     2  H    0.253430
     3  H    0.255586
     4  O   -0.508772
     5  H    0.252347
     6  H    0.256424
 Sum of Mulliken charges =  -0.00000

 Dipole moment (field-independent basis, Debye):
    X=             -1.8616    Y=             -1.3502    Z=              0.0000  Tot=              2.2997
 Quadrupole moment (field-independent basis, Debye-Ang):
   XX=             -9.6489   YY=              6.9530   ZZ=            -14.7121
   XY=             -5.6869   XZ=              0.0000   YZ=              0.0000

 Normal termination of Gaussian 16 at Sat Aug 27 08:30:44 2022.
