 Gaussian 16, Revision A.03,
 Gaussian 16:  ES64L-G16RevA.03 25-Dec-2016

 ------------------
 #p CCSD(T)/cc-pVTZ
 ------------------

 -----------
 H2O_H2O_563
 -----------
 Symbolic Z-matrix:
 Charge =  0 Multiplicity = 1

                         Standard orientation:
 ---------------------------------------------------------------------
 Center     Atomic      Atomic             Coordinates (Angstroms)
 Number     Number       Type             X           Y           Z
 ---------------------------------------------------------------------
      1          8           0        0.043005   -1.075130    0.000000
      2          1           0       -0.758490   -1.643558    0.000000
      3          1           0        0.840643   -1.648959    0.000000
      4          8           0        0.043005    1.113751    0.000000
      5          1           0        0.144101    2.091138    0.000000
      6          1           0       -0.914342    0.892407    0.000000
 ---------------------------------------------------------------------

 SCF Done:  E(RHF) =  -152.080077765     A.U. after   11 cycles
 E2 =    -0.5320696342D+00 EUMP2 =    -0.15261214739870D+03
 CCSD(T)
 CCSD(T)= -0.15263920897D+03

 The electronic state is 1-A'.
 Alpha  occ. eigenvalues --  -20.53741 -20.52338  -1.32359  -1.29370  -0.69593
 Alpha  occ. eigenvalues --   -0.67772  -0.57459  -0.49515  -0.48951  -0.46136
 Alpha virt. eigenvalues --    0.14106   0.17863   0.20148   0.23563   0.53150
 Alpha virt. eigenvalues --    0.57687   0.58318   0.62359   0.71244   0.75810
 Alpha virt. eigenvalues --    0.79097   0.81494   0.83381   0.85450   0.87879

 Mulliken charges:
               1
     1  O   -0.453946
     2  H    0.217897
     3  H    0.237147
     4  O   -0.433719
     5  H    0.191061
     6  H    0.241560
 Sum of Mulliken charges =  -0.00000

 Dipole moment (field-independent basis, Debye):
    X=             -1.2868    Y=             -0.7730    Z=              0.0000  Tot=              1.5011
 Quadrupole moment (field-independent basis, Debye-Ang):
   XX=             -9.1188   YY=             -4.7704   ZZ=            -14.7255
   XY=             -0.8977   XZ=              0.0000   YZ=              0.0000

 Normal termination of Gaussian 16 at Fri Aug 26 17:40:43 2022.
