 Gaussian 16, Revision A.03,
 Gaussian 16:  ES64L-G16RevA.03 25-Dec-2016

 ------------------
 #p CCSD(T)/cc-pVTZ
 ------------------

 ------------
 H2O_H2O_2039
 ------------
 Symbolic Z-matrix:
 Charge =  0 Multiplicity = 1

                         Standard orientation:
 ---------------------------------------------------------------------
 Center     Atomic      Atomic             Coordinates (Angstroms)
 Number     Number       Type             X           Y           Z
 ---------------------------------------------------------------------
      1          8           0        0.045357   -1.856397    0.000000
      2          1           0       -0.755398   -2.425868    0.000000
      3          1           0        0.843741   -2.429188    0.000000
      4          8           0        0.045357    1.900899    0.000000
      5          1           0        0.081035    2.882853    0.000000
      6          1           0       -0.895094    1.616192    0.000000
 ---------------------------------------------------------------------

 SCF Done:  E(RHF) =  -152.106288132     A.U. after   10 cycles
 E2 =    -0.5263781177D+00 EUMP2 =    -0.15263266624970D+03
 CCSD(T)
 CCSD(T)= -0.15265987404D+03

 The electronic state is 1-A'.
 Alpha  occ. eigenvalues --  -20.55139 -20.54339  -1.32417  -1.31613  -0.69833
 Alpha  occ. eigenvalues --   -0.68998  -0.55821  -0.54950  -0.49524  -0.48724
 Alpha virt. eigenvalues --    0.13641   0.16024   0.20240   0.21861   0.53434
 Alpha virt. eigenvalues --    0.55027   0.57582   0.58420   0.64084   0.75996
 Alpha virt. eigenvalues --    0.78932   0.79161   0.80516   0.80892   0.84278

 Mulliken charges:
               1
     1  O   -0.496649
     2  H    0.244861
     3  H    0.253153
     4  O   -0.498474
     5  H    0.242441
     6  H    0.254668
 Sum of Mulliken charges =  -0.00000

 Dipole moment (field-independent basis, Debye):
    X=             -1.5238    Y=             -0.8180    Z=              0.0000  Tot=              1.7295
 Quadrupole moment (field-independent basis, Debye-Ang):
   XX=             -9.1123   YY=              1.2021   ZZ=            -14.7126
   XY=             -2.1745   XZ=              0.0000   YZ=              0.0000

 Normal termination of Gaussian 16 at Sat Aug 27 08:14:43 2022.
