 Gaussian 16, Revision A.03,
 Gaussian 16:  ES64L-G16RevA.03 25-Dec-2016

 ------------------
 #p CCSD(T)/cc-pVTZ
 ------------------

 ------------
 H2O_H2O_2604
 ------------
 Symbolic Z-matrix:
 Charge =  0 Multiplicity = 1

                         Standard orientation:
 ---------------------------------------------------------------------
 Center     Atomic      Atomic             Coordinates (Angstroms)
 Number     Number       Type             X           Y           Z
 ---------------------------------------------------------------------
      1          8           0        0.014783   -2.184269    0.000000
      2          1           0       -0.785120   -2.754935    0.000000
      3          1           0        0.814022   -2.755866    0.000000
      4          8           0        0.014783    2.188144    0.000000
      5          1           0        0.639732    2.946395    0.000000
      6          1           0       -0.905163    2.533406    0.000000
 ---------------------------------------------------------------------

 SCF Done:  E(RHF) =  -152.105663996     A.U. after   10 cycles
 E2 =    -0.5261383339D+00 EUMP2 =    -0.15263180232937D+03
 CCSD(T)
 CCSD(T)= -0.15265905051D+03

 The electronic state is 1-A'.
 Alpha  occ. eigenvalues --  -20.54760 -20.54713  -1.32049  -1.32001  -0.69463
 Alpha  occ. eigenvalues --   -0.69412  -0.55461  -0.55302  -0.49150  -0.49099
 Alpha virt. eigenvalues --    0.14273   0.15287   0.20607   0.20950   0.54665
 Alpha virt. eigenvalues --    0.55544   0.57818   0.57989   0.64860   0.72676
 Alpha virt. eigenvalues --    0.79603   0.79889   0.81159   0.81197   0.82120

 Mulliken charges:
               1
     1  O   -0.498326
     2  H    0.248241
     3  H    0.250102
     4  O   -0.498200
     5  H    0.247942
     6  H    0.250241
 Sum of Mulliken charges =   0.00000

 Dipole moment (field-independent basis, Debye):
    X=             -0.5023    Y=             -0.0692    Z=              0.0000  Tot=              0.5071
 Quadrupole moment (field-independent basis, Debye-Ang):
   XX=             -7.9614   YY=              5.2208   ZZ=            -14.7096
   XY=             -0.6729   XZ=              0.0000   YZ=              0.0000

 Normal termination of Gaussian 16 at Fri Aug 26 14:16:03 2022.
