 Gaussian 16, Revision A.03,
 Gaussian 16:  ES64L-G16RevA.03 25-Dec-2016

 ------------------
 #p CCSD(T)/cc-pVTZ
 ------------------

 ------------
 H2O_H2O_2519
 ------------
 Symbolic Z-matrix:
 Charge =  0 Multiplicity = 1

                         Standard orientation:
 ---------------------------------------------------------------------
 Center     Atomic      Atomic             Coordinates (Angstroms)
 Number     Number       Type             X           Y           Z
 ---------------------------------------------------------------------
      1          8           0        0.054167   -2.091222    0.000000
      2          1           0       -0.746651   -2.660605    0.000000
      3          1           0        0.852488   -2.664101    0.000000
      4          8           0        0.054167    2.168495    0.000000
      5          1           0       -0.227585    3.109836    0.000000
      6          1           0       -0.744921    1.596686    0.000000
 ---------------------------------------------------------------------

 SCF Done:  E(RHF) =  -152.107545435     A.U. after   10 cycles
 E2 =    -0.5260826953D+00 EUMP2 =    -0.15263362813048D+03
 CCSD(T)
 CCSD(T)= -0.15266082360D+03

 The electronic state is 1-A'.
 Alpha  occ. eigenvalues --  -20.55632 -20.54541  -1.32917  -1.31832  -0.70326
 Alpha  occ. eigenvalues --   -0.69211  -0.56355  -0.55272  -0.50030  -0.48951
 Alpha virt. eigenvalues --    0.13334   0.15679   0.20041   0.21810   0.54046
 Alpha virt. eigenvalues --    0.54671   0.57195   0.58225   0.65980   0.73162
 Alpha virt. eigenvalues --    0.78826   0.79663   0.79936   0.81985   0.82349

 Mulliken charges:
               1
     1  O   -0.505850
     2  H    0.250035
     3  H    0.257070
     4  O   -0.507935
     5  H    0.247104
     6  H    0.259577
 Sum of Mulliken charges =  -0.00000

 Dipole moment (field-independent basis, Debye):
    X=             -1.8381    Y=             -1.3976    Z=              0.0000  Tot=              2.3091
 Quadrupole moment (field-independent basis, Debye-Ang):
   XX=             -9.6486   YY=              0.9573   ZZ=            -14.7141
   XY=             -3.6108   XZ=              0.0000   YZ=              0.0000

 Normal termination of Gaussian 16 at Fri Aug 26 13:16:12 2022.
