 Gaussian 16, Revision A.03,
 Gaussian 16:  ES64L-G16RevA.03 25-Dec-2016

 ------------------
 #p CCSD(T)/cc-pVTZ
 ------------------

 ------------
 H2O_H2O_1299
 ------------
 Symbolic Z-matrix:
 Charge =  0 Multiplicity = 1

                         Standard orientation:
 ---------------------------------------------------------------------
 Center     Atomic      Atomic             Coordinates (Angstroms)
 Number     Number       Type             X           Y           Z
 ---------------------------------------------------------------------
      1          8           0        0.057303   -1.419859    0.000000
      2          1           0       -0.744165   -1.988326    0.000000
      3          1           0        0.854968   -1.993650    0.000000
      4          8           0        0.057303    1.533705    0.000000
      5          1           0       -0.511164    2.335173    0.000000
      6          1           0       -0.516488    0.736039    0.000000
 ---------------------------------------------------------------------

 SCF Done:  E(RHF) =  -152.109701333     A.U. after   10 cycles
 E2 =    -0.5277458921D+00 EUMP2 =    -0.15263744722538D+03
 CCSD(T)
 CCSD(T)= -0.15266448284D+03

 The electronic state is 1-A'.
 Alpha  occ. eigenvalues --  -20.56872 -20.52921  -1.34229  -1.30294  -0.71602
 Alpha  occ. eigenvalues --   -0.68011  -0.57507  -0.53802  -0.51335  -0.47423
 Alpha virt. eigenvalues --    0.12855   0.17521   0.19444   0.26407   0.51383
 Alpha virt. eigenvalues --    0.55994   0.56941   0.59150   0.69398   0.74241
 Alpha virt. eigenvalues --    0.74609   0.78108   0.82067   0.83587   0.83808

 Mulliken charges:
               1
     1  O   -0.491051
     2  H    0.246332
     3  H    0.261359
     4  O   -0.521560
     5  H    0.235973
     6  H    0.268946
 Sum of Mulliken charges =  -0.00000

 Dipole moment (field-independent basis, Debye):
    X=             -1.8685    Y=             -2.2880    Z=              0.0000  Tot=              2.9540
 Quadrupole moment (field-independent basis, Debye-Ang):
   XX=             -9.8583   YY=             -4.3770   ZZ=            -14.7282
   XY=             -3.2358   XZ=              0.0000   YZ=              0.0000

 Normal termination of Gaussian 16 at Sat Aug 27 03:43:55 2022.
