 Gaussian 16, Revision A.03,
 Gaussian 16:  ES64L-G16RevA.03 25-Dec-2016

 ------------------
 #p CCSD(T)/cc-pVTZ
 ------------------

 ------------
 H2O_H2O_1549
 ------------
 Symbolic Z-matrix:
 Charge =  0 Multiplicity = 1

                         Standard orientation:
 ---------------------------------------------------------------------
 Center     Atomic      Atomic             Coordinates (Angstroms)
 Number     Number       Type             X           Y           Z
 ---------------------------------------------------------------------
      1          8           0        0.057287   -1.552802    0.000000
      2          1           0       -0.744024   -2.121489    0.000000
      3          1           0        0.855110   -2.126373    0.000000
      4          8           0        0.057287    1.666679    0.000000
      5          1           0       -0.511400    2.467991    0.000000
      6          1           0       -0.516284    0.868855    0.000000
 ---------------------------------------------------------------------

 SCF Done:  E(RHF) =  -152.110116119     A.U. after   10 cycles
 E2 =    -0.5270052062D+00 EUMP2 =    -0.15263712132553D+03
 CCSD(T)
 CCSD(T)= -0.15266420248D+03

 The electronic state is 1-A'.
 Alpha  occ. eigenvalues --  -20.56662 -20.53418  -1.33946  -1.30751  -0.71338
 Alpha  occ. eigenvalues --   -0.68217  -0.57413  -0.54248  -0.51068  -0.47888
 Alpha virt. eigenvalues --    0.12866   0.17105   0.19539   0.25667   0.52112
 Alpha virt. eigenvalues --    0.55658   0.56661   0.58265   0.68243   0.75094
 Alpha virt. eigenvalues --    0.75923   0.76734   0.81210   0.81475   0.83990

 Mulliken charges:
               1
     1  O   -0.496280
     2  H    0.247766
     3  H    0.260921
     4  O   -0.519096
     5  H    0.240261
     6  H    0.266429
 Sum of Mulliken charges =  -0.00000

 Dipole moment (field-independent basis, Debye):
    X=             -1.8944    Y=             -2.2193    Z=              0.0000  Tot=              2.9179
 Quadrupole moment (field-independent basis, Debye-Ang):
   XX=             -9.8599   YY=             -3.7577   ZZ=            -14.7262
   XY=             -3.4842   XZ=              0.0000   YZ=              0.0000

 Normal termination of Gaussian 16 at Sat Aug 27 05:24:48 2022.
