 Gaussian 16, Revision A.03,
 Gaussian 16:  ES64L-G16RevA.03 25-Dec-2016

 ------------------
 #p CCSD(T)/cc-pVTZ
 ------------------

 ------------
 H2O_H2O_2051
 ------------
 Symbolic Z-matrix:
 Charge =  0 Multiplicity = 1

                         Standard orientation:
 ---------------------------------------------------------------------
 Center     Atomic      Atomic             Coordinates (Angstroms)
 Number     Number       Type             X           Y           Z
 ---------------------------------------------------------------------
      1          8           0        0.003735   -1.893731    0.000000
      2          1           0       -0.795933   -2.464728    0.000000
      3          1           0        0.803209   -2.464999    0.000000
      4          8           0        0.003735    1.893975    0.000000
      5          1           0        0.764347    2.516050    0.000000
      6          1           0       -0.831390    2.411731    0.000000
 ---------------------------------------------------------------------

 SCF Done:  E(RHF) =  -152.104716792     A.U. after   10 cycles
 E2 =    -0.5264238506D+00 EUMP2 =    -0.15263114064231D+03
 CCSD(T)
 CCSD(T)= -0.15265839139D+03

 The electronic state is 1-A'.
 Alpha  occ. eigenvalues --  -20.54456 -20.54452  -1.31747  -1.31721  -0.69167
 Alpha  occ. eigenvalues --   -0.69142  -0.55315  -0.54733  -0.48869  -0.48789
 Alpha virt. eigenvalues --    0.14211   0.15812   0.20630   0.21230   0.54040
 Alpha virt. eigenvalues --    0.56755   0.57935   0.58263   0.61267   0.75360
 Alpha virt. eigenvalues --    0.79386   0.80408   0.80641   0.80828   0.82607

 Mulliken charges:
               1
     1  O   -0.490721
     2  H    0.245026
     3  H    0.245701
     4  O   -0.490717
     5  H    0.244958
     6  H    0.245753
 Sum of Mulliken charges =   0.00000

 Dipole moment (field-independent basis, Debye):
    X=             -0.1257    Y=             -0.0045    Z=              0.0000  Tot=              0.1258
 Quadrupole moment (field-independent basis, Debye-Ang):
   XX=             -7.8528   YY=              2.9674   ZZ=            -14.7091
   XY=             -0.1294   XZ=              0.0000   YZ=              0.0000

 Normal termination of Gaussian 16 at Sat Aug 27 08:18:43 2022.
