 Gaussian 16, Revision A.03,
 Gaussian 16:  ES64L-G16RevA.03 25-Dec-2016

 ------------------
 #p CCSD(T)/cc-pVTZ
 ------------------

 ------------
 H2O_H2O_3077
 ------------
 Symbolic Z-matrix:
 Charge =  0 Multiplicity = 1

                         Standard orientation:
 ---------------------------------------------------------------------
 Center     Atomic      Atomic             Coordinates (Angstroms)
 Number     Number       Type             X           Y           Z
 ---------------------------------------------------------------------
      1          8           0        0.007455   -2.438467    0.000000
      2          1           0       -0.792266   -3.009389    0.000000
      3          1           0        0.806876   -3.009809    0.000000
      4          8           0        0.007455    2.439440    0.000000
      5          1           0        0.725814    3.109862    0.000000
      6          1           0       -0.859703    2.901549    0.000000
 ---------------------------------------------------------------------

 SCF Done:  E(RHF) =  -152.106073770     A.U. after   10 cycles
 E2 =    -0.5260378909D+00 EUMP2 =    -0.15263211166113D+03
 CCSD(T)
 CCSD(T)= -0.15265935741D+03

 The electronic state is 1-A'.
 Alpha  occ. eigenvalues --  -20.54894 -20.54885  -1.32187  -1.32177  -0.69597
 Alpha  occ. eigenvalues --   -0.69587  -0.55585  -0.55543  -0.49289  -0.49279
 Alpha virt. eigenvalues --    0.14427   0.14918   0.20604   0.20760   0.54843
 Alpha virt. eigenvalues --    0.55119   0.57747   0.57823   0.67181   0.70245
 Alpha virt. eigenvalues --    0.79561   0.79621   0.80999   0.81101   0.82637

 Mulliken charges:
               1
     1  O   -0.501011
     2  H    0.250157
     3  H    0.250854
     4  O   -0.500989
     5  H    0.250049
     6  H    0.250940
 Sum of Mulliken charges =  -0.00000

 Dipole moment (field-independent basis, Debye):
    X=             -0.2545    Y=             -0.0172    Z=              0.0000  Tot=              0.2551
 Quadrupole moment (field-independent basis, Debye-Ang):
   XX=             -7.8510   YY=              7.3910   ZZ=            -14.7098
   XY=             -0.3958   XZ=              0.0000   YZ=              0.0000

 Normal termination of Gaussian 16 at Fri Aug 26 19:12:07 2022.
