 Gaussian 16, Revision A.03,
 Gaussian 16:  ES64L-G16RevA.03 25-Dec-2016

 ------------------
 #p CCSD(T)/cc-pVTZ
 ------------------

 -----------
 H2O_H2O_720
 -----------
 Symbolic Z-matrix:
 Charge =  0 Multiplicity = 1

                         Standard orientation:
 ---------------------------------------------------------------------
 Center     Atomic      Atomic             Coordinates (Angstroms)
 Number     Number       Type             X           Y           Z
 ---------------------------------------------------------------------
      1          8           0        0.055338   -1.130143    0.000000
      2          1           0       -0.746540   -1.698031    0.000000
      3          1           0        0.852589   -1.704509    0.000000
      4          8           0        0.055338    1.214358    0.000000
      5          1           0       -0.285658    2.135893    0.000000
      6          1           0       -0.705801    0.592929    0.000000
 ---------------------------------------------------------------------

 SCF Done:  E(RHF) =  -152.092968124     A.U. after   11 cycles
 E2 =    -0.5312428751D+00 EUMP2 =    -0.15262421099880D+03
 CCSD(T)
 CCSD(T)= -0.15265115215D+03

 The electronic state is 1-A'.
 Alpha  occ. eigenvalues --  -20.55851 -20.51910  -1.33983  -1.29287  -0.71356
 Alpha  occ. eigenvalues --   -0.68413  -0.55479  -0.52491  -0.50957  -0.46296
 Alpha virt. eigenvalues --    0.13331   0.18190   0.19598   0.25334   0.51330
 Alpha virt. eigenvalues --    0.56470   0.60469   0.61661   0.71646   0.74060
 Alpha virt. eigenvalues --    0.77557   0.82757   0.84005   0.84109   0.87271

 Mulliken charges:
               1
     1  O   -0.450300
     2  H    0.225119
     3  H    0.245864
     4  O   -0.486490
     5  H    0.208772
     6  H    0.257035
 Sum of Mulliken charges =  -0.00000

 Dipole moment (field-independent basis, Debye):
    X=             -1.6983    Y=             -1.7690    Z=              0.0000  Tot=              2.4522
 Quadrupole moment (field-independent basis, Debye-Ang):
   XX=             -9.7557   YY=             -5.0281   ZZ=            -14.7135
   XY=             -2.0617   XZ=              0.0000   YZ=              0.0000

 Normal termination of Gaussian 16 at Fri Aug 26 19:24:47 2022.
