 Gaussian 16, Revision A.03,
 Gaussian 16:  ES64L-G16RevA.03 25-Dec-2016

 ------------------
 #p CCSD(T)/cc-pVTZ
 ------------------

 ------------
 H2O_H2O_2574
 ------------
 Symbolic Z-matrix:
 Charge =  0 Multiplicity = 1

                         Standard orientation:
 ---------------------------------------------------------------------
 Center     Atomic      Atomic             Coordinates (Angstroms)
 Number     Number       Type             X           Y           Z
 ---------------------------------------------------------------------
      1          8           0        0.057243   -2.097888    0.000000
      2          1           0       -0.743629   -2.667194    0.000000
      3          1           0        0.855509   -2.670843    0.000000
      4          8           0        0.057243    2.211853    0.000000
      5          1           0       -0.512063    3.012726    0.000000
      6          1           0       -0.515711    1.413587    0.000000
 ---------------------------------------------------------------------

 SCF Done:  E(RHF) =  -152.108654231     A.U. after   10 cycles
 E2 =    -0.5260362251D+00 EUMP2 =    -0.15263469045648D+03
 CCSD(T)
 CCSD(T)= -0.15266185718D+03

 The electronic state is 1-A'.
 Alpha  occ. eigenvalues --  -20.56087 -20.54479  -1.33367  -1.31783  -0.70771
 Alpha  occ. eigenvalues --   -0.69158  -0.56852  -0.55252  -0.50488  -0.48908
 Alpha virt. eigenvalues --    0.12962   0.15787   0.19809   0.22353   0.53849
 Alpha virt. eigenvalues --    0.54926   0.56832   0.58421   0.66705   0.71747
 Alpha virt. eigenvalues --    0.78392   0.79353   0.79948   0.80511   0.82546

 Mulliken charges:
               1
     1  O   -0.509157
     2  H    0.252462
     3  H    0.259022
     4  O   -0.513507
     5  H    0.248447
     6  H    0.262732
 Sum of Mulliken charges =  -0.00000

 Dipole moment (field-independent basis, Debye):
    X=             -1.9451    Y=             -2.0677    Z=              0.0000  Tot=              2.8388
 Quadrupole moment (field-independent basis, Debye-Ang):
   XX=             -9.8614   YY=             -1.4839   ZZ=            -14.7168
   XY=             -4.5207   XZ=              0.0000   YZ=              0.0000

 Normal termination of Gaussian 16 at Fri Aug 26 13:53:53 2022.
