 Gaussian 16, Revision A.03,
 Gaussian 16:  ES64L-G16RevA.03 25-Dec-2016

 ------------------
 #p CCSD(T)/cc-pVTZ
 ------------------

 ------------
 H2O_H2O_1067
 ------------
 Symbolic Z-matrix:
 Charge =  0 Multiplicity = 1

                         Standard orientation:
 ---------------------------------------------------------------------
 Center     Atomic      Atomic             Coordinates (Angstroms)
 Number     Number       Type             X           Y           Z
 ---------------------------------------------------------------------
      1          8           0        0.051326   -1.327606    0.000000
      2          1           0       -0.750093   -1.896141    0.000000
      3          1           0        0.849040   -1.901329    0.000000
      4          8           0        0.051326    1.390978    0.000000
      5          1           0       -0.104118    2.361207    0.000000
      6          1           0       -0.816050    0.929282    0.000000
 ---------------------------------------------------------------------

 SCF Done:  E(RHF) =  -152.103329585     A.U. after   10 cycles
 E2 =    -0.5282796394D+00 EUMP2 =    -0.15263160922402D+03
 CCSD(T)
 CCSD(T)= -0.15265877153D+03

 The electronic state is 1-A'.
 Alpha  occ. eigenvalues --  -20.55289 -20.53164  -1.32734  -1.30419  -0.70148
 Alpha  occ. eigenvalues --   -0.68040  -0.56177  -0.53369  -0.49858  -0.47483
 Alpha virt. eigenvalues --    0.13623   0.17321   0.19950   0.23784   0.53244
 Alpha virt. eigenvalues --    0.57333   0.58173   0.58619   0.70172   0.75473
 Alpha virt. eigenvalues --    0.76049   0.78413   0.81895   0.82750   0.84915

 Mulliken charges:
               1
     1  O   -0.477689
     2  H    0.234227
     3  H    0.251678
     4  O   -0.483613
     5  H    0.223299
     6  H    0.252097
 Sum of Mulliken charges =  -0.00000

 Dipole moment (field-independent basis, Debye):
    X=             -1.6383    Y=             -1.2465    Z=              0.0000  Tot=              2.0586
 Quadrupole moment (field-independent basis, Debye-Ang):
   XX=             -9.5050   YY=             -3.0200   ZZ=            -14.7232
   XY=             -1.8909   XZ=              0.0000   YZ=              0.0000

 Normal termination of Gaussian 16 at Sat Aug 27 01:49:05 2022.
