 Gaussian 16, Revision A.03,
 Gaussian 16:  ES64L-G16RevA.03 25-Dec-2016

 ------------------
 #p CCSD(T)/cc-pVTZ
 ------------------

 -----------
 H2O_H2O_442
 -----------
 Symbolic Z-matrix:
 Charge =  0 Multiplicity = 1

                         Standard orientation:
 ---------------------------------------------------------------------
 Center     Atomic      Atomic             Coordinates (Angstroms)
 Number     Number       Type             X           Y           Z
 ---------------------------------------------------------------------
      1          8           0        0.051360   -0.995265    0.000000
      2          1           0       -0.750657   -1.562958    0.000000
      3          1           0        0.848471   -1.569825    0.000000
      4          8           0        0.051360    1.058529    0.000000
      5          1           0       -0.103066    2.028920    0.000000
      6          1           0       -0.816501    0.597743    0.000000
 ---------------------------------------------------------------------

 SCF Done:  E(RHF) =  -152.064734311     A.U. after   11 cycles
 E2 =    -0.5349051726D+00 EUMP2 =    -0.15259963948360D+03
 CCSD(T)
 CCSD(T)= -0.15262641873D+03

 The electronic state is 1-A'.
 Alpha  occ. eigenvalues --  -20.54456 -20.51575  -1.33957  -1.28631  -0.71332
 Alpha  occ. eigenvalues --   -0.68668  -0.55925  -0.50756  -0.48918  -0.45488
 Alpha virt. eigenvalues --    0.13731   0.18389   0.19779   0.24508   0.52023
 Alpha virt. eigenvalues --    0.56824   0.59946   0.63282   0.72080   0.75387
 Alpha virt. eigenvalues --    0.79767   0.82611   0.83942   0.84268   0.88022

 Mulliken charges:
               1
     1  O   -0.423641
     2  H    0.205494
     3  H    0.230861
     4  O   -0.438488
     5  H    0.180030
     6  H    0.245744
 Sum of Mulliken charges =   0.00000

 Dipole moment (field-independent basis, Debye):
    X=             -1.4979    Y=             -1.3234    Z=              0.0000  Tot=              1.9988
 Quadrupole moment (field-independent basis, Debye-Ang):
   XX=             -9.5606   YY=             -5.8489   ZZ=            -14.6991
   XY=             -1.3285   XZ=              0.0000   YZ=              0.0000

 Normal termination of Gaussian 16 at Fri Aug 26 16:29:52 2022.
