 Gaussian 16, Revision A.03,
 Gaussian 16:  ES64L-G16RevA.03 25-Dec-2016

 ------------------
 #p CCSD(T)/cc-pVTZ
 ------------------

 ----------
 H2O_H2O_17
 ----------
 Symbolic Z-matrix:
 Charge =  0 Multiplicity = 1

                         Standard orientation:
 ---------------------------------------------------------------------
 Center     Atomic      Atomic             Coordinates (Angstroms)
 Number     Number       Type             X           Y           Z
 ---------------------------------------------------------------------
      1          8           0        0.051398   -0.769299    0.000000
      2          1           0       -0.751306   -1.336020    0.000000
      3          1           0        0.847812   -1.344825    0.000000
      4          8           0        0.051398    0.832439    0.000000
      5          1           0       -0.101852    1.803017    0.000000
      6          1           0       -0.817021    0.372705    0.000000
 ---------------------------------------------------------------------

 SCF Done:  E(RHF) =  -151.896913737     A.U. after   12 cycles
 E2 =    -0.5531062762D+00 EUMP2 =    -0.15245002001344D+03
 CCSD(T)
 CCSD(T)= -0.15247443498D+03

 The electronic state is 1-A'.
 Alpha  occ. eigenvalues --  -20.54156 -20.50620  -1.41186  -1.26092  -0.77272
 Alpha  occ. eigenvalues --   -0.72173  -0.55500  -0.55341  -0.43113  -0.37596
 Alpha virt. eigenvalues --    0.13528   0.18803   0.20034   0.24442   0.51012
 Alpha virt. eigenvalues --    0.55749   0.59863   0.67239   0.73288   0.76687
 Alpha virt. eigenvalues --    0.79041   0.81305   0.83828   0.84049   0.89241

 Mulliken charges:
               1
     1  O   -0.288816
     2  H    0.134442
     3  H    0.187487
     4  O   -0.361674
     5  H    0.083153
     6  H    0.245408
 Sum of Mulliken charges =   0.00000

 Dipole moment (field-independent basis, Debye):
    X=             -1.3025    Y=             -1.5056    Z=              0.0000  Tot=              1.9909
 Quadrupole moment (field-independent basis, Debye-Ang):
   XX=             -9.6793   YY=             -9.4219   ZZ=            -14.5780
   XY=             -0.8971   XZ=              0.0000   YZ=              0.0000

 33\MP4DQ=-152.4527271\MP4SDQ=-152.4569794\CCSD=-152.4556929\CCSD(T)=-1
 Normal termination of Gaussian 16 at Fri Aug 26 11:55:12 2022.
