 Gaussian 16, Revision A.03,
 Gaussian 16:  ES64L-G16RevA.03 25-Dec-2016

 ------------------
 #p CCSD(T)/cc-pVTZ
 ------------------

 ------------
 H2O_H2O_3983
 ------------
 Symbolic Z-matrix:
 Charge =  0 Multiplicity = 1

                         Standard orientation:
 ---------------------------------------------------------------------
 Center     Atomic      Atomic             Coordinates (Angstroms)
 Number     Number       Type             X           Y           Z
 ---------------------------------------------------------------------
      1          8           0        0.028563   -2.909363    0.000000
      2          1           0       -0.771489   -3.479821    0.000000
      3          1           0        0.827652   -3.481169    0.000000
      4          8           0        0.028563    2.924619    0.000000
      5          1           0        0.436201    3.818675    0.000000
      6          1           0       -0.949372    3.020272    0.000000
 ---------------------------------------------------------------------

 SCF Done:  E(RHF) =  -152.106783152     A.U. after   10 cycles
 E2 =    -0.5259414006D+00 EUMP2 =    -0.15263272455286D+03
 CCSD(T)
 CCSD(T)= -0.15265995753D+03

 The electronic state is 1-A'.
 Alpha  occ. eigenvalues --  -20.55204 -20.55101  -1.32500  -1.32396  -0.69908
 Alpha  occ. eigenvalues --   -0.69801  -0.55918  -0.55814  -0.49607  -0.49503
 Alpha virt. eigenvalues --    0.14395   0.14549   0.20457   0.20578   0.54658
 Alpha virt. eigenvalues --    0.54778   0.57524   0.57631   0.68226   0.68521
 Alpha virt. eigenvalues --    0.79272   0.79374   0.80715   0.80830   0.82648

 Mulliken charges:
               1
     1  O   -0.505193
     2  H    0.251784
     3  H    0.253409
     4  O   -0.505074
     5  H    0.251364
     6  H    0.253710
 Sum of Mulliken charges =   0.00000

 Dipole moment (field-independent basis, Debye):
    X=             -0.9800    Y=             -0.2670    Z=              0.0000  Tot=              1.0157
 Quadrupole moment (field-independent basis, Debye-Ang):
   XX=             -8.3183   YY=             10.2331   ZZ=            -14.7107
   XY=             -2.1070   XZ=              0.0000   YZ=              0.0000

 Normal termination of Gaussian 16 at Sat Aug 27 04:43:26 2022.
