 Gaussian 16, Revision A.03,
 Gaussian 16:  ES64L-G16RevA.03 25-Dec-2016

 ------------------
 #p CCSD(T)/cc-pVTZ
 ------------------

 ------------
 H2O_H2O_2534
 ------------
 Symbolic Z-matrix:
 Charge =  0 Multiplicity = 1

                         Standard orientation:
 ---------------------------------------------------------------------
 Center     Atomic      Atomic             Coordinates (Angstroms)
 Number     Number       Type             X           Y           Z
 ---------------------------------------------------------------------
      1          8           0        0.031743   -2.136074    0.000000
      2          1           0       -0.768555   -2.706187    0.000000
      3          1           0        0.830586   -2.708223    0.000000
      4          8           0        0.031743    2.155244    0.000000
      5          1           0        0.380427    3.073897    0.000000
      6          1           0       -0.950341    2.187155    0.000000
 ---------------------------------------------------------------------

 SCF Done:  E(RHF) =  -152.105949042     A.U. after   10 cycles
 E2 =    -0.5261417307D+00 EUMP2 =    -0.15263209077282D+03
 CCSD(T)
 CCSD(T)= -0.15265932977D+03

 The electronic state is 1-A'.
 Alpha  occ. eigenvalues --  -20.54911 -20.54663  -1.32200  -1.31948  -0.69613
 Alpha  occ. eigenvalues --   -0.69351  -0.55590  -0.55296  -0.49302  -0.49051
 Alpha virt. eigenvalues --    0.14066   0.15408   0.20481   0.21092   0.54333
 Alpha virt. eigenvalues --    0.55421   0.57732   0.58014   0.64835   0.73113
 Alpha virt. eigenvalues --    0.79478   0.79910   0.80834   0.81218   0.82465

 Mulliken charges:
               1
     1  O   -0.499682
     2  H    0.247803
     3  H    0.252011
     4  O   -0.499298
     5  H    0.246799
     6  H    0.252366
 Sum of Mulliken charges =  -0.00000

 Dipole moment (field-independent basis, Debye):
    X=             -1.0775    Y=             -0.3437    Z=              0.0000  Tot=              1.1310
 Quadrupole moment (field-independent basis, Debye-Ang):
   XX=             -8.4526   YY=              4.2306   ZZ=            -14.7103
   XY=             -1.5538   XZ=              0.0000   YZ=              0.0000

 Normal termination of Gaussian 16 at Fri Aug 26 13:27:14 2022.
