 Gaussian 16, Revision A.03,
 Gaussian 16:  ES64L-G16RevA.03 25-Dec-2016

 ------------------
 #p CCSD(T)/cc-pVTZ
 ------------------

 -----------
 H2O_H2O_653
 -----------
 Symbolic Z-matrix:
 Charge =  0 Multiplicity = 1

                         Standard orientation:
 ---------------------------------------------------------------------
 Center     Atomic      Atomic             Coordinates (Angstroms)
 Number     Number       Type             X           Y           Z
 ---------------------------------------------------------------------
      1          8           0        0.011143   -1.148110    0.000000
      2          1           0       -0.788904   -1.718575    0.000000
      3          1           0        0.810237   -1.719909    0.000000
      4          8           0        0.011143    1.150286    0.000000
      5          1           0        0.684526    1.865872    0.000000
      6          1           0       -0.884149    1.555204    0.000000
 ---------------------------------------------------------------------

 SCF Done:  E(RHF) =  -152.082723232     A.U. after   11 cycles
 E2 =    -0.5307783902D+00 EUMP2 =    -0.15261350162203D+03
 CCSD(T)
 CCSD(T)= -0.15264071667D+03

 The electronic state is 1-A'.
 Alpha  occ. eigenvalues --  -20.52674 -20.52607  -1.31142  -1.29596  -0.68271
 Alpha  occ. eigenvalues --   -0.67276  -0.58156  -0.48459  -0.48104  -0.46237
 Alpha virt. eigenvalues --    0.14552   0.17832   0.20560   0.22562   0.50432
 Alpha virt. eigenvalues --    0.58958   0.59018   0.64334   0.72003   0.76835
 Alpha virt. eigenvalues --    0.77622   0.80903   0.84241   0.86611   0.86859

 Mulliken charges:
               1
     1  O   -0.452713
     2  H    0.223197
     3  H    0.228903
     4  O   -0.448686
     5  H    0.218973
     6  H    0.230326
 Sum of Mulliken charges =  -0.00000

 Dipole moment (field-independent basis, Debye):
    X=             -0.3405    Y=             -0.0431    Z=              0.0000  Tot=              0.3432
 Quadrupole moment (field-independent basis, Debye-Ang):
   XX=             -8.1093   YY=             -3.9349   ZZ=            -14.7358
   XY=             -0.1346   XZ=              0.0000   YZ=              0.0000

 Normal termination of Gaussian 16 at Fri Aug 26 18:42:52 2022.
