 Gaussian 16, Revision A.03,
 Gaussian 16:  ES64L-G16RevA.03 25-Dec-2016

 ------------------
 #p CCSD(T)/cc-pVTZ
 ------------------

 ------------
 H2O_H2O_3694
 ------------
 Symbolic Z-matrix:
 Charge =  0 Multiplicity = 1

                         Standard orientation:
 ---------------------------------------------------------------------
 Center     Atomic      Atomic             Coordinates (Angstroms)
 Number     Number       Type             X           Y           Z
 ---------------------------------------------------------------------
      1          8           0        0.054148   -2.716102    0.000000
      2          1           0       -0.746387   -3.285882    0.000000
      3          1           0        0.852752   -3.288585    0.000000
      4          8           0        0.054148    2.793429    0.000000
      5          1           0       -0.228071    3.734629    0.000000
      6          1           0       -0.744656    2.221224    0.000000
 ---------------------------------------------------------------------

 SCF Done:  E(RHF) =  -152.107416680     A.U. after   10 cycles
 E2 =    -0.5259008372D+00 EUMP2 =    -0.15263331751684D+03
 CCSD(T)
 CCSD(T)= -0.15266053563D+03

 The electronic state is 1-A'.
 Alpha  occ. eigenvalues --  -20.55592 -20.54991  -1.32891  -1.32288  -0.70297
 Alpha  occ. eigenvalues --   -0.69683  -0.56338  -0.55731  -0.50002  -0.49401
 Alpha virt. eigenvalues --    0.13951   0.14777   0.20140   0.20841   0.54246
 Alpha virt. eigenvalues --    0.54879   0.57182   0.57765   0.67550   0.68807
 Alpha virt. eigenvalues --    0.78879   0.79467   0.80294   0.80779   0.82516

 Mulliken charges:
               1
     1  O   -0.508933
     2  H    0.252715
     3  H    0.256250
     4  O   -0.508480
     5  H    0.250939
     6  H    0.257509
 Sum of Mulliken charges =  -0.00000

 Dipole moment (field-independent basis, Debye):
    X=             -1.8565    Y=             -1.3601    Z=              0.0000  Tot=              2.3014
 Quadrupole moment (field-independent basis, Debye-Ang):
   XX=             -9.6480   YY=              4.2808   ZZ=            -14.7123
   XY=             -4.7542   XZ=              0.0000   YZ=              0.0000

 Normal termination of Gaussian 16 at Sat Aug 27 02:33:08 2022.
