 Gaussian 16, Revision A.03,
 Gaussian 16:  ES64L-G16RevA.03 25-Dec-2016

 ------------------
 #p CCSD(T)/cc-pVTZ
 ------------------

 ------------
 H2O_H2O_2379
 ------------
 Symbolic Z-matrix:
 Charge =  0 Multiplicity = 1

                         Standard orientation:
 ---------------------------------------------------------------------
 Center     Atomic      Atomic             Coordinates (Angstroms)
 Number     Number       Type             X           Y           Z
 ---------------------------------------------------------------------
      1          8           0        0.014783   -2.064606    0.000000
      2          1           0       -0.785139   -2.635246    0.000000
      3          1           0        0.814002   -2.636231    0.000000
      4          8           0        0.014783    2.068480    0.000000
      5          1           0        0.639757    2.826711    0.000000
      6          1           0       -0.905151    2.413773    0.000000
 ---------------------------------------------------------------------

 SCF Done:  E(RHF) =  -152.105387474     A.U. after   10 cycles
 E2 =    -0.5262244990D+00 EUMP2 =    -0.15263161197269D+03
 CCSD(T)
 CCSD(T)= -0.15265885972D+03

 The electronic state is 1-A'.
 Alpha  occ. eigenvalues --  -20.54669 -20.54615  -1.31955  -1.31900  -0.69371
 Alpha  occ. eigenvalues --   -0.69313  -0.55400  -0.55127  -0.49058  -0.48994
 Alpha virt. eigenvalues --    0.14207   0.15495   0.20608   0.21062   0.54450
 Alpha virt. eigenvalues --    0.55867   0.57861   0.58089   0.63358   0.73985
 Alpha virt. eigenvalues --    0.79567   0.80113   0.80936   0.81313   0.81968

 Mulliken charges:
               1
     1  O   -0.496150
     2  H    0.247016
     3  H    0.249171
     4  O   -0.496023
     5  H    0.246681
     6  H    0.249306
 Sum of Mulliken charges =  -0.00000

 Dipole moment (field-independent basis, Debye):
    X=             -0.5007    Y=             -0.0698    Z=              0.0000  Tot=              0.5055
 Quadrupole moment (field-independent basis, Debye-Ang):
   XX=             -7.9673   YY=              4.2578   ZZ=            -14.7096
   XY=             -0.6137   XZ=              0.0000   YZ=              0.0000

 6482812\MP4DQ=-152.6407\MP4SDQ=-152.643779\CCSD=-152.6431822\CCSD(T)=-
 Normal termination of Gaussian 16 at Sat Aug 27 10:14:04 2022.
