 Gaussian 16, Revision A.03,
 Gaussian 16:  ES64L-G16RevA.03 25-Dec-2016

 ------------------
 #p CCSD(T)/cc-pVTZ
 ------------------

 -----------
 H2O_H2O_979
 -----------
 Symbolic Z-matrix:
 Charge =  0 Multiplicity = 1

                         Standard orientation:
 ---------------------------------------------------------------------
 Center     Atomic      Atomic             Coordinates (Angstroms)
 Number     Number       Type             X           Y           Z
 ---------------------------------------------------------------------
      1          8           0        0.014784   -1.320041    0.000000
      2          1           0       -0.785337   -1.890403    0.000000
      3          1           0        0.813805   -1.891942    0.000000
      4          8           0        0.014784    1.323905    0.000000
      5          1           0        0.640021    2.081918    0.000000
      6          1           0       -0.905031    1.669516    0.000000
 ---------------------------------------------------------------------

 SCF Done:  E(RHF) =  -152.096508369     A.U. after   11 cycles
 E2 =    -0.5284800355D+00 EUMP2 =    -0.15262498840500D+03
 CCSD(T)
 CCSD(T)= -0.15265229856D+03

 The electronic state is 1-A'.
 Alpha  occ. eigenvalues --  -20.53427 -20.53320  -1.31095  -1.30472  -0.68442
 Alpha  occ. eigenvalues --   -0.67999  -0.56415  -0.51208  -0.48362  -0.47306
 Alpha virt. eigenvalues --    0.14434   0.17236   0.20549   0.22251   0.50983
 Alpha virt. eigenvalues --    0.58640   0.58821   0.61931   0.71828   0.76594
 Alpha virt. eigenvalues --    0.76798   0.78779   0.81260   0.83668   0.86333

 Mulliken charges:
               1
     1  O   -0.465096
     2  H    0.229125
     3  H    0.235543
     4  O   -0.461127
     5  H    0.227316
     6  H    0.234240
 Sum of Mulliken charges =  -0.00000

 Dipole moment (field-independent basis, Debye):
    X=             -0.4704    Y=             -0.0740    Z=              0.0000  Tot=              0.4762
 Quadrupole moment (field-independent basis, Debye-Ang):
   XX=             -8.0839   YY=             -2.1575   ZZ=            -14.7187
   XY=             -0.2567   XZ=              0.0000   YZ=              0.0000

 Normal termination of Gaussian 16 at Fri Aug 26 21:42:40 2022.
