 Gaussian 16, Revision A.03,
 Gaussian 16:  ES64L-G16RevA.03 25-Dec-2016

 ------------------
 #p CCSD(T)/cc-pVTZ
 ------------------

 ------------
 H2O_H2O_3048
 ------------
 Symbolic Z-matrix:
 Charge =  0 Multiplicity = 1

                         Standard orientation:
 ---------------------------------------------------------------------
 Center     Atomic      Atomic             Coordinates (Angstroms)
 Number     Number       Type             X           Y           Z
 ---------------------------------------------------------------------
      1          8           0        0.057100   -2.354552    0.000000
      2          1           0       -0.743633   -2.924054    0.000000
      3          1           0        0.855505   -2.927312    0.000000
      4          8           0        0.057100    2.461076    0.000000
      5          1           0       -0.458813    3.297342    0.000000
      6          1           0       -0.566653    1.701839    0.000000
 ---------------------------------------------------------------------

 SCF Done:  E(RHF) =  -152.108057079     A.U. after   10 cycles
 E2 =    -0.5259305521D+00 EUMP2 =    -0.15263398763111D+03
 CCSD(T)
 CCSD(T)= -0.15266118191D+03

 The electronic state is 1-A'.
 Alpha  occ. eigenvalues --  -20.55880 -20.54740  -1.33172  -1.32041  -0.70578
 Alpha  occ. eigenvalues --   -0.69426  -0.56643  -0.55499  -0.50288  -0.49161
 Alpha virt. eigenvalues --    0.13314   0.15306   0.19927   0.21441   0.53939
 Alpha virt. eigenvalues --    0.54868   0.56969   0.57955   0.66706   0.70192
 Alpha virt. eigenvalues --    0.78604   0.79638   0.79694   0.80303   0.82806

 Mulliken charges:
               1
     1  O   -0.510897
     2  H    0.253212
     3  H    0.258339
     4  O   -0.511239
     5  H    0.249897
     6  H    0.260687
 Sum of Mulliken charges =   0.00000

 Dipole moment (field-independent basis, Debye):
    X=             -1.9502    Y=             -1.8997    Z=              0.0000  Tot=              2.7225
 Quadrupole moment (field-independent basis, Debye-Ang):
   XX=             -9.8529   YY=              0.1528   ZZ=            -14.7145
   XY=             -4.8640   XZ=              0.0000   YZ=              0.0000

 Normal termination of Gaussian 16 at Fri Aug 26 18:51:38 2022.
