 Gaussian 16, Revision A.03,
 Gaussian 16:  ES64L-G16RevA.03 25-Dec-2016

 ------------------
 #p CCSD(T)/cc-pVTZ
 ------------------

 ------------
 H2O_H2O_1700
 ------------
 Symbolic Z-matrix:
 Charge =  0 Multiplicity = 1

                         Standard orientation:
 ---------------------------------------------------------------------
 Center     Atomic      Atomic             Coordinates (Angstroms)
 Number     Number       Type             X           Y           Z
 ---------------------------------------------------------------------
      1          8           0        0.000000   -0.000000    1.707721
      2          1           0        0.000000    0.799571    2.278853
      3          1           0       -0.000000   -0.799571    2.278853
      4          8           0        0.000000   -0.000000   -1.707721
      5          1           0       -0.000000   -0.799571   -2.278853
      6          1           0        0.000000    0.799571   -2.278853
 ---------------------------------------------------------------------

 SCF Done:  E(RHF) =  -152.103647036     A.U. after   10 cycles
 E2 =    -0.5267603037D+00 EUMP2 =    -0.15263040733979D+03
 CCSD(T)
 CCSD(T)= -0.15265767092D+03

 The electronic state is 1-AG.
 Alpha  occ. eigenvalues --  -20.54211 -20.54211  -1.31528  -1.31455  -0.68950
 Alpha  occ. eigenvalues --   -0.68888  -0.55336  -0.54103  -0.48677  -0.48485
 Alpha virt. eigenvalues --    0.14276   0.16206   0.20604   0.21490   0.53075
 Alpha virt. eigenvalues --    0.58049   0.58085   0.58461   0.61394   0.75939
 Alpha virt. eigenvalues --    0.78837   0.79145   0.80042   0.81500   0.84478

 Mulliken charges:
               1
     1  O   -0.482665
     2  H    0.241332
     3  H    0.241332
     4  O   -0.482665
     5  H    0.241332
     6  H    0.241332
 Sum of Mulliken charges =  -0.00000

 Dipole moment (field-independent basis, Debye):
    X=             -0.0000    Y=              0.0000    Z=              0.0000  Tot=              0.0000
 Quadrupole moment (field-independent basis, Debye-Ang):
   XX=            -14.7087   YY=             -7.8637   ZZ=              1.3979
   XY=              0.0000   XZ=              0.0000   YZ=             -0.0000

 \MP4DQ=-152.6394078\MP4SDQ=-152.6425216\CCSD=-152.6419106\CCSD(T)=-152
 Normal termination of Gaussian 16 at Sat Aug 27 06:17:37 2022.
