 Gaussian 16, Revision A.03,
 Gaussian 16:  ES64L-G16RevA.03 25-Dec-2016

 ------------------
 #p CCSD(T)/cc-pVTZ
 ------------------

 -----------
 H2O_H2O_245
 -----------
 Symbolic Z-matrix:
 Charge =  0 Multiplicity = 1

                         Standard orientation:
 ---------------------------------------------------------------------
 Center     Atomic      Atomic             Coordinates (Angstroms)
 Number     Number       Type             X           Y           Z
 ---------------------------------------------------------------------
      1          8           0        0.055385   -0.877584    0.000000
      2          1           0       -0.747125   -1.444580    0.000000
      3          1           0        0.851996   -1.452838    0.000000
      4          8           0        0.055385    0.961676    0.000000
      5          1           0       -0.284586    1.883590    0.000000
      6          1           0       -0.706445    0.341095    0.000000
 ---------------------------------------------------------------------

 SCF Done:  E(RHF) =  -152.004875736     A.U. after   11 cycles
 E2 =    -0.5422216147D+00 EUMP2 =    -0.15254709735035D+03
 CCSD(T)
 CCSD(T)= -0.15257291452D+03

 The electronic state is 1-A'.
 Alpha  occ. eigenvalues --  -20.55268 -20.49676  -1.37589  -1.26996  -0.75242
 Alpha  occ. eigenvalues --   -0.70751  -0.53146  -0.52855  -0.46457  -0.43936
 Alpha virt. eigenvalues --    0.13269   0.18865   0.19629   0.25642   0.50414
 Alpha virt. eigenvalues --    0.55055   0.61768   0.66580   0.72842   0.76035
 Alpha virt. eigenvalues --    0.79860   0.80045   0.84031   0.85045   0.88282

 Mulliken charges:
               1
     1  O   -0.354327
     2  H    0.179694
     3  H    0.221307
     4  O   -0.457468
     5  H    0.155512
     6  H    0.255281
 Sum of Mulliken charges =  -0.00000

 Dipole moment (field-independent basis, Debye):
    X=             -1.5264    Y=             -1.9635    Z=              0.0000  Tot=              2.4870
 Quadrupole moment (field-independent basis, Debye-Ang):
   XX=             -9.7766   YY=             -7.5340   ZZ=            -14.6202
   XY=             -1.5412   XZ=              0.0000   YZ=              0.0000

 Normal termination of Gaussian 16 at Fri Aug 26 14:27:28 2022.
