 Gaussian 16, Revision A.03,
 Gaussian 16:  ES64L-G16RevA.03 25-Dec-2016

 ------------------
 #p CCSD(T)/cc-pVTZ
 ------------------

 ------------
 H2O_H2O_1181
 ------------
 Symbolic Z-matrix:
 Charge =  0 Multiplicity = 1

                         Standard orientation:
 ---------------------------------------------------------------------
 Center     Atomic      Atomic             Coordinates (Angstroms)
 Number     Number       Type             X           Y           Z
 ---------------------------------------------------------------------
      1          8           0        0.021862   -1.423815    0.000000
      2          1           0       -0.778461   -1.993893    0.000000
      3          1           0        0.820680   -1.996000    0.000000
      4          8           0        0.021862    1.432452    0.000000
      5          1           0        0.543105    2.265406    0.000000
      6          1           0       -0.935115    1.655387    0.000000
 ---------------------------------------------------------------------

 SCF Done:  E(RHF) =  -152.100402200     A.U. after   11 cycles
 E2 =    -0.5277489567D+00 EUMP2 =    -0.15262815115625D+03
 CCSD(T)
 CCSD(T)= -0.15265544481D+03

 The electronic state is 1-A'.
 Alpha  occ. eigenvalues --  -20.53859 -20.53635  -1.31288  -1.30862  -0.68690
 Alpha  occ. eigenvalues --   -0.68330  -0.55886  -0.52512  -0.48502  -0.47795
 Alpha virt. eigenvalues --    0.14320   0.16906   0.20511   0.22123   0.51807
 Alpha virt. eigenvalues --    0.58406   0.58694   0.60230   0.68479   0.76512
 Alpha virt. eigenvalues --    0.77235   0.78395   0.79627   0.83101   0.86082

 Mulliken charges:
               1
     1  O   -0.471816
     2  H    0.231821
     3  H    0.239919
     4  O   -0.467199
     5  H    0.229437
     6  H    0.237838
 Sum of Mulliken charges =  -0.00000

 Dipole moment (field-independent basis, Debye):
    X=             -0.7076    Y=             -0.1642    Z=              0.0000  Tot=              0.7264
 Quadrupole moment (field-independent basis, Debye-Ang):
   XX=             -8.2076   YY=             -1.2256   ZZ=            -14.7135
   XY=             -0.4825   XZ=              0.0000   YZ=              0.0000

 Normal termination of Gaussian 16 at Sat Aug 27 02:47:15 2022.
