 Gaussian 16, Revision A.03,
 Gaussian 16:  ES64L-G16RevA.03 25-Dec-2016

 ------------------
 #p CCSD(T)/cc-pVTZ
 ------------------

 ------------
 H2O_H2O_3464
 ------------
 Symbolic Z-matrix:
 Charge =  0 Multiplicity = 1

                         Standard orientation:
 ---------------------------------------------------------------------
 Center     Atomic      Atomic             Coordinates (Angstroms)
 Number     Number       Type             X           Y           Z
 ---------------------------------------------------------------------
      1          8           0        0.045344   -2.614236    0.000000
      2          1           0       -0.755071   -3.184185    0.000000
      3          1           0        0.844069   -3.186550    0.000000
      4          8           0        0.045344    2.658792    0.000000
      5          1           0        0.080436    3.640767    0.000000
      6          1           0       -0.894937    2.373522    0.000000
 ---------------------------------------------------------------------

 SCF Done:  E(RHF) =  -152.106943979     A.U. after   10 cycles
 E2 =    -0.5259478696D+00 EUMP2 =    -0.15263289184896D+03
 CCSD(T)
 CCSD(T)= -0.15266011988D+03

 The electronic state is 1-A'.
 Alpha  occ. eigenvalues --  -20.55336 -20.54959  -1.32633  -1.32253  -0.70040
 Alpha  occ. eigenvalues --   -0.69651  -0.56058  -0.55678  -0.49741  -0.49363
 Alpha virt. eigenvalues --    0.14150   0.14801   0.20318   0.20796   0.54492
 Alpha virt. eigenvalues --    0.54931   0.57401   0.57773   0.67681   0.69111
 Alpha virt. eigenvalues --    0.79139   0.79509   0.80558   0.80947   0.82633

 Mulliken charges:
               1
     1  O   -0.506160
     2  H    0.251374
     3  H    0.254807
     4  O   -0.505773
     5  H    0.250146
     6  H    0.255605
 Sum of Mulliken charges =  -0.00000

 Dipole moment (field-independent basis, Debye):
    X=             -1.5525    Y=             -0.7847    Z=              0.0000  Tot=              1.7396
 Quadrupole moment (field-independent basis, Debye-Ang):
   XX=             -9.0983   YY=              6.1663   ZZ=            -14.7113
   XY=             -3.3317   XZ=              0.0000   YZ=              0.0000

 Normal termination of Gaussian 16 at Fri Aug 26 22:33:52 2022.
