 Gaussian 16, Revision A.03,
 Gaussian 16:  ES64L-G16RevA.03 25-Dec-2016

 ------------------
 #p CCSD(T)/cc-pVTZ
 ------------------

 ------------
 H2O_H2O_4279
 ------------
 Symbolic Z-matrix:
 Charge =  0 Multiplicity = 1

                         Standard orientation:
 ---------------------------------------------------------------------
 Center     Atomic      Atomic             Coordinates (Angstroms)
 Number     Number       Type             X           Y           Z
 ---------------------------------------------------------------------
      1          8           0        0.014783   -3.075092    0.000000
      2          1           0       -0.785024   -3.645894    0.000000
      3          1           0        0.814118   -3.646555    0.000000
      4          8           0        0.014783    3.078972    0.000000
      5          1           0        0.639603    3.837330    0.000000
      6          1           0       -0.905222    3.424080    0.000000
 ---------------------------------------------------------------------

 SCF Done:  E(RHF) =  -152.106790808     A.U. after   10 cycles
 E2 =    -0.5259348649D+00 EUMP2 =    -0.15263272567242D+03
 CCSD(T)
 CCSD(T)= -0.15265995883D+03

 The electronic state is 1-A'.
 Alpha  occ. eigenvalues --  -20.55184 -20.55161  -1.32480  -1.32456  -0.69887
 Alpha  occ. eigenvalues --   -0.69863  -0.55899  -0.55875  -0.49587  -0.49563
 Alpha virt. eigenvalues --    0.14429   0.14477   0.20481   0.20512   0.54681
 Alpha virt. eigenvalues --    0.54709   0.57545   0.57571   0.68302   0.68401
 Alpha virt. eigenvalues --    0.79292   0.79315   0.80736   0.80762   0.82665

 Mulliken charges:
               1
     1  O   -0.505226
     2  H    0.252252
     3  H    0.252975
     4  O   -0.505200
     5  H    0.252093
     6  H    0.253107
 Sum of Mulliken charges =  -0.00000

 Dipole moment (field-independent basis, Debye):
    X=             -0.5077    Y=             -0.0678    Z=              0.0000  Tot=              0.5122
 Quadrupole moment (field-independent basis, Debye-Ang):
   XX=             -7.9413   YY=             12.2957   ZZ=            -14.7106
   XY=             -1.1179   XZ=              0.0000   YZ=              0.0000

 Normal termination of Gaussian 16 at Sat Aug 27 06:24:53 2022.
