 Gaussian 16, Revision A.03,
 Gaussian 16:  ES64L-G16RevA.03 25-Dec-2016

 ------------------
 #p CCSD(T)/cc-pVTZ
 ------------------

 ------------
 H2O_H2O_1439
 ------------
 Symbolic Z-matrix:
 Charge =  0 Multiplicity = 1

                         Standard orientation:
 ---------------------------------------------------------------------
 Center     Atomic      Atomic             Coordinates (Angstroms)
 Number     Number       Type             X           Y           Z
 ---------------------------------------------------------------------
      1          8           0        0.045367   -1.537315    0.000000
      2          1           0       -0.755630   -2.106446    0.000000
      3          1           0        0.843507   -2.110445    0.000000
      4          8           0        0.045367    1.581778    0.000000
      5          1           0        0.081462    2.563717    0.000000
      6          1           0       -0.895205    1.297471    0.000000
 ---------------------------------------------------------------------

 SCF Done:  E(RHF) =  -152.104969979     A.U. after   10 cycles
 E2 =    -0.5271367001D+00 EUMP2 =    -0.15263210667909D+03
 CCSD(T)
 CCSD(T)= -0.15265931378D+03

 The electronic state is 1-A'.
 Alpha  occ. eigenvalues --  -20.54955 -20.53823  -1.32254  -1.31076  -0.69679
 Alpha  occ. eigenvalues --   -0.68478  -0.55844  -0.54083  -0.49374  -0.48167
 Alpha virt. eigenvalues --    0.13799   0.16690   0.20182   0.22646   0.53874
 Alpha virt. eigenvalues --    0.56211   0.57684   0.58524   0.65791   0.76273
 Alpha virt. eigenvalues --    0.77498   0.77623   0.79448   0.82079   0.85278

 Mulliken charges:
               1
     1  O   -0.484025
     2  H    0.237414
     3  H    0.249804
     4  O   -0.485870
     5  H    0.232280
     6  H    0.250397
 Sum of Mulliken charges =  -0.00000

 Dipole moment (field-independent basis, Debye):
    X=             -1.4878    Y=             -0.8450    Z=              0.0000  Tot=              1.7110
 Quadrupole moment (field-independent basis, Debye-Ang):
   XX=             -9.1383   YY=             -1.0073   ZZ=            -14.7155
   XY=             -1.6954   XZ=              0.0000   YZ=              0.0000

 Normal termination of Gaussian 16 at Sat Aug 27 04:46:19 2022.
