 Gaussian 16, Revision A.03,
 Gaussian 16:  ES64L-G16RevA.03 25-Dec-2016

 ------------------
 #p CCSD(T)/cc-pVTZ
 ------------------

 -----------
 H2O_H2O_346
 -----------
 Symbolic Z-matrix:
 Charge =  0 Multiplicity = 1

                         Standard orientation:
 ---------------------------------------------------------------------
 Center     Atomic      Atomic             Coordinates (Angstroms)
 Number     Number       Type             X           Y           Z
 ---------------------------------------------------------------------
      1          8           0        0.056243   -0.926808    0.000000
      2          1           0       -0.746150   -1.493968    0.000000
      3          1           0        0.852972   -1.501897    0.000000
      4          8           0        0.056243    1.018193    0.000000
      5          1           0       -0.343480    1.915816    0.000000
      6          1           0       -0.663231    0.348966    0.000000
 ---------------------------------------------------------------------

 SCF Done:  E(RHF) =  -152.034836441     A.U. after   11 cycles
 E2 =    -0.5391460973D+00 EUMP2 =    -0.15257398253846D+03
 CCSD(T)
 CCSD(T)= -0.15260008183D+03

 The electronic state is 1-A'.
 Alpha  occ. eigenvalues --  -20.55880 -20.49720  -1.36858  -1.27357  -0.74534
 Alpha  occ. eigenvalues --   -0.70508  -0.52829  -0.52395  -0.49134  -0.44291
 Alpha virt. eigenvalues --    0.13118   0.18827   0.19514   0.26150   0.50086
 Alpha virt. eigenvalues --    0.55018   0.62077   0.66269   0.72541   0.75351
 Alpha virt. eigenvalues --    0.79241   0.80363   0.83897   0.85222   0.87963

 Mulliken charges:
               1
     1  O   -0.372735
     2  H    0.193076
     3  H    0.230361
     4  O   -0.482149
     5  H    0.173149
     6  H    0.258299
 Sum of Mulliken charges =  -0.00000

 Dipole moment (field-independent basis, Debye):
    X=             -1.5971    Y=             -2.1361    Z=              0.0000  Tot=              2.6672
 Quadrupole moment (field-independent basis, Debye-Ang):
   XX=             -9.8050   YY=             -7.0553   ZZ=            -14.6396
   XY=             -1.8120   XZ=              0.0000   YZ=              0.0000

 Normal termination of Gaussian 16 at Fri Aug 26 15:30:59 2022.
