 Gaussian 16, Revision A.03,
 Gaussian 16:  ES64L-G16RevA.03 25-Dec-2016

 ------------------
 #p CCSD(T)/cc-pVTZ
 ------------------

 ------------
 H2O_H2O_2167
 ------------
 Symbolic Z-matrix:
 Charge =  0 Multiplicity = 1

                         Standard orientation:
 ---------------------------------------------------------------------
 Center     Atomic      Atomic             Coordinates (Angstroms)
 Number     Number       Type             X           Y           Z
 ---------------------------------------------------------------------
      1          8           0        0.051295   -1.912574    0.000000
      2          1           0       -0.749569   -2.481891    0.000000
      3          1           0        0.849569   -2.485517    0.000000
      4          8           0        0.051295    1.976046    0.000000
      5          1           0       -0.105096    2.946123    0.000000
      6          1           0       -0.815630    1.513503    0.000000
 ---------------------------------------------------------------------

 SCF Done:  E(RHF) =  -152.107094359     A.U. after   10 cycles
 E2 =    -0.5262649593D+00 EUMP2 =    -0.15263335931791D+03
 CCSD(T)
 CCSD(T)= -0.15266055270D+03

 The electronic state is 1-A'.
 Alpha  occ. eigenvalues --  -20.55454 -20.54366  -1.32732  -1.31647  -0.70145
 Alpha  occ. eigenvalues --   -0.69024  -0.56144  -0.55057  -0.49843  -0.48764
 Alpha virt. eigenvalues --    0.13416   0.15982   0.20101   0.22090   0.53847
 Alpha virt. eigenvalues --    0.54597   0.57338   0.58436   0.64930   0.75251
 Alpha virt. eigenvalues --    0.78821   0.79235   0.80287   0.81172   0.84338

 Mulliken charges:
               1
     1  O   -0.500814
     2  H    0.247095
     3  H    0.255541
     4  O   -0.504067
     5  H    0.244233
     6  H    0.258012
 Sum of Mulliken charges =   0.00000

 Dipole moment (field-independent basis, Debye):
    X=             -1.7287    Y=             -1.1632    Z=              0.0000  Tot=              2.0836
 Quadrupole moment (field-independent basis, Debye-Ang):
   XX=             -9.4634   YY=              0.7067   ZZ=            -14.7140
   XY=             -2.8777   XZ=              0.0000   YZ=              0.0000

 Normal termination of Gaussian 16 at Sat Aug 27 08:58:09 2022.
