 Gaussian 16, Revision A.03,
 Gaussian 16:  ES64L-G16RevA.03 25-Dec-2016

 ------------------
 #p CCSD(T)/cc-pVTZ
 ------------------

 ------------
 H2O_H2O_3312
 ------------
 Symbolic Z-matrix:
 Charge =  0 Multiplicity = 1

                         Standard orientation:
 ---------------------------------------------------------------------
 Center     Atomic      Atomic             Coordinates (Angstroms)
 Number     Number       Type             X           Y           Z
 ---------------------------------------------------------------------
      1          8           0        0.040408   -2.540548    0.000000
      2          1           0       -0.759939   -3.110593    0.000000
      3          1           0        0.839202   -3.112767    0.000000
      4          8           0        0.040408    2.573895    0.000000
      5          1           0        0.203256    3.542907    0.000000
      6          1           0       -0.929045    2.413681    0.000000
 ---------------------------------------------------------------------

 SCF Done:  E(RHF) =  -152.106725398     A.U. after   10 cycles
 E2 =    -0.5259730531D+00 EUMP2 =    -0.15263269845131D+03
 CCSD(T)
 CCSD(T)= -0.15265993077D+03

 The electronic state is 1-A'.
 Alpha  occ. eigenvalues --  -20.55226 -20.54927  -1.32521  -1.32219  -0.69930
 Alpha  occ. eigenvalues --   -0.69619  -0.55935  -0.55635  -0.49627  -0.49327
 Alpha virt. eigenvalues --    0.14207   0.14853   0.20387   0.20804   0.54584
 Alpha virt. eigenvalues --    0.54975   0.57493   0.57793   0.67572   0.69444
 Alpha virt. eigenvalues --    0.79251   0.79546   0.80665   0.81025   0.82723

 Mulliken charges:
               1
     1  O   -0.504868
     2  H    0.250775
     3  H    0.254113
     4  O   -0.504494
     5  H    0.249731
     6  H    0.254743
 Sum of Mulliken charges =  -0.00000

 Dipole moment (field-independent basis, Debye):
    X=             -1.3821    Y=             -0.5881    Z=              0.0000  Tot=              1.5020
 Quadrupole moment (field-independent basis, Debye-Ang):
   XX=             -8.8338   YY=              6.4014   ZZ=            -14.7109
   XY=             -2.7180   XZ=              0.0000   YZ=              0.0000

 Normal termination of Gaussian 16 at Fri Aug 26 21:16:41 2022.
