 Gaussian 16, Revision A.03,
 Gaussian 16:  ES64L-G16RevA.03 25-Dec-2016

 ------------------
 #p CCSD(T)/cc-pVTZ
 ------------------

 ------------
 H2O_H2O_4988
 ------------
 Symbolic Z-matrix:
 Charge =  0 Multiplicity = 1

                         Standard orientation:
 ---------------------------------------------------------------------
 Center     Atomic      Atomic             Coordinates (Angstroms)
 Number     Number       Type             X           Y           Z
 ---------------------------------------------------------------------
      1          8           0        0.042961   -3.428402    0.000000
      2          1           0       -0.757222   -3.998677    0.000000
      3          1           0        0.841919   -4.000391    0.000000
      4          8           0        0.042961    3.467222    0.000000
      5          1           0        0.141803    4.444839    0.000000
      6          1           0       -0.913873    3.243672    0.000000
 ---------------------------------------------------------------------

 SCF Done:  E(RHF) =  -152.107201787     A.U. after   10 cycles
 E2 =    -0.5258920220D+00 EUMP2 =    -0.15263309380927D+03
 CCSD(T)
 CCSD(T)= -0.15266031865D+03

 The electronic state is 1-A'.
 Alpha  occ. eigenvalues --  -20.55437 -20.55250  -1.32735  -1.32546  -0.70141
 Alpha  occ. eigenvalues --   -0.69950  -0.56173  -0.55984  -0.49845  -0.49657
 Alpha virt. eigenvalues --    0.14223   0.14410   0.20287   0.20483   0.54424
 Alpha virt. eigenvalues --    0.54622   0.57323   0.57511   0.68033   0.68223
 Alpha virt. eigenvalues --    0.79035   0.79220   0.80471   0.80672   0.82395

 Mulliken charges:
               1
     1  O   -0.507656
     2  H    0.253076
     3  H    0.254579
     4  O   -0.507539
     5  H    0.252542
     6  H    0.254997
 Sum of Mulliken charges =  -0.00000

 Dipole moment (field-independent basis, Debye):
    X=             -1.4780    Y=             -0.6761    Z=              0.0000  Tot=              1.6253
 Quadrupole moment (field-independent basis, Debye-Ang):
   XX=             -8.9641   YY=             11.9683   ZZ=            -14.7114
   XY=             -4.2664   XZ=              0.0000   YZ=              0.0000

 Normal termination of Gaussian 16 at Sat Aug 27 10:30:09 2022.
