 Gaussian 16, Revision A.03,
 Gaussian 16:  ES64L-G16RevA.03 25-Dec-2016

 ------------------
 #p CCSD(T)/cc-pVTZ
 ------------------

 -----------
 H2O_H2O_260
 -----------
 Symbolic Z-matrix:
 Charge =  0 Multiplicity = 1

                         Standard orientation:
 ---------------------------------------------------------------------
 Center     Atomic      Atomic             Coordinates (Angstroms)
 Number     Number       Type             X           Y           Z
 ---------------------------------------------------------------------
      1          8           0        0.034806   -0.923856    0.000000
      2          1           0       -0.766588   -1.492427    0.000000
      3          1           0        0.832546   -1.497543    0.000000
      4          8           0        0.034806    0.947238    0.000000
      5          1           0        0.324471    1.886174    0.000000
      6          1           0       -0.947323    0.916741    0.000000
 ---------------------------------------------------------------------

 SCF Done:  E(RHF) =  -152.027800735     A.U. after   11 cycles
 E2 =    -0.5386608878D+00 EUMP2 =    -0.15256646162272D+03
 CCSD(T)
 CCSD(T)= -0.15259286978D+03

 The electronic state is 1-A'.
 Alpha  occ. eigenvalues --  -20.52356 -20.51592  -1.33608  -1.27979  -0.70254
 Alpha  occ. eigenvalues --   -0.67552  -0.60305  -0.50461  -0.44504  -0.42459
 Alpha virt. eigenvalues --    0.14351   0.18482   0.20100   0.23469   0.53203
 Alpha virt. eigenvalues --    0.57048   0.58609   0.64731   0.71291   0.77588
 Alpha virt. eigenvalues --    0.79520   0.82388   0.83503   0.85530   0.88418

 Mulliken charges:
               1
     1  O   -0.418138
     2  H    0.198134
     3  H    0.217968
     4  O   -0.387631
     5  H    0.158831
     6  H    0.230836
 Sum of Mulliken charges =  -0.00000

 Dipole moment (field-independent basis, Debye):
    X=             -0.9835    Y=             -0.5046    Z=              0.0000  Tot=              1.1054
 Quadrupole moment (field-independent basis, Debye-Ang):
   XX=             -8.8544   YY=             -6.6817   ZZ=            -14.7215
   XY=             -0.4626   XZ=              0.0000   YZ=              0.0000

 Normal termination of Gaussian 16 at Fri Aug 26 14:38:00 2022.
