 Gaussian 16, Revision A.03,
 Gaussian 16:  ES64L-G16RevA.03 25-Dec-2016

 ------------------
 #p CCSD(T)/cc-pVTZ
 ------------------

 ------------
 H2O_H2O_2281
 ------------
 Symbolic Z-matrix:
 Charge =  0 Multiplicity = 1

                         Standard orientation:
 ---------------------------------------------------------------------
 Center     Atomic      Atomic             Coordinates (Angstroms)
 Number     Number       Type             X           Y           Z
 ---------------------------------------------------------------------
      1          8           0        0.021860   -2.008826    0.000000
      2          1           0       -0.778244   -2.579211    0.000000
      3          1           0        0.820897   -2.580705    0.000000
      4          8           0        0.021860    2.017480    0.000000
      5          1           0        0.542784    2.850634    0.000000
      6          1           0       -0.935202    2.240049    0.000000
 ---------------------------------------------------------------------

 SCF Done:  E(RHF) =  -152.105382621     A.U. after   10 cycles
 E2 =    -0.5262675341D+00 EUMP2 =    -0.15263165015549D+03
 CCSD(T)
 CCSD(T)= -0.15265889382D+03

 The electronic state is 1-A'.
 Alpha  occ. eigenvalues --  -20.54689 -20.54560  -1.31973  -1.31842  -0.69389
 Alpha  occ. eigenvalues --   -0.69253  -0.55415  -0.55066  -0.49075  -0.48938
 Alpha virt. eigenvalues --    0.14123   0.15611   0.20564   0.21156   0.54172
 Alpha virt. eigenvalues --    0.55890   0.57862   0.58130   0.63011   0.74495
 Alpha virt. eigenvalues --    0.79493   0.80220   0.80631   0.81214   0.82250

 Mulliken charges:
               1
     1  O   -0.495600
     2  H    0.246154
     3  H    0.249560
     4  O   -0.495394
     5  H    0.245524
     6  H    0.249756
 Sum of Mulliken charges =  -0.00000

 Dipole moment (field-independent basis, Debye):
    X=             -0.7390    Y=             -0.1567    Z=              0.0000  Tot=              0.7554
 Quadrupole moment (field-independent basis, Debye-Ang):
   XX=             -8.1307   YY=              3.6493   ZZ=            -14.7098
   XY=             -0.9012   XZ=              0.0000   YZ=              0.0000

 Normal termination of Gaussian 16 at Sat Aug 27 09:37:53 2022.
