 Gaussian 16, Revision A.03,
 Gaussian 16:  ES64L-G16RevA.03 25-Dec-2016

 ------------------
 #p CCSD(T)/cc-pVTZ
 ------------------

 -----------
 H2O_H2O_590
 -----------
 Symbolic Z-matrix:
 Charge =  0 Multiplicity = 1

                         Standard orientation:
 ---------------------------------------------------------------------
 Center     Atomic      Atomic             Coordinates (Angstroms)
 Number     Number       Type             X           Y           Z
 ---------------------------------------------------------------------
      1          8           0        0.047581   -1.082020    0.000000
      2          1           0       -0.754093   -1.650196    0.000000
      3          1           0        0.845038   -1.656100    0.000000
      4          8           0        0.047581    1.132434    0.000000
      5          1           0        0.020547    2.114665    0.000000
      6          1           0       -0.872793    0.788315    0.000000
 ---------------------------------------------------------------------

 SCF Done:  E(RHF) =  -152.083052509     A.U. after   11 cycles
 E2 =    -0.5319148732D+00 EUMP2 =    -0.15261496738199D+03
 CCSD(T)
 CCSD(T)= -0.15264201455D+03

 The electronic state is 1-A'.
 Alpha  occ. eigenvalues --  -20.54244 -20.52281  -1.32735  -1.29386  -0.70038
 Alpha  occ. eigenvalues --   -0.67997  -0.56782  -0.49943  -0.49830  -0.46230
 Alpha virt. eigenvalues --    0.13915   0.17928   0.20016   0.23897   0.52848
 Alpha virt. eigenvalues --    0.57458   0.58827   0.61967   0.71444   0.75308
 Alpha virt. eigenvalues --    0.79161   0.82329   0.83174   0.85024   0.87839

 Mulliken charges:
               1
     1  O   -0.451873
     2  H    0.218529
     3  H    0.238260
     4  O   -0.443398
     5  H    0.193694
     6  H    0.244787
 Sum of Mulliken charges =  -0.00000

 Dipole moment (field-independent basis, Debye):
    X=             -1.4295    Y=             -1.0155    Z=              0.0000  Tot=              1.7535
 Quadrupole moment (field-independent basis, Debye-Ang):
   XX=             -9.3436   YY=             -4.8048   ZZ=            -14.7213
   XY=             -1.1769   XZ=              0.0000   YZ=              0.0000

 Normal termination of Gaussian 16 at Fri Aug 26 17:55:36 2022.
