 Gaussian 16, Revision A.03,
 Gaussian 16:  ES64L-G16RevA.03 25-Dec-2016

 ------------------
 #p CCSD(T)/cc-pVTZ
 ------------------

 ------------
 H2O_H2O_4176
 ------------
 Symbolic Z-matrix:
 Charge =  0 Multiplicity = 1

                         Standard orientation:
 ---------------------------------------------------------------------
 Center     Atomic      Atomic             Coordinates (Angstroms)
 Number     Number       Type             X           Y           Z
 ---------------------------------------------------------------------
      1          8           0        0.003735   -3.023884    0.000000
      2          1           0       -0.795896   -3.594931    0.000000
      3          1           0        0.803246   -3.595101    0.000000
      4          8           0        0.003735    3.024127    0.000000
      5          1           0        0.764308    3.646250    0.000000
      6          1           0       -0.831423    3.541831    0.000000
 ---------------------------------------------------------------------

 SCF Done:  E(RHF) =  -152.106722295     A.U. after   10 cycles
 E2 =    -0.5259421573D+00 EUMP2 =    -0.15263266445248D+03
 CCSD(T)
 CCSD(T)= -0.15265989899D+03

 The electronic state is 1-A'.
 Alpha  occ. eigenvalues --  -20.55147 -20.55145  -1.32442  -1.32441  -0.69850
 Alpha  occ. eigenvalues --   -0.69848  -0.55858  -0.55856  -0.49548  -0.49547
 Alpha virt. eigenvalues --    0.14451   0.14498   0.20504   0.20524   0.54715
 Alpha virt. eigenvalues --    0.54728   0.57574   0.57584   0.68323   0.68451
 Alpha virt. eigenvalues --    0.79330   0.79332   0.80775   0.80778   0.82705

 Mulliken charges:
               1
     1  O   -0.504821
     2  H    0.252314
     3  H    0.252506
     4  O   -0.504819
     5  H    0.252278
     6  H    0.252542
 Sum of Mulliken charges =  -0.00000

 Dipole moment (field-independent basis, Debye):
    X=             -0.1282    Y=             -0.0043    Z=              0.0000  Tot=              0.1283
 Quadrupole moment (field-independent basis, Debye-Ang):
   XX=             -7.8134   YY=             12.1389   ZZ=            -14.7105
   XY=             -0.2715   XZ=              0.0000   YZ=              0.0000

 Normal termination of Gaussian 16 at Sat Aug 27 05:48:58 2022.
