 Gaussian 16, Revision A.03,
 Gaussian 16:  ES64L-G16RevA.03 25-Dec-2016

 ------------------
 #p CCSD(T)/cc-pVTZ
 ------------------

 -----------
 H2O_H2O_645
 -----------
 Symbolic Z-matrix:
 Charge =  0 Multiplicity = 1

                         Standard orientation:
 ---------------------------------------------------------------------
 Center     Atomic      Atomic             Coordinates (Angstroms)
 Number     Number       Type             X           Y           Z
 ---------------------------------------------------------------------
      1          8           0        0.055344   -1.090263    0.000000
      2          1           0       -0.746615   -1.658037    0.000000
      3          1           0        0.852513   -1.664743    0.000000
      4          8           0        0.055344    1.174462    0.000000
      5          1           0       -0.285521    2.096047    0.000000
      6          1           0       -0.705883    0.553142    0.000000
 ---------------------------------------------------------------------

 SCF Done:  E(RHF) =  -152.087326617     A.U. after   11 cycles
 E2 =    -0.5322170028D+00 EUMP2 =    -0.15261954361961D+03
 CCSD(T)
 CCSD(T)= -0.15264641518D+03

 The electronic state is 1-A'.
 Alpha  occ. eigenvalues --  -20.55785 -20.51633  -1.34210  -1.29027  -0.71592
 Alpha  occ. eigenvalues --   -0.68653  -0.55089  -0.52103  -0.51113  -0.46014
 Alpha virt. eigenvalues --    0.13333   0.18338   0.19560   0.25433   0.51150
 Alpha virt. eigenvalues --    0.56336   0.60747   0.62418   0.71790   0.74180
 Alpha virt. eigenvalues --    0.78007   0.82603   0.83926   0.84462   0.87374

 Mulliken charges:
               1
     1  O   -0.440227
     2  H    0.220327
     3  H    0.243224
     4  O   -0.482554
     5  H    0.203147
     6  H    0.256083
 Sum of Mulliken charges =  -0.00000

 Dipole moment (field-independent basis, Debye):
    X=             -1.6787    Y=             -1.7907    Z=              0.0000  Tot=              2.4545
 Quadrupole moment (field-independent basis, Debye-Ang):
   XX=             -9.7583   YY=             -5.3462   ZZ=            -14.7066
   XY=             -1.9863   XZ=              0.0000   YZ=              0.0000

 Normal termination of Gaussian 16 at Fri Aug 26 18:37:59 2022.
