 Gaussian 16, Revision A.03,
 Gaussian 16:  ES64L-G16RevA.03 25-Dec-2016

 ------------------
 #p CCSD(T)/cc-pVTZ
 ------------------

 ------------
 H2O_H2O_1119
 ------------
 Symbolic Z-matrix:
 Charge =  0 Multiplicity = 1

                         Standard orientation:
 ---------------------------------------------------------------------
 Center     Atomic      Atomic             Coordinates (Angstroms)
 Number     Number       Type             X           Y           Z
 ---------------------------------------------------------------------
      1          8           0        0.054212   -1.346718    0.000000
      2          1           0       -0.747274   -1.915159    0.000000
      3          1           0        0.851859   -1.920533    0.000000
      4          8           0        0.054212    1.423863    0.000000
      5          1           0       -0.226434    2.365535    0.000000
      6          1           0       -0.745547    0.852994    0.000000
 ---------------------------------------------------------------------

 SCF Done:  E(RHF) =  -152.105117692     A.U. after   10 cycles
 E2 =    -0.5281590626D+00 EUMP2 =    -0.15263327675485D+03
 CCSD(T)
 CCSD(T)= -0.15266040058D+03

 The electronic state is 1-A'.
 Alpha  occ. eigenvalues --  -20.55749 -20.53092  -1.33171  -1.30374  -0.70580
 Alpha  occ. eigenvalues --   -0.68034  -0.56357  -0.53677  -0.50280  -0.47466
 Alpha virt. eigenvalues --    0.13415   0.17396   0.19810   0.24309   0.52812
 Alpha virt. eigenvalues --    0.56994   0.57609   0.58979   0.70090   0.75166
 Alpha virt. eigenvalues --    0.75446   0.79090   0.81694   0.82543   0.84580

 Mulliken charges:
               1
     1  O   -0.480603
     2  H    0.237121
     3  H    0.254486
     4  O   -0.494413
     5  H    0.226730
     6  H    0.256679
 Sum of Mulliken charges =  -0.00000

 Dipole moment (field-independent basis, Debye):
    X=             -1.7388    Y=             -1.5291    Z=              0.0000  Tot=              2.3155
 Quadrupole moment (field-independent basis, Debye-Ang):
   XX=             -9.6759   YY=             -3.2961   ZZ=            -14.7245
   XY=             -2.2782   XZ=              0.0000   YZ=              0.0000

 Normal termination of Gaussian 16 at Sat Aug 27 02:16:51 2022.
