 Gaussian 16, Revision A.03,
 Gaussian 16:  ES64L-G16RevA.03 25-Dec-2016

 ------------------
 #p CCSD(T)/cc-pVTZ
 ------------------

 ------------
 H2O_H2O_3813
 ------------
 Symbolic Z-matrix:
 Charge =  0 Multiplicity = 1

                         Standard orientation:
 ---------------------------------------------------------------------
 Center     Atomic      Atomic             Coordinates (Angstroms)
 Number     Number       Type             X           Y           Z
 ---------------------------------------------------------------------
      1          8           0        0.042965   -2.803505    0.000000
      2          1           0       -0.757353   -3.373590    0.000000
      3          1           0        0.841788   -3.375684    0.000000
      4          8           0        0.042965    2.842305    0.000000
      5          1           0        0.142040    3.819899    0.000000
      6          1           0       -0.913922    2.618981    0.000000
 ---------------------------------------------------------------------

 SCF Done:  E(RHF) =  -152.106972721     A.U. after   10 cycles
 E2 =    -0.5259308618D+00 EUMP2 =    -0.15263290358286D+03
 CCSD(T)
 CCSD(T)= -0.15266013211D+03

 The electronic state is 1-A'.
 Alpha  occ. eigenvalues --  -20.55334 -20.55050  -1.32631  -1.32345  -0.70038
 Alpha  occ. eigenvalues --   -0.69746  -0.56058  -0.55772  -0.49739  -0.49455
 Alpha virt. eigenvalues --    0.14251   0.14637   0.20345   0.20673   0.54520
 Alpha virt. eigenvalues --    0.54838   0.57407   0.57694   0.67997   0.68633
 Alpha virt. eigenvalues --    0.79140   0.79420   0.80578   0.80879   0.82535

 Mulliken charges:
               1
     1  O   -0.506333
     2  H    0.251828
     3  H    0.254508
     4  O   -0.506058
     5  H    0.250917
     6  H    0.255138
 Sum of Mulliken charges =   0.00000

 Dipole moment (field-independent basis, Debye):
    X=             -1.4735    Y=             -0.6806    Z=              0.0000  Tot=              1.6230
 Quadrupole moment (field-independent basis, Debye-Ang):
   XX=             -8.9657   YY=              7.8184   ZZ=            -14.7112
   XY=             -3.3508   XZ=              0.0000   YZ=              0.0000

 Normal termination of Gaussian 16 at Sat Aug 27 03:31:11 2022.
