 Gaussian 16, Revision A.03,
 Gaussian 16:  ES64L-G16RevA.03 25-Dec-2016

 ------------------
 #p CCSD(T)/cc-pVTZ
 ------------------

 ------------
 H2O_H2O_2750
 ------------
 Symbolic Z-matrix:
 Charge =  0 Multiplicity = 1

                         Standard orientation:
 ---------------------------------------------------------------------
 Center     Atomic      Atomic             Coordinates (Angstroms)
 Number     Number       Type             X           Y           Z
 ---------------------------------------------------------------------
      1          8           0        0.000000   -0.000000    2.266149
      2          1           0        0.000000    0.799571    2.837281
      3          1           0       -0.000000   -0.799571    2.837281
      4          8           0        0.000000   -0.000000   -2.266149
      5          1           0       -0.000000   -0.799571   -2.837281
      6          1           0        0.000000    0.799571   -2.837281
 ---------------------------------------------------------------------

 SCF Done:  E(RHF) =  -152.105745407     A.U. after   10 cycles
 E2 =    -0.5261019182D+00 EUMP2 =    -0.15263184732505D+03
 CCSD(T)
 CCSD(T)= -0.15265909677D+03

 The electronic state is 1-AG.
 Alpha  occ. eigenvalues --  -20.54775 -20.54775  -1.32067  -1.32064  -0.69480
 Alpha  occ. eigenvalues --   -0.69476  -0.55480  -0.55375  -0.49171  -0.49159
 Alpha virt. eigenvalues --    0.14359   0.15151   0.20630   0.20870   0.54798
 Alpha virt. eigenvalues --    0.55401   0.57810   0.57934   0.65711   0.71829
 Alpha virt. eigenvalues --    0.79619   0.79796   0.81164   0.81183   0.82259

 Mulliken charges:
               1
     1  O   -0.498973
     2  H    0.249486
     3  H    0.249486
     4  O   -0.498973
     5  H    0.249486
     6  H    0.249486
 Sum of Mulliken charges =  -0.00000

 Dipole moment (field-independent basis, Debye):
    X=             -0.0000    Y=              0.0000    Z=              0.0000  Tot=              0.0000
 Quadrupole moment (field-independent basis, Debye-Ang):
   XX=            -14.7095   YY=             -7.8223   ZZ=              6.0354
   XY=              0.0000   XZ=              0.0000   YZ=             -0.0000

 9\MP4DQ=-152.6409576\MP4SDQ=-152.6440293\CCSD=-152.6434363\CCSD(T)=-15
 Normal termination of Gaussian 16 at Fri Aug 26 15:45:08 2022.
