 Gaussian 16, Revision A.03,
 Gaussian 16:  ES64L-G16RevA.03 25-Dec-2016

 ------------------
 #p CCSD(T)/cc-pVTZ
 ------------------

 ------------
 H2O_H2O_3504
 ------------
 Symbolic Z-matrix:
 Charge =  0 Multiplicity = 1

                         Standard orientation:
 ---------------------------------------------------------------------
 Center     Atomic      Atomic             Coordinates (Angstroms)
 Number     Number       Type             X           Y           Z
 ---------------------------------------------------------------------
      1          8           0        0.014783   -2.662920    0.000000
      2          1           0       -0.785061   -3.233670    0.000000
      3          1           0        0.814081   -3.234434    0.000000
      4          8           0        0.014783    2.666798    0.000000
      5          1           0        0.639652    3.425115    0.000000
      6          1           0       -0.905199    3.011964    0.000000
 ---------------------------------------------------------------------

 SCF Done:  E(RHF) =  -152.106424837     A.U. after   10 cycles
 E2 =    -0.5259850043D+00 EUMP2 =    -0.15263240984084D+03
 CCSD(T)
 CCSD(T)= -0.15265964972D+03

 The electronic state is 1-A'.
 Alpha  occ. eigenvalues --  -20.55033 -20.55002  -1.32327  -1.32296  -0.69736
 Alpha  occ. eigenvalues --   -0.69703  -0.55729  -0.55696  -0.49432  -0.49400
 Alpha virt. eigenvalues --    0.14457   0.14697   0.20555   0.20650   0.54801
 Alpha virt. eigenvalues --    0.54904   0.57659   0.57711   0.68044   0.69071
 Alpha virt. eigenvalues --    0.79444   0.79478   0.80883   0.80946   0.82777

 Mulliken charges:
               1
     1  O   -0.503083
     2  H    0.251000
     3  H    0.252083
     4  O   -0.503029
     5  H    0.250788
     6  H    0.252241
 Sum of Mulliken charges =   0.00000

 Dipole moment (field-independent basis, Debye):
    X=             -0.5061    Y=             -0.0681    Z=              0.0000  Tot=              0.5107
 Quadrupole moment (field-independent basis, Debye-Ang):
   XX=             -7.9473   YY=              9.0389   ZZ=            -14.7102
   XY=             -0.9111   XZ=              0.0000   YZ=              0.0000

 Normal termination of Gaussian 16 at Fri Aug 26 22:52:52 2022.
