 Gaussian 16, Revision A.03,
 Gaussian 16:  ES64L-G16RevA.03 25-Dec-2016

 ------------------
 #p CCSD(T)/cc-pVTZ
 ------------------

 ------------
 H2O_H2O_2832
 ------------
 Symbolic Z-matrix:
 Charge =  0 Multiplicity = 1

                         Standard orientation:
 ---------------------------------------------------------------------
 Center     Atomic      Atomic             Coordinates (Angstroms)
 Number     Number       Type             X           Y           Z
 ---------------------------------------------------------------------
      1          8           0        0.025266   -2.299665    0.000000
      2          1           0       -0.774843   -2.870043    0.000000
      3          1           0        0.824298   -2.871551    0.000000
      4          8           0        0.025266    2.311397    0.000000
      5          1           0        0.490591    3.176833    0.000000
      6          1           0       -0.944303    2.470903    0.000000
 ---------------------------------------------------------------------

 SCF Done:  E(RHF) =  -152.106050779     A.U. after   10 cycles
 E2 =    -0.5260689963D+00 EUMP2 =    -0.15263211977487D+03
 CCSD(T)
 CCSD(T)= -0.15265936333D+03

 The electronic state is 1-A'.
 Alpha  occ. eigenvalues --  -20.54920 -20.54791  -1.32212  -1.32081  -0.69623
 Alpha  occ. eigenvalues --   -0.69488  -0.55601  -0.55451  -0.49314  -0.49184
 Alpha virt. eigenvalues --    0.14265   0.15120   0.20543   0.20891   0.54688
 Alpha virt. eigenvalues --    0.55261   0.57725   0.57903   0.66222   0.71342
 Alpha virt. eigenvalues --    0.79530   0.79719   0.80960   0.81208   0.82487

 Mulliken charges:
               1
     1  O   -0.500807
     2  H    0.249035
     3  H    0.251799
     4  O   -0.500532
     5  H    0.248443
     6  H    0.252062
 Sum of Mulliken charges =  -0.00000

 Dipole moment (field-independent basis, Debye):
    X=             -0.8607    Y=             -0.2084    Z=              0.0000  Tot=              0.8856
 Quadrupole moment (field-independent basis, Debye-Ang):
   XX=             -8.2180   YY=              5.7992   ZZ=            -14.7100
   XY=             -1.3134   XZ=              0.0000   YZ=              0.0000

 Normal termination of Gaussian 16 at Fri Aug 26 16:35:27 2022.
