 Gaussian 16, Revision A.03,
 Gaussian 16:  ES64L-G16RevA.03 25-Dec-2016

 ------------------
 #p CCSD(T)/cc-pVTZ
 ------------------

 ------------
 H2O_H2O_4868
 ------------
 Symbolic Z-matrix:
 Charge =  0 Multiplicity = 1

                         Standard orientation:
 ---------------------------------------------------------------------
 Center     Atomic      Atomic             Coordinates (Angstroms)
 Number     Number       Type             X           Y           Z
 ---------------------------------------------------------------------
      1          8           0        0.052813   -3.344788    0.000000
      2          1           0       -0.747525   -3.914844    0.000000
      3          1           0        0.851616   -3.916994    0.000000
      4          8           0        0.052813    3.415160    0.000000
      5          1           0       -0.167574    4.372727    0.000000
      6          1           0       -0.781525    2.896135    0.000000
 ---------------------------------------------------------------------

 SCF Done:  E(RHF) =  -152.107388635     A.U. after   10 cycles
 E2 =    -0.5258767438D+00 EUMP2 =    -0.15263326537882D+03
 CCSD(T)
 CCSD(T)= -0.15266048615D+03

 The electronic state is 1-A'.
 Alpha  occ. eigenvalues --  -20.55574 -20.55220  -1.32873  -1.32518  -0.70279
 Alpha  occ. eigenvalues --   -0.69920  -0.56319  -0.55963  -0.49984  -0.49631
 Alpha virt. eigenvalues --    0.14100   0.14455   0.20174   0.20548   0.54283
 Alpha virt. eigenvalues --    0.54653   0.57200   0.57554   0.67871   0.68235
 Alpha virt. eigenvalues --    0.78895   0.79244   0.80327   0.80703   0.82251

 Mulliken charges:
               1
     1  O   -0.508767
     2  H    0.253430
     3  H    0.255337
     4  O   -0.508572
     5  H    0.252530
     6  H    0.256042
 Sum of Mulliken charges =  -0.00000

 Dipole moment (field-independent basis, Debye):
    X=             -1.8168    Y=             -1.2268    Z=              0.0000  Tot=              2.1922
 Quadrupole moment (field-independent basis, Debye-Ang):
   XX=             -9.5597   YY=              8.3339   ZZ=            -14.7119
   XY=             -5.6482   XZ=              0.0000   YZ=              0.0000

 Normal termination of Gaussian 16 at Sat Aug 27 09:47:22 2022.
