 Gaussian 16, Revision A.03,
 Gaussian 16:  ES64L-G16RevA.03 25-Dec-2016

 ------------------
 #p CCSD(T)/cc-pVTZ
 ------------------

 -----------
 H2O_H2O_789
 -----------
 Symbolic Z-matrix:
 Charge =  0 Multiplicity = 1

                         Standard orientation:
 ---------------------------------------------------------------------
 Center     Atomic      Atomic             Coordinates (Angstroms)
 Number     Number       Type             X           Y           Z
 ---------------------------------------------------------------------
      1          8           0        0.045383   -1.191656    0.000000
      2          1           0       -0.756020   -1.760215    0.000000
      3          1           0        0.843114   -1.765354    0.000000
      4          8           0        0.045383    1.236054    0.000000
      5          1           0        0.082177    2.217967    0.000000
      6          1           0       -0.895392    0.952416    0.000000
 ---------------------------------------------------------------------

 SCF Done:  E(RHF) =  -152.094740948     A.U. after   11 cycles
 E2 =    -0.5297509363D+00 EUMP2 =    -0.15262449188450D+03
 CCSD(T)
 CCSD(T)= -0.15265166893D+03

 The electronic state is 1-A'.
 Alpha  occ. eigenvalues --  -20.54381 -20.52820  -1.32198  -1.30014  -0.69557
 Alpha  occ. eigenvalues --   -0.67883  -0.56596  -0.51390  -0.49374  -0.46926
 Alpha virt. eigenvalues --    0.13955   0.17547   0.20132   0.23492   0.53202
 Alpha virt. eigenvalues --    0.57741   0.58307   0.60694   0.70904   0.75451
 Alpha virt. eigenvalues --    0.78000   0.80171   0.83277   0.85393   0.86596

 Mulliken charges:
               1
     1  O   -0.467256
     2  H    0.226306
     3  H    0.244797
     4  O   -0.457697
     5  H    0.208619
     6  H    0.245231
 Sum of Mulliken charges =  -0.00000

 Dipole moment (field-independent basis, Debye):
    X=             -1.4057    Y=             -0.8762    Z=              0.0000  Tot=              1.6564
 Quadrupole moment (field-independent basis, Debye-Ang):
   XX=             -9.2025   YY=             -3.7127   ZZ=            -14.7250
   XY=             -1.1925   XZ=              0.0000   YZ=              0.0000

 Normal termination of Gaussian 16 at Fri Aug 26 20:01:06 2022.
