 Gaussian 16, Revision A.03,
 Gaussian 16:  ES64L-G16RevA.03 25-Dec-2016

 ------------------
 #p CCSD(T)/cc-pVTZ
 ------------------

 -----------
 H2O_H2O_197
 -----------
 Symbolic Z-matrix:
 Charge =  0 Multiplicity = 1

                         Standard orientation:
 ---------------------------------------------------------------------
 Center     Atomic      Atomic             Coordinates (Angstroms)
 Number     Number       Type             X           Y           Z
 ---------------------------------------------------------------------
      1          8           0        0.056895   -0.843060    0.000000
      2          1           0       -0.745784   -1.409817    0.000000
      3          1           0        0.853334   -1.418551    0.000000
      4          8           0        0.056895    0.941757    0.000000
      5          1           0       -0.400242    1.811546    0.000000
      6          1           0       -0.617629    0.227248    0.000000
 ---------------------------------------------------------------------

 SCF Done:  E(RHF) =  -151.968793388     A.U. after   11 cycles
 E2 =    -0.5456021763D+00 EUMP2 =    -0.15251439556425D+03
 CCSD(T)
 CCSD(T)= -0.15253949062D+03

 The electronic state is 1-A'.
 Alpha  occ. eigenvalues --  -20.56483 -20.47908  -1.40337  -1.26014  -0.78000
 Alpha  occ. eigenvalues --   -0.72281  -0.54875  -0.50746  -0.45355  -0.42924
 Alpha virt. eigenvalues --    0.12790   0.18267   0.20233   0.26629   0.49272
 Alpha virt. eigenvalues --    0.53780   0.62877   0.68822   0.73179   0.75614
 Alpha virt. eigenvalues --    0.78364   0.79127   0.84254   0.85286   0.88517

 Mulliken charges:
               1
     1  O   -0.312865
     2  H    0.175340
     3  H    0.221841
     4  O   -0.501962
     5  H    0.150316
     6  H    0.267329
 Sum of Mulliken charges =   0.00000

 Dipole moment (field-independent basis, Debye):
    X=             -1.5304    Y=             -2.5232    Z=              0.0000  Tot=              2.9510
 Quadrupole moment (field-independent basis, Debye-Ang):
   XX=             -9.8248   YY=             -8.2386   ZZ=            -14.5679
   XY=             -1.7683   XZ=              0.0000   YZ=              0.0000

 Normal termination of Gaussian 16 at Fri Aug 26 13:53:55 2022.
