 Gaussian 16, Revision A.03,
 Gaussian 16:  ES64L-G16RevA.03 25-Dec-2016

 ------------------
 #p CCSD(T)/cc-pVTZ
 ------------------

 -----------
 H2O_H2O_488
 -----------
 Symbolic Z-matrix:
 Charge =  0 Multiplicity = 1

                         Standard orientation:
 ---------------------------------------------------------------------
 Center     Atomic      Atomic             Coordinates (Angstroms)
 Number     Number       Type             X           Y           Z
 ---------------------------------------------------------------------
      1          8           0        0.043008   -1.035248    0.000000
      2          1           0       -0.758560   -1.603574    0.000000
      3          1           0        0.840572   -1.609179    0.000000
      4          8           0        0.043008    1.073858    0.000000
      5          1           0        0.144229    2.051232    0.000000
      6          1           0       -0.914367    0.852637    0.000000
 ---------------------------------------------------------------------

 SCF Done:  E(RHF) =  -152.072068881     A.U. after   11 cycles
 E2 =    -0.5332485190D+00 EUMP2 =    -0.15260531740000D+03
 CCSD(T)
 CCSD(T)= -0.15263229038D+03

 The electronic state is 1-A'.
 Alpha  occ. eigenvalues --  -20.53557 -20.52140  -1.32615  -1.29077  -0.69800
 Alpha  occ. eigenvalues --   -0.67799  -0.57748  -0.49717  -0.47958  -0.45806
 Alpha virt. eigenvalues --    0.14125   0.17999   0.20116   0.23633   0.53165
 Alpha virt. eigenvalues --    0.57558   0.58388   0.62849   0.71442   0.76016
 Alpha virt. eigenvalues --    0.79508   0.81773   0.83340   0.85345   0.88038

 Mulliken charges:
               1
     1  O   -0.446501
     2  H    0.213736
     3  H    0.233388
     4  O   -0.424424
     5  H    0.183716
     6  H    0.240084
 Sum of Mulliken charges =  -0.00000

 Dipole moment (field-independent basis, Debye):
    X=             -1.2688    Y=             -0.7797    Z=              0.0000  Tot=              1.4893
 Quadrupole moment (field-independent basis, Debye-Ang):
   XX=             -9.1329   YY=             -5.2025   ZZ=            -14.7229
   XY=             -0.8473   XZ=              0.0000   YZ=              0.0000

 Normal termination of Gaussian 16 at Fri Aug 26 16:55:23 2022.
