 Gaussian 16, Revision A.03,
 Gaussian 16:  ES64L-G16RevA.03 25-Dec-2016

 ------------------
 #p CCSD(T)/cc-pVTZ
 ------------------

 ------------
 H2O_H2O_2350
 ------------
 Symbolic Z-matrix:
 Charge =  0 Multiplicity = 1

                         Standard orientation:
 ---------------------------------------------------------------------
 Center     Atomic      Atomic             Coordinates (Angstroms)
 Number     Number       Type             X           Y           Z
 ---------------------------------------------------------------------
      1          8           0        0.000000   -0.000000    2.053415
      2          1           0        0.000000    0.799571    2.624547
      3          1           0       -0.000000   -0.799571    2.624547
      4          8           0        0.000000   -0.000000   -2.053415
      5          1           0       -0.000000   -0.799571   -2.624547
      6          1           0        0.000000    0.799571   -2.624547
 ---------------------------------------------------------------------

 SCF Done:  E(RHF) =  -152.105247639     A.U. after   10 cycles
 E2 =    -0.5262417918D+00 EUMP2 =    -0.15263148943030D+03
 CCSD(T)
 CCSD(T)= -0.15265873976D+03

 The electronic state is 1-AG.
 Alpha  occ. eigenvalues --  -20.54609 -20.54608  -1.31899  -1.31889  -0.69316
 Alpha  occ. eigenvalues --   -0.69304  -0.55368  -0.55075  -0.49009  -0.48973
 Alpha virt. eigenvalues --    0.14248   0.15507   0.20641   0.21051   0.54525
 Alpha virt. eigenvalues --    0.56014   0.57881   0.58107   0.62989   0.74151
 Alpha virt. eigenvalues --    0.79584   0.80164   0.81013   0.81480   0.81695

 Mulliken charges:
               1
     1  O   -0.495296
     2  H    0.247648
     3  H    0.247648
     4  O   -0.495296
     5  H    0.247648
     6  H    0.247648
 Sum of Mulliken charges =   0.00000

 Dipole moment (field-independent basis, Debye):
    X=             -0.0000    Y=              0.0000    Z=              0.0000  Tot=              0.0000
 Quadrupole moment (field-independent basis, Debye-Ang):
   XX=            -14.7094   YY=             -7.8328   ZZ=              4.2955
   XY=              0.0000   XZ=              0.0000   YZ=             -0.0000

 2\MP4DQ=-152.6405762\MP4SDQ=-152.6436566\CCSD=-152.6430593\CCSD(T)=-15
 Normal termination of Gaussian 16 at Sat Aug 27 10:04:29 2022.
