 Gaussian 16, Revision A.03,
 Gaussian 16:  ES64L-G16RevA.03 25-Dec-2016

 ------------------
 #p CCSD(T)/cc-pVTZ
 ------------------

 ------------
 H2O_H2O_4567
 ------------
 Symbolic Z-matrix:
 Charge =  0 Multiplicity = 1

                         Standard orientation:
 ---------------------------------------------------------------------
 Center     Atomic      Atomic             Coordinates (Angstroms)
 Number     Number       Type             X           Y           Z
 ---------------------------------------------------------------------
      1          8           0        0.051267   -3.188933    0.000000
      2          1           0       -0.749085   -3.758970    0.000000
      3          1           0        0.850055   -3.761159    0.000000
      4          8           0        0.051267    3.252498    0.000000
      5          1           0       -0.105996    4.222433    0.000000
      6          1           0       -0.815242    2.789176    0.000000
 ---------------------------------------------------------------------

 SCF Done:  E(RHF) =  -152.107323991     A.U. after   10 cycles
 E2 =    -0.5258859094D+00 EUMP2 =    -0.15263320990046D+03
 CCSD(T)
 CCSD(T)= -0.15266043183D+03

 The electronic state is 1-A'.
 Alpha  occ. eigenvalues --  -20.55532 -20.55178  -1.32831  -1.32476  -0.70237
 Alpha  occ. eigenvalues --   -0.69876  -0.56274  -0.55918  -0.49942  -0.49588
 Alpha virt. eigenvalues --    0.14132   0.14494   0.20207   0.20583   0.54325
 Alpha virt. eigenvalues --    0.54699   0.57237   0.57591   0.67913   0.68293
 Alpha virt. eigenvalues --    0.78938   0.79287   0.80370   0.80749   0.82298

 Mulliken charges:
               1
     1  O   -0.508391
     2  H    0.253121
     3  H    0.255270
     4  O   -0.508172
     5  H    0.252171
     6  H    0.256001
 Sum of Mulliken charges =  -0.00000

 Dipole moment (field-independent basis, Debye):
    X=             -1.7625    Y=             -1.1098    Z=              0.0000  Tot=              2.0828
 Quadrupole moment (field-independent basis, Debye-Ang):
   XX=             -9.4578   YY=              8.1301   ZZ=            -14.7118
   XY=             -5.0936   XZ=              0.0000   YZ=              0.0000

 Normal termination of Gaussian 16 at Sat Aug 27 08:05:36 2022.
