 Gaussian 16, Revision A.03,
 Gaussian 16:  ES64L-G16RevA.03 25-Dec-2016

 ------------------
 #p CCSD(T)/cc-pVTZ
 ------------------

 ------------
 H2O_H2O_2831
 ------------
 Symbolic Z-matrix:
 Charge =  0 Multiplicity = 1

                         Standard orientation:
 ---------------------------------------------------------------------
 Center     Atomic      Atomic             Coordinates (Angstroms)
 Number     Number       Type             X           Y           Z
 ---------------------------------------------------------------------
      1          8           0        0.021860   -2.301334    0.000000
      2          1           0       -0.778177   -2.871813    0.000000
      3          1           0        0.820964   -2.873118    0.000000
      4          8           0        0.021860    2.309993    0.000000
      5          1           0        0.542685    3.143208    0.000000
      6          1           0       -0.935229    2.532449    0.000000
 ---------------------------------------------------------------------

 SCF Done:  E(RHF) =  -152.105990608     A.U. after   10 cycles
 E2 =    -0.5260730604D+00 EUMP2 =    -0.15263206366838D+03
 CCSD(T)
 CCSD(T)= -0.15265930864D+03

 The electronic state is 1-A'.
 Alpha  occ. eigenvalues --  -20.54889 -20.54794  -1.32181  -1.32084  -0.69592
 Alpha  occ. eigenvalues --   -0.69492  -0.55570  -0.55447  -0.49282  -0.49187
 Alpha virt. eigenvalues --    0.14296   0.15112   0.20566   0.20876   0.54723
 Alpha virt. eigenvalues --    0.55278   0.57746   0.57902   0.66197   0.71354
 Alpha virt. eigenvalues --    0.79555   0.79723   0.81003   0.81193   0.82456

 Mulliken charges:
               1
     1  O   -0.500459
     2  H    0.249044
     3  H    0.251433
     4  O   -0.500243
     5  H    0.248571
     6  H    0.251653
 Sum of Mulliken charges =  -0.00000

 Dipole moment (field-independent basis, Debye):
    X=             -0.7447    Y=             -0.1538    Z=              0.0000  Tot=              0.7604
 Quadrupole moment (field-independent basis, Debye-Ang):
   XX=             -8.1181   YY=              5.9503   ZZ=            -14.7099
   XY=             -1.1153   XZ=              0.0000   YZ=              0.0000

 Normal termination of Gaussian 16 at Fri Aug 26 16:34:55 2022.
