 Gaussian 16, Revision A.03,
 Gaussian 16:  ES64L-G16RevA.03 25-Dec-2016

 ------------------
 #p CCSD(T)/cc-pVTZ
 ------------------

 ------------
 H2O_H2O_2637
 ------------
 Symbolic Z-matrix:
 Charge =  0 Multiplicity = 1

                         Standard orientation:
 ---------------------------------------------------------------------
 Center     Atomic      Atomic             Coordinates (Angstroms)
 Number     Number       Type             X           Y           Z
 ---------------------------------------------------------------------
      1          8           0        0.040412   -2.181568    0.000000
      2          1           0       -0.760062   -2.751435    0.000000
      3          1           0        0.839078   -2.753964    0.000000
      4          8           0        0.040412    2.214896    0.000000
      5          1           0        0.203475    3.183873    0.000000
      6          1           0       -0.929077    2.054899    0.000000
 ---------------------------------------------------------------------

 SCF Done:  E(RHF) =  -152.106370948     A.U. after   10 cycles
 E2 =    -0.5260905480D+00 EUMP2 =    -0.15263246149627D+03
 CCSD(T)
 CCSD(T)= -0.15265969276D+03

 The electronic state is 1-A'.
 Alpha  occ. eigenvalues --  -20.55102 -20.54686  -1.32392  -1.31972  -0.69804
 Alpha  occ. eigenvalues --   -0.69369  -0.55788  -0.55361  -0.49496  -0.49080
 Alpha virt. eigenvalues --    0.13932   0.15371   0.20370   0.21147   0.54269
 Alpha virt. eigenvalues --    0.55194   0.57597   0.57983   0.65629   0.72562
 Alpha virt. eigenvalues --    0.79342   0.79826   0.80590   0.81479   0.82787

 Mulliken charges:
               1
     1  O   -0.502134
     2  H    0.248658
     3  H    0.253688
     4  O   -0.501782
     5  H    0.247192
     6  H    0.254379
 Sum of Mulliken charges =  -0.00000

 Dipole moment (field-independent basis, Debye):
    X=             -1.3736    Y=             -0.5964    Z=              0.0000  Tot=              1.4975
 Quadrupole moment (field-independent basis, Debye-Ang):
   XX=             -8.8393   YY=              3.9166   ZZ=            -14.7110
   XY=             -2.2290   XZ=              0.0000   YZ=              0.0000

 Normal termination of Gaussian 16 at Fri Aug 26 14:35:53 2022.
