 Gaussian 16, Revision A.03,
 Gaussian 16:  ES64L-G16RevA.03 25-Dec-2016

 ------------------
 #p CCSD(T)/cc-pVTZ
 ------------------

 ------------
 H2O_H2O_3212
 ------------
 Symbolic Z-matrix:
 Charge =  0 Multiplicity = 1

                         Standard orientation:
 ---------------------------------------------------------------------
 Center     Atomic      Atomic             Coordinates (Angstroms)
 Number     Number       Type             X           Y           Z
 ---------------------------------------------------------------------
      1          8           0        0.040408   -2.487365    0.000000
      2          1           0       -0.759955   -3.057387    0.000000
      3          1           0        0.839186   -3.059607    0.000000
      4          8           0        0.040408    2.520709    0.000000
      5          1           0        0.203285    3.489718    0.000000
      6          1           0       -0.929049    2.360524    0.000000
 ---------------------------------------------------------------------

 SCF Done:  E(RHF) =  -152.106680391     A.U. after   10 cycles
 E2 =    -0.5259837335D+00 EUMP2 =    -0.15263266412401D+03
 CCSD(T)
 CCSD(T)= -0.15265989684D+03

 The electronic state is 1-A'.
 Alpha  occ. eigenvalues --  -20.55209 -20.54897  -1.32504  -1.32188  -0.69913
 Alpha  occ. eigenvalues --   -0.69588  -0.55916  -0.55602  -0.49610  -0.49297
 Alpha virt. eigenvalues --    0.14177   0.14915   0.20387   0.20842   0.54577
 Alpha virt. eigenvalues --    0.55008   0.57506   0.57816   0.67393   0.69730
 Alpha virt. eigenvalues --    0.79267   0.79576   0.80666   0.81075   0.82758

 Mulliken charges:
               1
     1  O   -0.504587
     2  H    0.250539
     3  H    0.254079
     4  O   -0.504189
     5  H    0.249439
     6  H    0.254720
 Sum of Mulliken charges =  -0.00000

 Dipole moment (field-independent basis, Debye):
    X=             -1.3812    Y=             -0.5889    Z=              0.0000  Tot=              1.5015
 Quadrupole moment (field-independent basis, Debye-Ang):
   XX=             -8.8344   YY=              6.0345   ZZ=            -14.7109
   XY=             -2.6454   XZ=              0.0000   YZ=              0.0000

 Normal termination of Gaussian 16 at Fri Aug 26 20:24:53 2022.
