 Gaussian 16, Revision A.03,
 Gaussian 16:  ES64L-G16RevA.03 25-Dec-2016

 ------------------
 #p CCSD(T)/cc-pVTZ
 ------------------

 ------------
 H2O_H2O_4982
 ------------
 Symbolic Z-matrix:
 Charge =  0 Multiplicity = 1

                         Standard orientation:
 ---------------------------------------------------------------------
 Center     Atomic      Atomic             Coordinates (Angstroms)
 Number     Number       Type             X           Y           Z
 ---------------------------------------------------------------------
      1          8           0        0.025264   -3.443105    0.000000
      2          1           0       -0.774667   -4.013732    0.000000
      3          1           0        0.824475   -4.014741    0.000000
      4          8           0        0.025264    3.454853    0.000000
      5          1           0        0.490318    4.320434    0.000000
      6          1           0       -0.944355    3.614055    0.000000
 ---------------------------------------------------------------------

 SCF Done:  E(RHF) =  -152.107039135     A.U. after   10 cycles
 E2 =    -0.5259058824D+00 EUMP2 =    -0.15263294501740D+03
 CCSD(T)
 CCSD(T)= -0.15266017335D+03

 The electronic state is 1-A'.
 Alpha  occ. eigenvalues --  -20.55315 -20.55259  -1.32612  -1.32555  -0.70019
 Alpha  occ. eigenvalues --   -0.69961  -0.56043  -0.55986  -0.49721  -0.49664
 Alpha virt. eigenvalues --    0.14331   0.14388   0.20387   0.20446   0.54548
 Alpha virt. eigenvalues --    0.54609   0.57433   0.57490   0.68175   0.68233
 Alpha virt. eigenvalues --    0.79158   0.79214   0.80598   0.80659   0.82523

 Mulliken charges:
               1
     1  O   -0.506688
     2  H    0.252899
     3  H    0.253790
     4  O   -0.506645
     5  H    0.252661
     6  H    0.253984
 Sum of Mulliken charges =  -0.00000

 Dipole moment (field-independent basis, Debye):
    X=             -0.8691    Y=             -0.2046    Z=              0.0000  Tot=              0.8928
 Quadrupole moment (field-independent basis, Debye-Ang):
   XX=             -8.2027   YY=             14.5220   ZZ=            -14.7111
   XY=             -2.2939   XZ=              0.0000   YZ=              0.0000

 6496281\MP4DQ=-152.642072\MP4SDQ=-152.64513\CCSD=-152.6445423\CCSD(T)=
 Normal termination of Gaussian 16 at Sat Aug 27 10:28:06 2022.
