 Gaussian 16, Revision A.03,
 Gaussian 16:  ES64L-G16RevA.03 25-Dec-2016

 ------------------
 #p CCSD(T)/cc-pVTZ
 ------------------

 -----------
 H2O_H2O_965
 -----------
 Symbolic Z-matrix:
 Charge =  0 Multiplicity = 1

                         Standard orientation:
 ---------------------------------------------------------------------
 Center     Atomic      Atomic             Coordinates (Angstroms)
 Number     Number       Type             X           Y           Z
 ---------------------------------------------------------------------
      1          8           0        0.047567   -1.281431    0.000000
      2          1           0       -0.753787   -1.850058    0.000000
      3          1           0        0.845347   -1.855062    0.000000
      4          8           0        0.047567    1.331899    0.000000
      5          1           0        0.019979    2.314113    0.000000
      6          1           0       -0.872613    0.987261    0.000000
 ---------------------------------------------------------------------

 SCF Done:  E(RHF) =  -152.100487865     A.U. after   11 cycles
 E2 =    -0.5286804589D+00 EUMP2 =    -0.15262916832355D+03
 CCSD(T)
 CCSD(T)= -0.15265635980D+03

 The electronic state is 1-A'.
 Alpha  occ. eigenvalues --  -20.54801 -20.53110  -1.32332  -1.30345  -0.69737
 Alpha  occ. eigenvalues --   -0.67995  -0.56232  -0.52652  -0.49482  -0.47352
 Alpha virt. eigenvalues --    0.13826   0.17343   0.20080   0.23466   0.53369
 Alpha virt. eigenvalues --    0.57625   0.58327   0.59290   0.70469   0.75587
 Alpha virt. eigenvalues --    0.77047   0.78305   0.83046   0.83143   0.85239

 Mulliken charges:
               1
     1  O   -0.473742
     2  H    0.230841
     3  H    0.248436
     4  O   -0.471380
     5  H    0.218085
     6  H    0.247760
 Sum of Mulliken charges =  -0.00000

 Dipole moment (field-independent basis, Debye):
    X=             -1.5036    Y=             -0.9897    Z=              0.0000  Tot=              1.8001
 Quadrupole moment (field-independent basis, Debye-Ang):
   XX=             -9.2990   YY=             -3.0670   ZZ=            -14.7230
   XY=             -1.4794   XZ=              0.0000   YZ=              0.0000

 Normal termination of Gaussian 16 at Fri Aug 26 21:34:53 2022.
