 Gaussian 16, Revision A.03,
 Gaussian 16:  ES64L-G16RevA.03 25-Dec-2016

 ------------------
 #p CCSD(T)/cc-pVTZ
 ------------------

 ------------
 H2O_H2O_3823
 ------------
 Symbolic Z-matrix:
 Charge =  0 Multiplicity = 1

                         Standard orientation:
 ---------------------------------------------------------------------
 Center     Atomic      Atomic             Coordinates (Angstroms)
 Number     Number       Type             X           Y           Z
 ---------------------------------------------------------------------
      1          8           0        0.057084   -2.766708    0.000000
      2          1           0       -0.743480   -3.336448    0.000000
      3          1           0        0.855660   -3.339230    0.000000
      4          8           0        0.057084    2.873265    0.000000
      5          1           0       -0.459077    3.709378    0.000000
      6          1           0       -0.566442    2.113843    0.000000
 ---------------------------------------------------------------------

 SCF Done:  E(RHF) =  -152.107757618     A.U. after   10 cycles
 E2 =    -0.5258683034D+00 EUMP2 =    -0.15263362592133D+03
 CCSD(T)
 CCSD(T)= -0.15266083683D+03

 The electronic state is 1-A'.
 Alpha  occ. eigenvalues --  -20.55784 -20.54998  -1.33084  -1.32298  -0.70490
 Alpha  occ. eigenvalues --   -0.69693  -0.56548  -0.55753  -0.50198  -0.49415
 Alpha virt. eigenvalues --    0.13783   0.14790   0.20003   0.20893   0.54058
 Alpha virt. eigenvalues --    0.54853   0.57016   0.57769   0.67343   0.68717
 Alpha virt. eigenvalues --    0.78685   0.79451   0.80095   0.80620   0.82503

 Mulliken charges:
               1
     1  O   -0.510917
     2  H    0.253832
     3  H    0.257131
     4  O   -0.510350
     5  H    0.251588
     6  H    0.258716
 Sum of Mulliken charges =  -0.00000

 Dipole moment (field-independent basis, Debye):
    X=             -1.9585    Y=             -1.8730    Z=              0.0000  Tot=              2.7099
 Quadrupole moment (field-independent basis, Debye-Ang):
   XX=             -9.8542   YY=              1.9055   ZZ=            -14.7131
   XY=             -5.6627   XZ=              0.0000   YZ=              0.0000

 Normal termination of Gaussian 16 at Sat Aug 27 03:35:26 2022.
