 Gaussian 16, Revision A.03,
 Gaussian 16:  ES64L-G16RevA.03 25-Dec-2016

 ------------------
 #p CCSD(T)/cc-pVTZ
 ------------------

 ------------
 H2O_H2O_3616
 ------------
 Symbolic Z-matrix:
 Charge =  0 Multiplicity = 1

                         Standard orientation:
 ---------------------------------------------------------------------
 Center     Atomic      Atomic             Coordinates (Angstroms)
 Number     Number       Type             X           Y           Z
 ---------------------------------------------------------------------
      1          8           0        0.049506   -2.687276    0.000000
      2          1           0       -0.750959   -3.257154    0.000000
      3          1           0        0.848181   -3.259661    0.000000
      4          8           0        0.049506    2.744234    0.000000
      5          1           0       -0.043789    3.722397    0.000000
      6          1           0       -0.845531    2.338754    0.000000
 ---------------------------------------------------------------------

 SCF Done:  E(RHF) =  -152.107147223     A.U. after   10 cycles
 E2 =    -0.5259249163D+00 EUMP2 =    -0.15263307213967D+03
 CCSD(T)
 CCSD(T)= -0.15266029614D+03

 The electronic state is 1-A'.
 Alpha  occ. eigenvalues --  -20.55443 -20.54989  -1.32741  -1.32284  -0.70148
 Alpha  occ. eigenvalues --   -0.69681  -0.56176  -0.55718  -0.49850  -0.49395
 Alpha virt. eigenvalues --    0.14088   0.14760   0.20248   0.20792   0.54395
 Alpha virt. eigenvalues --    0.54895   0.57310   0.57757   0.67704   0.68875
 Alpha virt. eigenvalues --    0.79030   0.79476   0.80452   0.80879   0.82543

 Mulliken charges:
               1
     1  O   -0.507361
     2  H    0.251977
     3  H    0.255404
     4  O   -0.506964
     5  H    0.250576
     6  H    0.256369
 Sum of Mulliken charges =   0.00000

 Dipole moment (field-independent basis, Debye):
    X=             -1.6965    Y=             -1.0018    Z=              0.0000  Tot=              1.9703
 Quadrupole moment (field-independent basis, Debye-Ang):
   XX=             -9.3457   YY=              5.7337   ZZ=            -14.7117
   XY=             -3.9639   XZ=              0.0000   YZ=              0.0000

 Normal termination of Gaussian 16 at Sat Aug 27 01:55:25 2022.
