 Gaussian 16, Revision A.03,
 Gaussian 16:  ES64L-G16RevA.03 25-Dec-2016

 ------------------
 #p CCSD(T)/cc-pVTZ
 ------------------

 ------------
 H2O_H2O_4569
 ------------
 Symbolic Z-matrix:
 Charge =  0 Multiplicity = 1

                         Standard orientation:
 ---------------------------------------------------------------------
 Center     Atomic      Atomic             Coordinates (Angstroms)
 Number     Number       Type             X           Y           Z
 ---------------------------------------------------------------------
      1          8           0        0.054138   -3.181445    0.000000
      2          1           0       -0.746258   -3.751421    0.000000
      3          1           0        0.852883   -3.753733    0.000000
      4          8           0        0.054138    3.258798    0.000000
      5          1           0       -0.228310    4.199930    0.000000
      6          1           0       -0.744526    2.686399    0.000000
 ---------------------------------------------------------------------

 SCF Done:  E(RHF) =  -152.107428037     A.U. after   10 cycles
 E2 =    -0.5258767703D+00 EUMP2 =    -0.15263330480720D+03
 CCSD(T)
 CCSD(T)= -0.15266052452D+03

 The electronic state is 1-A'.
 Alpha  occ. eigenvalues --  -20.55602 -20.55172  -1.32901  -1.32470  -0.70307
 Alpha  occ. eigenvalues --   -0.69869  -0.56349  -0.55915  -0.50013  -0.49583
 Alpha virt. eigenvalues --    0.14069   0.14511   0.20151   0.20610   0.54254
 Alpha virt. eigenvalues --    0.54704   0.57175   0.57606   0.67827   0.68292
 Alpha virt. eigenvalues --    0.78867   0.79291   0.80298   0.80754   0.82227

 Mulliken charges:
               1
     1  O   -0.509009
     2  H    0.253387
     3  H    0.255622
     4  O   -0.508753
     5  H    0.252265
     6  H    0.256488
 Sum of Mulliken charges =  -0.00000

 Dipole moment (field-independent basis, Debye):
    X=             -1.8613    Y=             -1.3507    Z=              0.0000  Tot=              2.2998
 Quadrupole moment (field-independent basis, Debye-Ang):
   XX=             -9.6488   YY=              6.7425   ZZ=            -14.7121
   XY=             -5.6131   XZ=              0.0000   YZ=              0.0000

 Normal termination of Gaussian 16 at Sat Aug 27 08:06:16 2022.
