 Gaussian 16, Revision A.03,
 Gaussian 16:  ES64L-G16RevA.03 25-Dec-2016

 ------------------
 #p CCSD(T)/cc-pVTZ
 ------------------

 ------------
 H2O_H2O_1290
 ------------
 Symbolic Z-matrix:
 Charge =  0 Multiplicity = 1

                         Standard orientation:
 ---------------------------------------------------------------------
 Center     Atomic      Atomic             Coordinates (Angstroms)
 Number     Number       Type             X           Y           Z
 ---------------------------------------------------------------------
      1          8           0        0.047558   -1.454260    0.000000
      2          1           0       -0.753588   -2.023180    0.000000
      3          1           0        0.845548   -2.027599    0.000000
      4          8           0        0.047558    1.504763    0.000000
      5          1           0        0.019611    2.486967    0.000000
      6          1           0       -0.872496    1.159788    0.000000
 ---------------------------------------------------------------------

 SCF Done:  E(RHF) =  -152.104566733     A.U. after   10 cycles
 E2 =    -0.5274774187D+00 EUMP2 =    -0.15263204415193D+03
 CCSD(T)
 CCSD(T)= -0.15265924281D+03

 The electronic state is 1-A'.
 Alpha  occ. eigenvalues --  -20.55034 -20.53610  -1.32364  -1.30859  -0.69788
 Alpha  occ. eigenvalues --   -0.68293  -0.55979  -0.53802  -0.49489  -0.47941
 Alpha virt. eigenvalues --    0.13763   0.16909   0.20105   0.23029   0.53938
 Alpha virt. eigenvalues --    0.56890   0.57597   0.58328   0.67460   0.75836
 Alpha virt. eigenvalues --    0.76796   0.76918   0.80323   0.82437   0.85194

 Mulliken charges:
               1
     1  O   -0.481521
     2  H    0.235890
     3  H    0.250180
     4  O   -0.483782
     5  H    0.228925
     6  H    0.250307
 Sum of Mulliken charges =  -0.00000

 Dipole moment (field-independent basis, Debye):
    X=             -1.5450    Y=             -0.9708    Z=              0.0000  Tot=              1.8247
 Quadrupole moment (field-independent basis, Debye-Ang):
   XX=             -9.2706   YY=             -1.7710   ZZ=            -14.7182
   XY=             -1.7436   XZ=              0.0000   YZ=              0.0000

 Normal termination of Gaussian 16 at Sat Aug 27 03:39:51 2022.
