 Gaussian 16, Revision A.03,
 Gaussian 16:  ES64L-G16RevA.03 25-Dec-2016

 ------------------
 #p CCSD(T)/cc-pVTZ
 ------------------

 ------------
 H2O_H2O_4885
 ------------
 Symbolic Z-matrix:
 Charge =  0 Multiplicity = 1

                         Standard orientation:
 ---------------------------------------------------------------------
 Center     Atomic      Atomic             Coordinates (Angstroms)
 Number     Number       Type             X           Y           Z
 ---------------------------------------------------------------------
      1          8           0        0.034779   -3.383515    0.000000
      2          1           0       -0.765295   -3.953942    0.000000
      3          1           0        0.833846   -3.955352    0.000000
      4          8           0        0.034779    3.407058    0.000000
      5          1           0        0.322267    4.346662    0.000000
      6          1           0       -0.947277    3.374285    0.000000
 ---------------------------------------------------------------------

 SCF Done:  E(RHF) =  -152.107091518     A.U. after   10 cycles
 E2 =    -0.5259023296D+00 EUMP2 =    -0.15263299384717D+03
 CCSD(T)
 CCSD(T)= -0.15266022100D+03

 The electronic state is 1-A'.
 Alpha  occ. eigenvalues --  -20.55359 -20.55242  -1.32657  -1.32539  -0.70063
 Alpha  occ. eigenvalues --   -0.69943  -0.56089  -0.55972  -0.49766  -0.49648
 Alpha virt. eigenvalues --    0.14291   0.14409   0.20350   0.20472   0.54503
 Alpha virt. eigenvalues --    0.54629   0.57393   0.57510   0.68125   0.68244
 Alpha virt. eigenvalues --    0.79114   0.79230   0.80552   0.80679   0.82477

 Mulliken charges:
               1
     1  O   -0.507002
     2  H    0.252861
     3  H    0.254141
     4  O   -0.506917
     5  H    0.252472
     6  H    0.254446
 Sum of Mulliken charges =  -0.00000

 Dipole moment (field-independent basis, Debye):
    X=             -1.1962    Y=             -0.4102    Z=              0.0000  Tot=              1.2646
 Quadrupole moment (field-independent basis, Debye-Ang):
   XX=             -8.5630   YY=             13.0571   ZZ=            -14.7112
   XY=             -3.2236   XZ=              0.0000   YZ=              0.0000

 Normal termination of Gaussian 16 at Sat Aug 27 09:53:15 2022.
