 Gaussian 16, Revision A.03,
 Gaussian 16:  ES64L-G16RevA.03 25-Dec-2016

 ------------------
 #p CCSD(T)/cc-pVTZ
 ------------------

 ------------
 H2O_H2O_3115
 ------------
 Symbolic Z-matrix:
 Charge =  0 Multiplicity = 1

                         Standard orientation:
 ---------------------------------------------------------------------
 Center     Atomic      Atomic             Coordinates (Angstroms)
 Number     Number       Type             X           Y           Z
 ---------------------------------------------------------------------
      1          8           0        0.047530   -2.424806    0.000000
      2          1           0       -0.752993   -2.994604    0.000000
      3          1           0        0.846147   -2.997272    0.000000
      4          8           0        0.047530    2.475413    0.000000
      5          1           0        0.018508    3.457586    0.000000
      6          1           0       -0.872145    2.129432    0.000000
 ---------------------------------------------------------------------

 SCF Done:  E(RHF) =  -152.106939383     A.U. after   10 cycles
 E2 =    -0.5259762609D+00 EUMP2 =    -0.15263291564414D+03
 CCSD(T)
 CCSD(T)= -0.15266014107D+03

 The electronic state is 1-A'.
 Alpha  occ. eigenvalues --  -20.55350 -20.54846  -1.32645  -1.32138  -0.70054
 Alpha  occ. eigenvalues --   -0.69533  -0.56069  -0.55562  -0.49753  -0.49250
 Alpha virt. eigenvalues --    0.13962   0.15041   0.20270   0.20980   0.54400
 Alpha virt. eigenvalues --    0.55002   0.57392   0.57853   0.67093   0.70095
 Alpha virt. eigenvalues --    0.79126   0.79620   0.80453   0.81073   0.82823

 Mulliken charges:
               1
     1  O   -0.505963
     2  H    0.250825
     3  H    0.255238
     4  O   -0.505532
     5  H    0.249179
     6  H    0.256254
 Sum of Mulliken charges =  -0.00000

 Dipole moment (field-independent basis, Debye):
    X=             -1.6237    Y=             -0.8966    Z=              0.0000  Tot=              1.8548
 Quadrupole moment (field-independent basis, Debye-Ang):
   XX=             -9.2262   YY=              4.5570   ZZ=            -14.7116
   XY=             -3.2831   XZ=              0.0000   YZ=              0.0000

 Normal termination of Gaussian 16 at Fri Aug 26 19:33:35 2022.
