 Gaussian 16, Revision A.03,
 Gaussian 16:  ES64L-G16RevA.03 25-Dec-2016

 ------------------
 #p CCSD(T)/cc-pVTZ
 ------------------

 -----------
 H2O_H2O_810
 -----------
 Symbolic Z-matrix:
 Charge =  0 Multiplicity = 1

                         Standard orientation:
 ---------------------------------------------------------------------
 Center     Atomic      Atomic             Coordinates (Angstroms)
 Number     Number       Type             X           Y           Z
 ---------------------------------------------------------------------
      1          8           0        0.034797   -1.216338    0.000000
      2          1           0       -0.766164   -1.785520    0.000000
      3          1           0        0.832974   -1.789417    0.000000
      4          8           0        0.034797    1.239773    0.000000
      5          1           0        0.323747    2.178930    0.000000
      6          1           0       -0.947308    1.208528    0.000000
 ---------------------------------------------------------------------

 SCF Done:  E(RHF) =  -152.093586003     A.U. after   11 cycles
 E2 =    -0.5294818356D+00 EUMP2 =    -0.15262306783847D+03
 CCSD(T)
 CCSD(T)= -0.15265030439D+03

 The electronic state is 1-A'.
 Alpha  occ. eigenvalues --  -20.53724 -20.52978  -1.31539  -1.30146  -0.68863
 Alpha  occ. eigenvalues --   -0.67802  -0.56910  -0.50659  -0.48791  -0.46973
 Alpha virt. eigenvalues --    0.14249   0.17417   0.20367   0.22895   0.52598
 Alpha virt. eigenvalues --    0.58304   0.58381   0.61598   0.70546   0.76170
 Alpha virt. eigenvalues --    0.77171   0.79550   0.83647   0.85983   0.86532

 Mulliken charges:
               1
     1  O   -0.466835
     2  H    0.225407
     3  H    0.240966
     4  O   -0.450756
     5  H    0.211859
     6  H    0.239360
 Sum of Mulliken charges =  -0.00000

 Dipole moment (field-independent basis, Debye):
    X=             -1.0825    Y=             -0.4573    Z=              0.0000  Tot=              1.1751
 Quadrupole moment (field-independent basis, Debye-Ang):
   XX=             -8.7071   YY=             -3.2677   ZZ=            -14.7252
   XY=             -0.7082   XZ=              0.0000   YZ=              0.0000

 Normal termination of Gaussian 16 at Fri Aug 26 20:13:38 2022.
