 Gaussian 16, Revision A.03,
 Gaussian 16:  ES64L-G16RevA.03 25-Dec-2016

 ------------------
 #p CCSD(T)/cc-pVTZ
 ------------------

 ------------
 H2O_H2O_4657
 ------------
 Symbolic Z-matrix:
 Charge =  0 Multiplicity = 1

                         Standard orientation:
 ---------------------------------------------------------------------
 Center     Atomic      Atomic             Coordinates (Angstroms)
 Number     Number       Type             X           Y           Z
 ---------------------------------------------------------------------
      1          8           0        0.025264   -3.270259    0.000000
      2          1           0       -0.774685   -3.840860    0.000000
      3          1           0        0.824456   -3.841921    0.000000
      4          8           0        0.025264    3.282005    0.000000
      5          1           0        0.490347    4.147571    0.000000
      6          1           0       -0.944349    3.441240    0.000000
 ---------------------------------------------------------------------

 SCF Done:  E(RHF) =  -152.106964155     A.U. after   10 cycles
 E2 =    -0.5259153839D+00 EUMP2 =    -0.15263287953867D+03
 CCSD(T)
 CCSD(T)= -0.15266010928D+03

 The electronic state is 1-A'.
 Alpha  occ. eigenvalues --  -20.55279 -20.55216  -1.32575  -1.32512  -0.69982
 Alpha  occ. eigenvalues --   -0.69917  -0.56002  -0.55939  -0.49683  -0.49620
 Alpha virt. eigenvalues --    0.14360   0.14426   0.20413   0.20479   0.54586
 Alpha virt. eigenvalues --    0.54654   0.57464   0.57528   0.68219   0.68289
 Alpha virt. eigenvalues --    0.79196   0.79258   0.80637   0.80705   0.82563

 Mulliken charges:
               1
     1  O   -0.506249
     2  H    0.252608
     3  H    0.253641
     4  O   -0.506194
     5  H    0.252339
     6  H    0.253854
 Sum of Mulliken charges =  -0.00000

 Dipole moment (field-independent basis, Debye):
    X=             -0.8685    Y=             -0.2048    Z=              0.0000  Tot=              0.8923
 Quadrupole moment (field-independent basis, Debye-Ang):
   XX=             -8.2037   YY=             13.2131   ZZ=            -14.7109
   XY=             -2.1448   XZ=              0.0000   YZ=              0.0000

 Normal termination of Gaussian 16 at Sat Aug 27 08:35:10 2022.
