 Gaussian 16, Revision A.03,
 Gaussian 16:  ES64L-G16RevA.03 25-Dec-2016

 ------------------
 #p CCSD(T)/cc-pVTZ
 ------------------

 ------------
 H2O_H2O_1875
 ------------
 Symbolic Z-matrix:
 Charge =  0 Multiplicity = 1

                         Standard orientation:
 ---------------------------------------------------------------------
 Center     Atomic      Atomic             Coordinates (Angstroms)
 Number     Number       Type             X           Y           Z
 ---------------------------------------------------------------------
      1          8           0        0.000000   -0.000000    1.800792
      2          1           0        0.000000    0.799571    2.371924
      3          1           0       -0.000000   -0.799571    2.371924
      4          8           0        0.000000   -0.000000   -1.800792
      5          1           0       -0.000000   -0.799571   -2.371924
      6          1           0        0.000000    0.799571   -2.371924
 ---------------------------------------------------------------------

 SCF Done:  E(RHF) =  -152.104259683     A.U. after   10 cycles
 E2 =    -0.5265725399D+00 EUMP2 =    -0.15263083222329D+03
 CCSD(T)
 CCSD(T)= -0.15265808705D+03

 The electronic state is 1-AG.
 Alpha  occ. eigenvalues --  -20.54342 -20.54342  -1.31643  -1.31599  -0.69064
 Alpha  occ. eigenvalues --   -0.69025  -0.55308  -0.54455  -0.48776  -0.48651
 Alpha virt. eigenvalues --    0.14232   0.16002   0.20620   0.21351   0.53622
 Alpha virt. eigenvalues --    0.57370   0.57977   0.58361   0.60911   0.75739
 Alpha virt. eigenvalues --    0.79164   0.79852   0.80421   0.81030   0.83428

 Mulliken charges:
               1
     1  O   -0.487004
     2  H    0.243502
     3  H    0.243502
     4  O   -0.487004
     5  H    0.243502
     6  H    0.243502
 Sum of Mulliken charges =   0.00000

 Dipole moment (field-independent basis, Debye):
    X=             -0.0000    Y=              0.0000    Z=             -0.0000  Tot=              0.0000
 Quadrupole moment (field-independent basis, Debye-Ang):
   XX=            -14.7089   YY=             -7.8529   ZZ=              2.1928
   XY=              0.0000   XZ=              0.0000   YZ=             -0.0000

 2\MP4DQ=-152.6398615\MP4SDQ=-152.6429633\CCSD=-152.6423567\CCSD(T)=-15
 Normal termination of Gaussian 16 at Sat Aug 27 07:18:15 2022.
