 Gaussian 16, Revision A.03,
 Gaussian 16:  ES64L-G16RevA.03 25-Dec-2016

 ------------------
 #p CCSD(T)/cc-pVTZ
 ------------------

 ------------
 H2O_H2O_4880
 ------------
 Symbolic Z-matrix:
 Charge =  0 Multiplicity = 1

                         Standard orientation:
 ---------------------------------------------------------------------
 Center     Atomic      Atomic             Coordinates (Angstroms)
 Number     Number       Type             X           Y           Z
 ---------------------------------------------------------------------
      1          8           0        0.018360   -3.393018    0.000000
      2          1           0       -0.781477   -3.963778    0.000000
      3          1           0        0.817665   -3.964522    0.000000
      4          8           0        0.018360    3.399063    0.000000
      5          1           0        0.592285    4.196632    0.000000
      6          1           0       -0.922230    3.683309    0.000000
 ---------------------------------------------------------------------

 SCF Done:  E(RHF) =  -152.106982196     A.U. after   10 cycles
 E2 =    -0.5259115311D+00 EUMP2 =    -0.15263289372691D+03
 CCSD(T)
 CCSD(T)= -0.15266012322D+03

 The electronic state is 1-A'.
 Alpha  occ. eigenvalues --  -20.55278 -20.55248  -1.32575  -1.32544  -0.69981
 Alpha  occ. eigenvalues --   -0.69951  -0.56002  -0.55972  -0.49683  -0.49653
 Alpha virt. eigenvalues --    0.14363   0.14395   0.20417   0.20448   0.54586
 Alpha virt. eigenvalues --    0.54619   0.57466   0.57496   0.68219   0.68252
 Alpha virt. eigenvalues --    0.79196   0.79226   0.80637   0.80670   0.82562

 Mulliken charges:
               1
     1  O   -0.506351
     2  H    0.252837
     3  H    0.253514
     4  O   -0.506326
     5  H    0.252672
     6  H    0.253654
 Sum of Mulliken charges =  -0.00000

 Dipole moment (field-independent basis, Debye):
    X=             -0.6314    Y=             -0.1053    Z=              0.0000  Tot=              0.6401
 Quadrupole moment (field-independent basis, Debye-Ang):
   XX=             -8.0132   YY=             14.6174   ZZ=            -14.7109
   XY=             -1.6007   XZ=              0.0000   YZ=              0.0000

 Normal termination of Gaussian 16 at Sat Aug 27 09:51:28 2022.
