 Gaussian 16, Revision A.03,
 Gaussian 16:  ES64L-G16RevA.03 25-Dec-2016

 ------------------
 #p CCSD(T)/cc-pVTZ
 ------------------

 ------------
 H2O_H2O_4924
 ------------
 Symbolic Z-matrix:
 Charge =  0 Multiplicity = 1

                         Standard orientation:
 ---------------------------------------------------------------------
 Center     Atomic      Atomic             Coordinates (Angstroms)
 Number     Number       Type             X           Y           Z
 ---------------------------------------------------------------------
      1          8           0        0.057196   -3.347653    0.000000
      2          1           0       -0.743199   -3.917630    0.000000
      3          1           0        0.855941   -3.919939    0.000000
      4          8           0        0.057196    3.461715    0.000000
      5          1           0       -0.512781    4.262111    0.000000
      6          1           0       -0.515090    2.662969    0.000000
 ---------------------------------------------------------------------

 SCF Done:  E(RHF) =  -152.107658700     A.U. after   10 cycles
 E2 =    -0.5258513306D+00 EUMP2 =    -0.15263351003038D+03
 CCSD(T)
 CCSD(T)= -0.15266072521D+03

 The electronic state is 1-A'.
 Alpha  occ. eigenvalues --  -20.55764 -20.55209  -1.33065  -1.32509  -0.70470
 Alpha  occ. eigenvalues --   -0.69909  -0.56523  -0.55962  -0.50178  -0.49624
 Alpha virt. eigenvalues --    0.13931   0.14489   0.20020   0.20608   0.54088
 Alpha virt. eigenvalues --    0.54659   0.57029   0.57584   0.67643   0.68225
 Alpha virt. eigenvalues --    0.78701   0.79248   0.80128   0.80711   0.82053

 Mulliken charges:
               1
     1  O   -0.510366
     2  H    0.254252
     3  H    0.256115
     4  O   -0.510070
     5  H    0.252936
     6  H    0.257133
 Sum of Mulliken charges =  -0.00000

 Dipole moment (field-independent basis, Debye):
    X=             -1.9678    Y=             -1.9885    Z=              0.0000  Tot=              2.7975
 Quadrupole moment (field-independent basis, Debye-Ang):
   XX=             -9.8649   YY=              3.4991   ZZ=            -14.7126
   XY=             -6.9526   XZ=              0.0000   YZ=              0.0000

 1869\MP4DQ=-152.6426367\MP4SDQ=-152.6456893\CCSD=-152.6451033\CCSD(T)=
 Normal termination of Gaussian 16 at Sat Aug 27 10:09:08 2022.
