 Gaussian 16, Revision A.03,
 Gaussian 16:  ES64L-G16RevA.03 25-Dec-2016

 ------------------
 #p CCSD(T)/cc-pVTZ
 ------------------

 -----------
 H2O_H2O_728
 -----------
 Symbolic Z-matrix:
 Charge =  0 Multiplicity = 1

                         Standard orientation:
 ---------------------------------------------------------------------
 Center     Atomic      Atomic             Coordinates (Angstroms)
 Number     Number       Type             X           Y           Z
 ---------------------------------------------------------------------
      1          8           0        0.011143   -1.187998    0.000000
      2          1           0       -0.788888   -1.758485    0.000000
      3          1           0        0.810253   -1.759775    0.000000
      4          8           0        0.011143    1.190175    0.000000
      5          1           0        0.684505    1.905778    0.000000
      6          1           0       -0.884161    1.595066    0.000000
 ---------------------------------------------------------------------

 SCF Done:  E(RHF) =  -152.087294807     A.U. after   11 cycles
 E2 =    -0.5300603206D+00 EUMP2 =    -0.15261735512800D+03
 CCSD(T)
 CCSD(T)= -0.15264461376D+03

 The electronic state is 1-A'.
 Alpha  occ. eigenvalues --  -20.52862 -20.52796  -1.31076  -1.29830  -0.68279
 Alpha  occ. eigenvalues --   -0.67462  -0.57632  -0.48971  -0.48388  -0.46521
 Alpha virt. eigenvalues --    0.14525   0.17691   0.20565   0.22483   0.50472
 Alpha virt. eigenvalues --    0.58908   0.58959   0.63813   0.72472   0.76707
 Alpha virt. eigenvalues --    0.77304   0.80325   0.84150   0.86563   0.86753

 Mulliken charges:
               1
     1  O   -0.456185
     2  H    0.225064
     3  H    0.230569
     4  O   -0.452603
     5  H    0.221949
     6  H    0.231205
 Sum of Mulliken charges =  -0.00000

 Dipole moment (field-independent basis, Debye):
    X=             -0.3441    Y=             -0.0427    Z=              0.0000  Tot=              0.3468
 Quadrupole moment (field-independent basis, Debye-Ang):
   XX=             -8.0867   YY=             -3.4983   ZZ=            -14.7312
   XY=             -0.1458   XZ=              0.0000   YZ=              0.0000

 Normal termination of Gaussian 16 at Fri Aug 26 19:29:07 2022.
