 Gaussian 16, Revision A.03,
 Gaussian 16:  ES64L-G16RevA.03 25-Dec-2016

 ------------------
 #p CCSD(T)/cc-pVTZ
 ------------------

 ------------
 H2O_H2O_4464
 ------------
 Symbolic Z-matrix:
 Charge =  0 Multiplicity = 1

                         Standard orientation:
 ---------------------------------------------------------------------
 Center     Atomic      Atomic             Coordinates (Angstroms)
 Number     Number       Type             X           Y           Z
 ---------------------------------------------------------------------
      1          8           0        0.045338   -3.146061    0.000000
      2          1           0       -0.754935   -3.716208    0.000000
      3          1           0        0.844206   -3.718177    0.000000
      4          8           0        0.045338    3.190639    0.000000
      5          1           0        0.080186    4.172623    0.000000
      6          1           0       -0.894872    2.905136    0.000000
 ---------------------------------------------------------------------

 SCF Done:  E(RHF) =  -152.107165495     A.U. after   10 cycles
 E2 =    -0.5259009702D+00 EUMP2 =    -0.15263306646566D+03
 CCSD(T)
 CCSD(T)= -0.15266029171D+03

 The electronic state is 1-A'.
 Alpha  occ. eigenvalues --  -20.55428 -20.55171  -1.32726  -1.32468  -0.70132
 Alpha  occ. eigenvalues --   -0.69870  -0.56162  -0.55904  -0.49836  -0.49578
 Alpha virt. eigenvalues --    0.14223   0.14489   0.20289   0.20562   0.54432
 Alpha virt. eigenvalues --    0.54706   0.57329   0.57587   0.68036   0.68318
 Alpha virt. eigenvalues --    0.79044   0.79297   0.80480   0.80757   0.82407

 Mulliken charges:
               1
     1  O   -0.507453
     2  H    0.252716
     3  H    0.254737
     4  O   -0.507271
     5  H    0.251970
     6  H    0.255300
 Sum of Mulliken charges =  -0.00000

 Dipole moment (field-independent basis, Debye):
    X=             -1.5582    Y=             -0.7785    Z=              0.0000  Tot=              1.7418
 Quadrupole moment (field-independent basis, Debye-Ang):
   XX=             -9.0967   YY=              9.6007   ZZ=            -14.7115
   XY=             -4.1520   XZ=              0.0000   YZ=              0.0000

 Normal termination of Gaussian 16 at Sat Aug 27 07:27:40 2022.
