 Gaussian 16, Revision A.03,
 Gaussian 16:  ES64L-G16RevA.03 25-Dec-2016

 ------------------
 #p CCSD(T)/cc-pVTZ
 ------------------

 -----------
 H2O_H2O_378
 -----------
 Symbolic Z-matrix:
 Charge =  0 Multiplicity = 1

                         Standard orientation:
 ---------------------------------------------------------------------
 Center     Atomic      Atomic             Coordinates (Angstroms)
 Number     Number       Type             X           Y           Z
 ---------------------------------------------------------------------
      1          8           0        0.011143   -1.001857    0.000000
      2          1           0       -0.788973   -1.572224    0.000000
      3          1           0        0.810168   -1.573753    0.000000
      4          8           0        0.011143    1.004030    0.000000
      5          1           0        0.684613    1.719534    0.000000
      6          1           0       -0.884100    1.409055    0.000000
 ---------------------------------------------------------------------

 SCF Done:  E(RHF) =  -152.050451829     A.U. after   11 cycles
 E2 =    -0.5352541212D+00 EUMP2 =    -0.15258570595038D+03
 CCSD(T)
 CCSD(T)= -0.15261251718D+03

 The electronic state is 1-A'.
 Alpha  occ. eigenvalues --  -20.51853 -20.51786  -1.31953  -1.28509  -0.68552
 Alpha  occ. eigenvalues --   -0.66495  -0.60996  -0.49167  -0.44942  -0.43614
 Alpha virt. eigenvalues --    0.14646   0.18423   0.20454   0.22856   0.50507
 Alpha virt. eigenvalues --    0.59086   0.59165   0.66124   0.69798   0.77976
 Alpha virt. eigenvalues --    0.79058   0.82886   0.84399   0.86654   0.87345

 Mulliken charges:
               1
     1  O   -0.430326
     2  H    0.211386
     3  H    0.218317
     4  O   -0.424162
     5  H    0.201251
     6  H    0.223533
 Sum of Mulliken charges =  -0.00000

 Dipole moment (field-independent basis, Debye):
    X=             -0.3259    Y=             -0.0465    Z=              0.0000  Tot=              0.3292
 Quadrupole moment (field-independent basis, Debye-Ang):
   XX=             -8.2241   YY=             -5.7299   ZZ=            -14.7506
   XY=             -0.1062   XZ=              0.0000   YZ=              0.0000

 1442\MP4DQ=-152.5929009\MP4SDQ=-152.5964467\CCSD=-152.5956604\CCSD(T)=
 Normal termination of Gaussian 16 at Fri Aug 26 15:50:00 2022.
