 Gaussian 16, Revision A.03,
 Gaussian 16:  ES64L-G16RevA.03 25-Dec-2016

 ------------------
 #p CCSD(T)/cc-pVTZ
 ------------------

 ------------
 H2O_H2O_2851
 ------------
 Symbolic Z-matrix:
 Charge =  0 Multiplicity = 1

                         Standard orientation:
 ---------------------------------------------------------------------
 Center     Atomic      Atomic             Coordinates (Angstroms)
 Number     Number       Type             X           Y           Z
 ---------------------------------------------------------------------
      1          8           0        0.003735   -2.319200    0.000000
      2          1           0       -0.795915   -2.890221    0.000000
      3          1           0        0.803227   -2.890443    0.000000
      4          8           0        0.003735    2.319444    0.000000
      5          1           0        0.764328    2.941542    0.000000
      6          1           0       -0.831406    2.837175    0.000000
 ---------------------------------------------------------------------

 SCF Done:  E(RHF) =  -152.105853194     A.U. after   10 cycles
 E2 =    -0.5260788934D+00 EUMP2 =    -0.15263193208754D+03
 CCSD(T)
 CCSD(T)= -0.15265918058D+03

 The electronic state is 1-A'.
 Alpha  occ. eigenvalues --  -20.54813 -20.54811  -1.32105  -1.32102  -0.69517
 Alpha  occ. eigenvalues --   -0.69513  -0.55512  -0.55433  -0.49208  -0.49199
 Alpha virt. eigenvalues --    0.14383   0.15073   0.20623   0.20833   0.54823
 Alpha virt. eigenvalues --    0.55298   0.57791   0.57897   0.66253   0.71279
 Alpha virt. eigenvalues --    0.79605   0.79733   0.81097   0.81168   0.82405

 Mulliken charges:
               1
     1  O   -0.499663
     2  H    0.249632
     3  H    0.250032
     4  O   -0.499657
     5  H    0.249579
     6  H    0.250077
 Sum of Mulliken charges =  -0.00000

 Dipole moment (field-independent basis, Debye):
    X=             -0.1273    Y=             -0.0043    Z=              0.0000  Tot=              0.1273
 Quadrupole moment (field-independent basis, Debye-Ang):
   XX=             -7.8290   YY=              6.4571   ZZ=            -14.7096
   XY=             -0.1824   XZ=              0.0000   YZ=              0.0000

 Normal termination of Gaussian 16 at Fri Aug 26 16:46:31 2022.
