 Gaussian 16, Revision A.03,
 Gaussian 16:  ES64L-G16RevA.03 25-Dec-2016

 ------------------
 #p CCSD(T)/cc-pVTZ
 ------------------

 -----------
 H2O_H2O_825
 -----------
 Symbolic Z-matrix:
 Charge =  0 Multiplicity = 1

                         Standard orientation:
 ---------------------------------------------------------------------
 Center     Atomic      Atomic             Coordinates (Angstroms)
 Number     Number       Type             X           Y           Z
 ---------------------------------------------------------------------
      1          8           0        0.000000   -0.000000    1.242364
      2          1           0        0.000000    0.799571    1.813496
      3          1           0       -0.000000   -0.799571    1.813496
      4          8           0        0.000000   -0.000000   -1.242364
      5          1           0       -0.000000   -0.799571   -1.813496
      6          1           0        0.000000    0.799571   -1.813496
 ---------------------------------------------------------------------

 SCF Done:  E(RHF) =  -152.091508363     A.U. after   10 cycles
 E2 =    -0.5293022919D+00 EUMP2 =    -0.15262081065451D+03
 CCSD(T)
 CCSD(T)= -0.15264811059D+03

 The electronic state is 1-AG.
 Alpha  occ. eigenvalues --  -20.53018 -20.53017  -1.31004  -1.30081  -0.68274
 Alpha  occ. eigenvalues --   -0.67661  -0.57079  -0.49865  -0.48302  -0.46828
 Alpha virt. eigenvalues --    0.14516   0.17540   0.20579   0.22335   0.50316
 Alpha virt. eigenvalues --    0.58833   0.58915   0.63315   0.73308   0.76698
 Alpha virt. eigenvalues --    0.77108   0.79409   0.84025   0.84642   0.86518

 Mulliken charges:
               1
     1  O   -0.458525
     2  H    0.229262
     3  H    0.229262
     4  O   -0.458525
     5  H    0.229262
     6  H    0.229262
 Sum of Mulliken charges =   0.00000

 Dipole moment (field-independent basis, Debye):
    X=             -0.0000    Y=              0.0000    Z=              0.0000  Tot=              0.0000
 Quadrupole moment (field-independent basis, Debye-Ang):
   XX=            -14.7258   YY=             -7.9865   ZZ=             -2.9269
   XY=              0.0000   XZ=             -0.0000   YZ=             -0.0000

 \MP4DQ=-152.6293784\MP4SDQ=-152.6326276\CCSD=-152.6319729\CCSD(T)=-152
 Normal termination of Gaussian 16 at Fri Aug 26 20:21:12 2022.
