 Gaussian 16, Revision A.03,
 Gaussian 16:  ES64L-G16RevA.03 25-Dec-2016

 ------------------
 #p CCSD(T)/cc-pVTZ
 ------------------

 ------------
 H2O_H2O_3027
 ------------
 Symbolic Z-matrix:
 Charge =  0 Multiplicity = 1

                         Standard orientation:
 ---------------------------------------------------------------------
 Center     Atomic      Atomic             Coordinates (Angstroms)
 Number     Number       Type             X           Y           Z
 ---------------------------------------------------------------------
      1          8           0        0.007455   -2.411875    0.000000
      2          1           0       -0.792268   -2.982795    0.000000
      3          1           0        0.806874   -2.983220    0.000000
      4          8           0        0.007455    2.412849    0.000000
      5          1           0        0.725816    3.083269    0.000000
      6          1           0       -0.859701    2.874960    0.000000
 ---------------------------------------------------------------------

 SCF Done:  E(RHF) =  -152.106030389     A.U. after   10 cycles
 E2 =    -0.5260457031D+00 EUMP2 =    -0.15263207609217D+03
 CCSD(T)
 CCSD(T)= -0.15265932243D+03

 The electronic state is 1-A'.
 Alpha  occ. eigenvalues --  -20.54879 -20.54869  -1.32171  -1.32161  -0.69582
 Alpha  occ. eigenvalues --   -0.69571  -0.55570  -0.55522  -0.49273  -0.49262
 Alpha virt. eigenvalues --    0.14417   0.14950   0.20607   0.20776   0.54841
 Alpha virt. eigenvalues --    0.55153   0.57756   0.57838   0.67008   0.70447
 Alpha virt. eigenvalues --    0.79571   0.79642   0.81015   0.81119   0.82598

 Mulliken charges:
               1
     1  O   -0.500751
     2  H    0.250017
     3  H    0.250735
     4  O   -0.500728
     5  H    0.249907
     6  H    0.250820
 Sum of Mulliken charges =  -0.00000

 Dipole moment (field-independent basis, Debye):
    X=             -0.2544    Y=             -0.0172    Z=              0.0000  Tot=              0.2550
 Quadrupole moment (field-independent basis, Debye-Ang):
   XX=             -7.8518   YY=              7.1761   ZZ=            -14.7097
   XY=             -0.3891   XZ=              0.0000   YZ=              0.0000

 7623\MP4DQ=-152.6411934\MP4SDQ=-152.6442615\CCSD=-152.64367\CCSD(T)=-1
 Normal termination of Gaussian 16 at Fri Aug 26 18:39:20 2022.
