 Gaussian 16, Revision A.03,
 Gaussian 16:  ES64L-G16RevA.03 25-Dec-2016

 ------------------
 #p CCSD(T)/cc-pVTZ
 ------------------

 ------------
 H2O_H2O_1035
 ------------
 Symbolic Z-matrix:
 Charge =  0 Multiplicity = 1

                         Standard orientation:
 ---------------------------------------------------------------------
 Center     Atomic      Atomic             Coordinates (Angstroms)
 Number     Number       Type             X           Y           Z
 ---------------------------------------------------------------------
      1          8           0        0.034794   -1.335993    0.000000
      2          1           0       -0.766043   -1.905348    0.000000
      3          1           0        0.833095   -1.908900    0.000000
      4          8           0        0.034794    1.359443    0.000000
      5          1           0        0.323541    2.298662    0.000000
      6          1           0       -0.947304    1.327986    0.000000
 ---------------------------------------------------------------------

 SCF Done:  E(RHF) =  -152.099511116     A.U. after   11 cycles
 E2 =    -0.5282781718D+00 EUMP2 =    -0.15262778928771D+03
 CCSD(T)
 CCSD(T)= -0.15265505183D+03

 The electronic state is 1-A'.
 Alpha  occ. eigenvalues --  -20.54069 -20.53385  -1.31555  -1.30614  -0.68952
 Alpha  occ. eigenvalues --   -0.68112  -0.56212  -0.52176  -0.48759  -0.47553
 Alpha virt. eigenvalues --    0.14177   0.17102   0.20376   0.22622   0.52707
 Alpha virt. eigenvalues --    0.58230   0.58500   0.60213   0.69568   0.76559
 Alpha virt. eigenvalues --    0.76751   0.77547   0.82339   0.83328   0.85867

 Mulliken charges:
               1
     1  O   -0.472471
     2  H    0.229784
     3  H    0.243070
     4  O   -0.462544
     5  H    0.221561
     6  H    0.240600
 Sum of Mulliken charges =  -0.00000

 Dipole moment (field-independent basis, Debye):
    X=             -1.1096    Y=             -0.4516    Z=              0.0000  Tot=              1.1980
 Quadrupole moment (field-independent basis, Debye-Ang):
   XX=             -8.6699   YY=             -2.1779   ZZ=            -14.7186
   XY=             -0.8365   XZ=              0.0000   YZ=              0.0000

 Normal termination of Gaussian 16 at Sat Aug 27 01:34:19 2022.
