 Gaussian 16, Revision A.03,
 Gaussian 16:  ES64L-G16RevA.03 25-Dec-2016

 ------------------
 #p CCSD(T)/cc-pVTZ
 ------------------

 ------------
 H2O_H2O_4501
 ------------
 Symbolic Z-matrix:
 Charge =  0 Multiplicity = 1

                         Standard orientation:
 ---------------------------------------------------------------------
 Center     Atomic      Atomic             Coordinates (Angstroms)
 Number     Number       Type             X           Y           Z
 ---------------------------------------------------------------------
      1          8           0        0.003735   -3.196730    0.000000
      2          1           0       -0.795893   -3.767782    0.000000
      3          1           0        0.803249   -3.767943    0.000000
      4          8           0        0.003735    3.196974    0.000000
      5          1           0        0.764304    3.819101    0.000000
      6          1           0       -0.831426    3.714673    0.000000
 ---------------------------------------------------------------------

 SCF Done:  E(RHF) =  -152.106838757     A.U. after   10 cycles
 E2 =    -0.5259275843D+00 EUMP2 =    -0.15263276634169D+03
 CCSD(T)
 CCSD(T)= -0.15265999866D+03

 The electronic state is 1-A'.
 Alpha  occ. eigenvalues --  -20.55199 -20.55198  -1.32495  -1.32494  -0.69902
 Alpha  occ. eigenvalues --   -0.69901  -0.55916  -0.55915  -0.49603  -0.49601
 Alpha virt. eigenvalues --    0.14421   0.14442   0.20472   0.20482   0.54665
 Alpha virt. eigenvalues --    0.54670   0.57533   0.57538   0.68297   0.68340
 Alpha virt. eigenvalues --    0.79276   0.79278   0.80720   0.80722   0.82647

 Mulliken charges:
               1
     1  O   -0.505505
     2  H    0.252671
     3  H    0.252835
     4  O   -0.505504
     5  H    0.252638
     6  H    0.252867
 Sum of Mulliken charges =  -0.00000

 Dipole moment (field-independent basis, Debye):
    X=             -0.1284    Y=             -0.0043    Z=              0.0000  Tot=              0.1284
 Quadrupole moment (field-independent basis, Debye-Ang):
   XX=             -7.8114   YY=             13.5217   ZZ=            -14.7107
   XY=             -0.2934   XZ=              0.0000   YZ=              0.0000

 Normal termination of Gaussian 16 at Sat Aug 27 07:40:46 2022.
