 Gaussian 16, Revision A.03,
 Gaussian 16:  ES64L-G16RevA.03 25-Dec-2016

 ------------------
 #p CCSD(T)/cc-pVTZ
 ------------------

 ------------
 H2O_H2O_4909
 ------------
 Symbolic Z-matrix:
 Charge =  0 Multiplicity = 1

                         Standard orientation:
 ---------------------------------------------------------------------
 Center     Atomic      Atomic             Coordinates (Angstroms)
 Number     Number       Type             X           Y           Z
 ---------------------------------------------------------------------
      1          8           0        0.031738   -3.399170    0.000000
      2          1           0       -0.768290   -3.969661    0.000000
      3          1           0        0.830851   -3.970942    0.000000
      4          8           0        0.031738    3.418369    0.000000
      5          1           0        0.379989    4.337188    0.000000
      6          1           0       -0.950360    3.449817    0.000000
 ---------------------------------------------------------------------

 SCF Done:  E(RHF) =  -152.107069197     A.U. after   10 cycles
 E2 =    -0.5259039997D+00 EUMP2 =    -0.15263297319663D+03
 CCSD(T)
 CCSD(T)= -0.15266020084D+03

 The electronic state is 1-A'.
 Alpha  occ. eigenvalues --  -20.55342 -20.55247  -1.32639  -1.32543  -0.70045
 Alpha  occ. eigenvalues --   -0.69948  -0.56070  -0.55975  -0.49748  -0.49653
 Alpha virt. eigenvalues --    0.14307   0.14402   0.20365   0.20463   0.54521
 Alpha virt. eigenvalues --    0.54623   0.57409   0.57504   0.68145   0.68241
 Alpha virt. eigenvalues --    0.79132   0.79226   0.80570   0.80673   0.82495

 Mulliken charges:
               1
     1  O   -0.506869
     2  H    0.252856
     3  H    0.254012
     4  O   -0.506798
     5  H    0.252520
     6  H    0.254278
 Sum of Mulliken charges =  -0.00000

 Dipole moment (field-independent basis, Debye):
    X=             -1.0917    Y=             -0.3344    Z=              0.0000  Tot=              1.1417
 Quadrupole moment (field-independent basis, Debye-Ang):
   XX=             -8.4355   YY=             13.5506   ZZ=            -14.7111
   XY=             -2.9128   XZ=              0.0000   YZ=              0.0000

 Normal termination of Gaussian 16 at Sat Aug 27 10:04:24 2022.
