 Gaussian 16, Revision A.03,
 Gaussian 16:  ES64L-G16RevA.03 25-Dec-2016

 ------------------
 #p CCSD(T)/cc-pVTZ
 ------------------

 ----------
 H2O_H2O_78
 ----------
 Symbolic Z-matrix:
 Charge =  0 Multiplicity = 1

                         Standard orientation:
 ---------------------------------------------------------------------
 Center     Atomic      Atomic             Coordinates (Angstroms)
 Number     Number       Type             X           Y           Z
 ---------------------------------------------------------------------
      1          8           0        0.011143   -0.842308    0.000000
      2          1           0       -0.789076   -1.412530    0.000000
      3          1           0        0.810065   -1.414349    0.000000
      4          8           0        0.011143    0.844477    0.000000
      5          1           0        0.684742    1.559859    0.000000
      6          1           0       -0.884026    1.249665    0.000000
 ---------------------------------------------------------------------

 SCF Done:  E(RHF) =  -151.951226253     A.U. after   11 cycles
 E2 =    -0.5478311485D+00 EUMP2 =    -0.15249905740148D+03
 CCSD(T)
 CCSD(T)= -0.15252405527D+03

 The electronic state is 1-A'.
 Alpha  occ. eigenvalues --  -20.51303 -20.51241  -1.35575  -1.27083  -0.70470
 Alpha  occ. eigenvalues --   -0.67488  -0.64915  -0.51986  -0.43322  -0.34766
 Alpha virt. eigenvalues --    0.14500   0.19506   0.19925   0.23090   0.50820
 Alpha virt. eigenvalues --    0.58594   0.59178   0.66573   0.68393   0.79223
 Alpha virt. eigenvalues --    0.80582   0.83964   0.84045   0.85994   0.87995

 Mulliken charges:
               1
     1  O   -0.362560
     2  H    0.175413
     3  H    0.187337
     4  O   -0.355507
     5  H    0.154228
     6  H    0.201089
 Sum of Mulliken charges =  -0.00000

 Dipole moment (field-independent basis, Debye):
    X=             -0.3187    Y=             -0.0590    Z=              0.0000  Tot=              0.3241
 Quadrupole moment (field-independent basis, Debye-Ang):
   XX=             -8.5116   YY=             -8.5008   ZZ=            -14.7647
   XY=             -0.1507   XZ=              0.0000   YZ=              0.0000

 Normal termination of Gaussian 16 at Fri Aug 26 12:33:03 2022.
