 Gaussian 16, Revision A.03,
 Gaussian 16:  ES64L-G16RevA.03 25-Dec-2016

 ------------------
 #p CCSD(T)/cc-pVTZ
 ------------------

 -----------
 H2O_H2O_701
 -----------
 Symbolic Z-matrix:
 Charge =  0 Multiplicity = 1

                         Standard orientation:
 ---------------------------------------------------------------------
 Center     Atomic      Atomic             Coordinates (Angstroms)
 Number     Number       Type             X           Y           Z
 ---------------------------------------------------------------------
      1          8           0        0.003735   -1.175753    0.000000
      2          1           0       -0.795992   -1.746666    0.000000
      3          1           0        0.803150   -1.747103    0.000000
      4          8           0        0.003735    1.175995    0.000000
      5          1           0        0.764411    1.797990    0.000000
      6          1           0       -0.831336    1.693838    0.000000
 ---------------------------------------------------------------------

 SCF Done:  E(RHF) =  -152.085567233     A.U. after   10 cycles
 E2 =    -0.5302853394D+00 EUMP2 =    -0.15261585257281D+03
 CCSD(T)
 CCSD(T)= -0.15264310324D+03

 The electronic state is 1-A'.
 Alpha  occ. eigenvalues --  -20.52734 -20.52726  -1.31056  -1.29732  -0.68229
 Alpha  occ. eigenvalues --   -0.67371  -0.57831  -0.48598  -0.48371  -0.46401
 Alpha virt. eigenvalues --    0.14551   0.17771   0.20578   0.22469   0.50215
 Alpha virt. eigenvalues --    0.58978   0.58985   0.64169   0.72720   0.76780
 Alpha virt. eigenvalues --    0.77588   0.80365   0.84224   0.86605   0.86750

 Mulliken charges:
               1
     1  O   -0.453844
     2  H    0.225955
     3  H    0.227820
     4  O   -0.453408
     5  H    0.225119
     6  H    0.228359
 Sum of Mulliken charges =  -0.00000

 Dipole moment (field-independent basis, Debye):
    X=             -0.1150    Y=             -0.0048    Z=              0.0000  Tot=              0.1151
 Quadrupole moment (field-independent basis, Debye-Ang):
   XX=             -8.0295   YY=             -3.6356   ZZ=            -14.7333
   XY=             -0.0456   XZ=              0.0000   YZ=              0.0000

 Normal termination of Gaussian 16 at Fri Aug 26 19:13:33 2022.
