 Gaussian 16, Revision A.03,
 Gaussian 16:  ES64L-G16RevA.03 25-Dec-2016

 ------------------
 #p CCSD(T)/cc-pVTZ
 ------------------

 ------------
 H2O_H2O_3956
 ------------
 Symbolic Z-matrix:
 Charge =  0 Multiplicity = 1

                         Standard orientation:
 ---------------------------------------------------------------------
 Center     Atomic      Atomic             Coordinates (Angstroms)
 Number     Number       Type             X           Y           Z
 ---------------------------------------------------------------------
      1          8           0        0.021859   -2.899646    0.000000
      2          1           0       -0.778082   -3.470260    0.000000
      3          1           0        0.821060   -3.471296    0.000000
      4          8           0        0.021859    2.908312    0.000000
      5          1           0        0.542544    3.741615    0.000000
      6          1           0       -0.935267    3.130607    0.000000
 ---------------------------------------------------------------------

 SCF Done:  E(RHF) =  -152.106708188     A.U. after   10 cycles
 E2 =    -0.5259480486D+00 EUMP2 =    -0.15263265623644D+03
 CCSD(T)
 CCSD(T)= -0.15265989081D+03

 The electronic state is 1-A'.
 Alpha  occ. eigenvalues --  -20.55158 -20.55099  -1.32454  -1.32394  -0.69862
 Alpha  occ. eigenvalues --   -0.69800  -0.55868  -0.55809  -0.49560  -0.49501
 Alpha virt. eigenvalues --    0.14431   0.14549   0.20491   0.20568   0.54704
 Alpha virt. eigenvalues --    0.54778   0.57564   0.57627   0.68263   0.68551
 Alpha virt. eigenvalues --    0.79318   0.79377   0.80763   0.80830   0.82696

 Mulliken charges:
               1
     1  O   -0.504746
     2  H    0.251744
     3  H    0.253003
     4  O   -0.504672
     5  H    0.251451
     6  H    0.253220
 Sum of Mulliken charges =  -0.00000

 Dipole moment (field-independent basis, Debye):
    X=             -0.7499    Y=             -0.1517    Z=              0.0000  Tot=              0.7651
 Quadrupole moment (field-independent basis, Debye-Ang):
   XX=             -8.1062   YY=             10.6014   ZZ=            -14.7106
   XY=             -1.5574   XZ=              0.0000   YZ=              0.0000

 Normal termination of Gaussian 16 at Sat Aug 27 04:33:11 2022.
