 Gaussian 16, Revision A.03,
 Gaussian 16:  ES64L-G16RevA.03 25-Dec-2016

 ------------------
 #p CCSD(T)/cc-pVTZ
 ------------------

 ------------
 H2O_H2O_4709
 ------------
 Symbolic Z-matrix:
 Charge =  0 Multiplicity = 1

                         Standard orientation:
 ---------------------------------------------------------------------
 Center     Atomic      Atomic             Coordinates (Angstroms)
 Number     Number       Type             X           Y           Z
 ---------------------------------------------------------------------
      1          8           0        0.031738   -3.292804    0.000000
      2          1           0       -0.768305   -3.863274    0.000000
      3          1           0        0.830837   -3.864597    0.000000
      4          8           0        0.031738    3.312002    0.000000
      5          1           0        0.380013    4.230811    0.000000
      6          1           0       -0.950359    3.343474    0.000000
 ---------------------------------------------------------------------

 SCF Done:  E(RHF) =  -152.107027389     A.U. after   10 cycles
 E2 =    -0.5259094969D+00 EUMP2 =    -0.15263293688638D+03
 CCSD(T)
 CCSD(T)= -0.15266016530D+03

 The electronic state is 1-A'.
 Alpha  occ. eigenvalues --  -20.55321 -20.55220  -1.32618  -1.32516  -0.70025
 Alpha  occ. eigenvalues --   -0.69921  -0.56048  -0.55946  -0.49727  -0.49625
 Alpha virt. eigenvalues --    0.14323   0.14426   0.20379   0.20485   0.54542
 Alpha virt. eigenvalues --    0.54651   0.57426   0.57528   0.68170   0.68275
 Alpha virt. eigenvalues --    0.79153   0.79253   0.80592   0.80702   0.82518

 Mulliken charges:
               1
     1  O   -0.506624
     2  H    0.252679
     3  H    0.253945
     4  O   -0.506543
     5  H    0.252315
     6  H    0.254227
 Sum of Mulliken charges =  -0.00000

 Dipole moment (field-independent basis, Debye):
    X=             -1.0912    Y=             -0.3347    Z=              0.0000  Tot=              1.1414
 Quadrupole moment (field-independent basis, Debye-Ang):
   XX=             -8.4360   YY=             12.7728   ZZ=            -14.7111
   XY=             -2.7975   XZ=              0.0000   YZ=              0.0000

 Normal termination of Gaussian 16 at Sat Aug 27 08:52:53 2022.
