 Gaussian 16, Revision A.03,
 Gaussian 16:  ES64L-G16RevA.03 25-Dec-2016

 ------------------
 #p CCSD(T)/cc-pVTZ
 ------------------

 ------------
 H2O_H2O_4692
 ------------
 Symbolic Z-matrix:
 Charge =  0 Multiplicity = 1

                         Standard orientation:
 ---------------------------------------------------------------------
 Center     Atomic      Atomic             Coordinates (Angstroms)
 Number     Number       Type             X           Y           Z
 ---------------------------------------------------------------------
      1          8           0        0.051266   -3.255411    0.000000
      2          1           0       -0.749070   -3.825470    0.000000
      3          1           0        0.850070   -3.827615    0.000000
      4          8           0        0.051266    3.318979    0.000000
      5          1           0       -0.106024    4.288910    0.000000
      6          1           0       -0.815230    2.855633    0.000000
 ---------------------------------------------------------------------

 SCF Done:  E(RHF) =  -152.107333016     A.U. after   10 cycles
 E2 =    -0.5258835538D+00 EUMP2 =    -0.15263321657023D+03
 CCSD(T)
 CCSD(T)= -0.15266043841D+03

 The electronic state is 1-A'.
 Alpha  occ. eigenvalues --  -20.55537 -20.55198  -1.32835  -1.32495  -0.70242
 Alpha  occ. eigenvalues --   -0.69896  -0.56279  -0.55938  -0.49946  -0.49607
 Alpha virt. eigenvalues --    0.14131   0.14474   0.20204   0.20563   0.54321
 Alpha virt. eigenvalues --    0.54678   0.57233   0.57573   0.67912   0.68267
 Alpha virt. eigenvalues --    0.78933   0.79268   0.80366   0.80728   0.82291

 Mulliken charges:
               1
     1  O   -0.508441
     2  H    0.253208
     3  H    0.255233
     4  O   -0.508240
     5  H    0.252312
     6  H    0.255927
 Sum of Mulliken charges =  -0.00000

 Dipole moment (field-independent basis, Debye):
    X=             -1.7629    Y=             -1.1091    Z=              0.0000  Tot=              2.0828
 Quadrupole moment (field-independent basis, Debye-Ang):
   XX=             -9.4578   YY=              8.5131   ZZ=            -14.7118
   XY=             -5.2100   XZ=              0.0000   YZ=              0.0000

 Normal termination of Gaussian 16 at Sat Aug 27 08:47:06 2022.
