 Gaussian 16, Revision A.03,
 Gaussian 16:  ES64L-G16RevA.03 25-Dec-2016

 ------------------
 #p CCSD(T)/cc-pVTZ
 ------------------

 ----------
 H2O_H2O_89
 ----------
 Symbolic Z-matrix:
 Charge =  0 Multiplicity = 1

                         Standard orientation:
 ---------------------------------------------------------------------
 Center     Atomic      Atomic             Coordinates (Angstroms)
 Number     Number       Type             X           Y           Z
 ---------------------------------------------------------------------
      1          8           0        0.045414   -0.819437    0.000000
      2          1           0       -0.756795   -1.386857    0.000000
      3          1           0        0.842329   -1.394269    0.000000
      4          8           0        0.045414    0.863707    0.000000
      5          1           0        0.083604    1.845566    0.000000
      6          1           0       -0.895762    0.581407    0.000000
 ---------------------------------------------------------------------

 SCF Done:  E(RHF) =  -151.958327229     A.U. after   12 cycles
 E2 =    -0.5469223974D+00 EUMP2 =    -0.15250524962664D+03
 CCSD(T)
 CCSD(T)= -0.15253059007D+03

 The electronic state is 1-A'.
 Alpha  occ. eigenvalues --  -20.52995 -20.51229  -1.37489  -1.26822  -0.73978
 Alpha  occ. eigenvalues --   -0.69933  -0.58324  -0.53118  -0.43579  -0.39067
 Alpha virt. eigenvalues --    0.13919   0.19017   0.19718   0.23980   0.52665
 Alpha virt. eigenvalues --    0.56533   0.58784   0.65669   0.73281   0.77233
 Alpha virt. eigenvalues --    0.81436   0.81662   0.82238   0.84016   0.89007

 Mulliken charges:
               1
     1  O   -0.348766
     2  H    0.160956
     3  H    0.197430
     4  O   -0.354554
     5  H    0.110471
     6  H    0.234463
 Sum of Mulliken charges =  -0.00000

 Dipole moment (field-independent basis, Debye):
    X=             -1.2091    Y=             -1.0169    Z=              0.0000  Tot=              1.5799
 Quadrupole moment (field-independent basis, Debye-Ang):
   XX=             -9.3523   YY=             -8.4055   ZZ=            -14.6479
   XY=             -0.7091   XZ=              0.0000   YZ=              0.0000

 Normal termination of Gaussian 16 at Fri Aug 26 12:39:10 2022.
