 Gaussian 16, Revision A.03,
 Gaussian 16:  ES64L-G16RevA.03 25-Dec-2016

 ------------------
 #p CCSD(T)/cc-pVTZ
 ------------------

 -----------
 H2O_H2O_900
 -----------
 Symbolic Z-matrix:
 Charge =  0 Multiplicity = 1

                         Standard orientation:
 ---------------------------------------------------------------------
 Center     Atomic      Atomic             Coordinates (Angstroms)
 Number     Number       Type             X           Y           Z
 ---------------------------------------------------------------------
      1          8           0        0.000000   -0.000000    1.282252
      2          1           0        0.000000    0.799571    1.853384
      3          1           0       -0.000000   -0.799571    1.853384
      4          8           0        0.000000   -0.000000   -1.282252
      5          1           0       -0.000000   -0.799571   -1.853384
      6          1           0        0.000000    0.799571   -1.853384
 ---------------------------------------------------------------------

 SCF Done:  E(RHF) =  -152.094064422     A.U. after   10 cycles
 E2 =    -0.5288502466D+00 EUMP2 =    -0.15262291466859D+03
 CCSD(T)
 CCSD(T)= -0.15265022873D+03

 The electronic state is 1-AG.
 Alpha  occ. eigenvalues --  -20.53173 -20.53173  -1.31010  -1.30266  -0.68321
 Alpha  occ. eigenvalues --   -0.67818  -0.56722  -0.50507  -0.48293  -0.47054
 Alpha virt. eigenvalues --    0.14498   0.17404   0.20575   0.22259   0.50434
 Alpha virt. eigenvalues --    0.58743   0.58876   0.62790   0.73200   0.76745
 Alpha virt. eigenvalues --    0.76854   0.78930   0.82278   0.83875   0.86461

 Mulliken charges:
               1
     1  O   -0.460862
     2  H    0.230431
     3  H    0.230431
     4  O   -0.460862
     5  H    0.230431
     6  H    0.230431
 Sum of Mulliken charges =   0.00000

 Dipole moment (field-independent basis, Debye):
    X=             -0.0000    Y=              0.0000    Z=             -0.0000  Tot=              0.0000
 Quadrupole moment (field-independent basis, Debye-Ang):
   XX=            -14.7219   YY=             -7.9686   ZZ=             -2.5189
   XY=              0.0000   XZ=             -0.0000   YZ=             -0.0000

 MP4DQ=-152.6315724\MP4SDQ=-152.6347992\CCSD=-152.6341524\CCSD(T)=-152.
 Normal termination of Gaussian 16 at Fri Aug 26 20:59:45 2022.
