 Gaussian 16, Revision A.03,
 Gaussian 16:  ES64L-G16RevA.03 25-Dec-2016

 ------------------
 #p CCSD(T)/cc-pVTZ
 ------------------

 ------------
 H2O_H2O_2098
 ------------
 Symbolic Z-matrix:
 Charge =  0 Multiplicity = 1

                         Standard orientation:
 ---------------------------------------------------------------------
 Center     Atomic      Atomic             Coordinates (Angstroms)
 Number     Number       Type             X           Y           Z
 ---------------------------------------------------------------------
      1          8           0        0.057128   -1.849340    0.000000
      2          1           0       -0.743913   -2.418408    0.000000
      3          1           0        0.855224   -2.422532    0.000000
      4          8           0        0.057128    1.955802    0.000000
      5          1           0       -0.458331    2.792346    0.000000
      6          1           0       -0.567035    1.196902    0.000000
 ---------------------------------------------------------------------

 SCF Done:  E(RHF) =  -152.108979900     A.U. after   10 cycles
 E2 =    -0.5262791883D+00 EUMP2 =    -0.15263525908878D+03
 CCSD(T)
 CCSD(T)= -0.15266240197D+03

 The electronic state is 1-A'.
 Alpha  occ. eigenvalues --  -20.56173 -20.54144  -1.33441  -1.31447  -0.70846
 Alpha  occ. eigenvalues --   -0.68814  -0.56924  -0.54920  -0.50564  -0.48578
 Alpha virt. eigenvalues --    0.12946   0.16293   0.19759   0.23507   0.53577
 Alpha virt. eigenvalues --    0.55319   0.56715   0.58492   0.66530   0.73845
 Alpha virt. eigenvalues --    0.78039   0.79250   0.79793   0.80413   0.83750

 Mulliken charges:
               1
     1  O   -0.503426
     2  H    0.249779
     3  H    0.258579
     4  O   -0.514200
     5  H    0.245429
     6  H    0.263838
 Sum of Mulliken charges =  -0.00000

 Dipole moment (field-independent basis, Debye):
    X=             -1.9239    Y=             -1.9782    Z=              0.0000  Tot=              2.7595
 Quadrupole moment (field-independent basis, Debye-Ang):
   XX=             -9.8516   YY=             -2.0153   ZZ=            -14.7188
   XY=             -3.8959   XZ=              0.0000   YZ=              0.0000

 Normal termination of Gaussian 16 at Sat Aug 27 08:34:28 2022.
