 Gaussian 16, Revision A.03,
 Gaussian 16:  ES64L-G16RevA.03 25-Dec-2016

 ------------------
 #p CCSD(T)/cc-pVTZ
 ------------------

 ------------
 H2O_H2O_2576
 ------------
 Symbolic Z-matrix:
 Charge =  0 Multiplicity = 1

                         Standard orientation:
 ---------------------------------------------------------------------
 Center     Atomic      Atomic             Coordinates (Angstroms)
 Number     Number       Type             X           Y           Z
 ---------------------------------------------------------------------
      1          8           0        0.003735   -2.172945    0.000000
      2          1           0       -0.795920   -2.743959    0.000000
      3          1           0        0.803222   -2.744196    0.000000
      4          8           0        0.003735    2.173189    0.000000
      5          1           0        0.764333    2.795280    0.000000
      6          1           0       -0.831401    2.690927    0.000000
 ---------------------------------------------------------------------

 SCF Done:  E(RHF) =  -152.105552471     A.U. after   10 cycles
 E2 =    -0.5261515592D+00 EUMP2 =    -0.15263170402982D+03
 CCSD(T)
 CCSD(T)= -0.15265895423D+03

 The electronic state is 1-A'.
 Alpha  occ. eigenvalues --  -20.54710 -20.54707  -1.31999  -1.31993  -0.69414
 Alpha  occ. eigenvalues --   -0.69407  -0.55430  -0.55262  -0.49105  -0.49085
 Alpha virt. eigenvalues --    0.14306   0.15299   0.20636   0.20944   0.54712
 Alpha virt. eigenvalues --    0.55620   0.57840   0.58004   0.64604   0.72861
 Alpha virt. eigenvalues --    0.79623   0.79927   0.81165   0.81320   0.81961

 Mulliken charges:
               1
     1  O   -0.497642
     2  H    0.248583
     3  H    0.249060
     4  O   -0.497634
     5  H    0.248527
     6  H    0.249105
 Sum of Mulliken charges =  -0.00000

 Dipole moment (field-independent basis, Debye):
    X=             -0.1269    Y=             -0.0044    Z=              0.0000  Tot=              0.1270
 Quadrupole moment (field-independent basis, Debye-Ang):
   XX=             -7.8351   YY=              5.2660   ZZ=            -14.7095
   XY=             -0.1641   XZ=              0.0000   YZ=              0.0000

 Normal termination of Gaussian 16 at Fri Aug 26 13:55:25 2022.
