 Gaussian 16, Revision A.03,
 Gaussian 16:  ES64L-G16RevA.03 25-Dec-2016

 ------------------
 #p CCSD(T)/cc-pVTZ
 ------------------

 ------------
 H2O_H2O_4734
 ------------
 Symbolic Z-matrix:
 Charge =  0 Multiplicity = 1

                         Standard orientation:
 ---------------------------------------------------------------------
 Center     Atomic      Atomic             Coordinates (Angstroms)
 Number     Number       Type             X           Y           Z
 ---------------------------------------------------------------------
      1          8           0        0.031738   -3.306099    0.000000
      2          1           0       -0.768303   -3.876572    0.000000
      3          1           0        0.830839   -3.877889    0.000000
      4          8           0        0.031738    3.325297    0.000000
      5          1           0        0.380010    4.244108    0.000000
      6          1           0       -0.950359    3.356767    0.000000
 ---------------------------------------------------------------------

 SCF Done:  E(RHF) =  -152.107032910     A.U. after   10 cycles
 E2 =    -0.5259087707D+00 EUMP2 =    -0.15263294168030D+03
 CCSD(T)
 CCSD(T)= -0.15266016999D+03

 The electronic state is 1-A'.
 Alpha  occ. eigenvalues --  -20.55324 -20.55224  -1.32621  -1.32520  -0.70027
 Alpha  occ. eigenvalues --   -0.69925  -0.56051  -0.55950  -0.49729  -0.49629
 Alpha virt. eigenvalues --    0.14321   0.14423   0.20377   0.20482   0.54539
 Alpha virt. eigenvalues --    0.54647   0.57424   0.57525   0.68166   0.68271
 Alpha virt. eigenvalues --    0.79150   0.79249   0.80589   0.80698   0.82515

 Mulliken charges:
               1
     1  O   -0.506656
     2  H    0.252702
     3  H    0.253954
     4  O   -0.506576
     5  H    0.252342
     6  H    0.254234
 Sum of Mulliken charges =  -0.00000

 Dipole moment (field-independent basis, Debye):
    X=             -1.0913    Y=             -0.3346    Z=              0.0000  Tot=              1.1414
 Quadrupole moment (field-independent basis, Debye-Ang):
   XX=             -8.4359   YY=             12.8701   ZZ=            -14.7111
   XY=             -2.8119   XZ=              0.0000   YZ=              0.0000

 Normal termination of Gaussian 16 at Sat Aug 27 09:02:31 2022.
