 Gaussian 16, Revision A.03,
 Gaussian 16:  ES64L-G16RevA.03 25-Dec-2016

 ------------------
 #p CCSD(T)/cc-pVTZ
 ------------------

 ------------
 H2O_H2O_4762
 ------------
 Symbolic Z-matrix:
 Charge =  0 Multiplicity = 1

                         Standard orientation:
 ---------------------------------------------------------------------
 Center     Atomic      Atomic             Coordinates (Angstroms)
 Number     Number       Type             X           Y           Z
 ---------------------------------------------------------------------
      1          8           0        0.040403   -3.311698    0.000000
      2          1           0       -0.759765   -3.881994    0.000000
      3          1           0        0.839377   -3.883665    0.000000
      4          8           0        0.040403    3.345070    0.000000
      5          1           0        0.202946    4.314133    0.000000
      6          1           0       -0.929000    3.184551    0.000000
 ---------------------------------------------------------------------

 SCF Done:  E(RHF) =  -152.107133257     A.U. after   10 cycles
 E2 =    -0.5259000086D+00 EUMP2 =    -0.15263303326603D+03
 CCSD(T)
 CCSD(T)= -0.15266025944D+03

 The electronic state is 1-A'.
 Alpha  occ. eigenvalues --  -20.55395 -20.55222  -1.32692  -1.32518  -0.70099
 Alpha  occ. eigenvalues --   -0.69922  -0.56127  -0.55953  -0.49802  -0.49628
 Alpha virt. eigenvalues --    0.14259   0.14433   0.20320   0.20501   0.54466
 Alpha virt. eigenvalues --    0.54652   0.57360   0.57534   0.68083   0.68261
 Alpha virt. eigenvalues --    0.79078   0.79249   0.80515   0.80702   0.82440

 Mulliken charges:
               1
     1  O   -0.507252
     2  H    0.252841
     3  H    0.254411
     4  O   -0.507132
     5  H    0.252316
     6  H    0.254815
 Sum of Mulliken charges =  -0.00000

 Dipole moment (field-independent basis, Debye):
    X=             -1.3894    Y=             -0.5818    Z=              0.0000  Tot=              1.5063
 Quadrupole moment (field-independent basis, Debye-Ang):
   XX=             -8.8298   YY=             11.6852   ZZ=            -14.7113
   XY=             -3.7779   XZ=              0.0000   YZ=              0.0000

 Normal termination of Gaussian 16 at Sat Aug 27 09:12:00 2022.
