 Gaussian 16, Revision A.03,
 Gaussian 16:  ES64L-G16RevA.03 25-Dec-2016

 ------------------
 #p CCSD(T)/cc-pVTZ
 ------------------

 ------------
 H2O_H2O_1266
 ------------
 Symbolic Z-matrix:
 Charge =  0 Multiplicity = 1

                         Standard orientation:
 ---------------------------------------------------------------------
 Center     Atomic      Atomic             Coordinates (Angstroms)
 Number     Number       Type             X           Y           Z
 ---------------------------------------------------------------------
      1          8           0        0.049544   -1.437529    0.000000
      2          1           0       -0.751682   -2.006337    0.000000
      3          1           0        0.847453   -2.010981    0.000000
      4          8           0        0.049544    1.494355    0.000000
      5          1           0       -0.042444    2.472641    0.000000
      6          1           0       -0.846034    1.090072    0.000000
 ---------------------------------------------------------------------

 SCF Done:  E(RHF) =  -152.104867335     A.U. after   10 cycles
 E2 =    -0.5275514652D+00 EUMP2 =    -0.15263241879981D+03
 CCSD(T)
 CCSD(T)= -0.15265960413D+03

 The electronic state is 1-A'.
 Alpha  occ. eigenvalues --  -20.55192 -20.53533  -1.32529  -1.30785  -0.69952
 Alpha  occ. eigenvalues --   -0.68237  -0.56063  -0.53826  -0.49652  -0.47872
 Alpha virt. eigenvalues --    0.13685   0.16988   0.20037   0.23267   0.53905
 Alpha virt. eigenvalues --    0.56838   0.57475   0.58294   0.67993   0.75680
 Alpha virt. eigenvalues --    0.76523   0.76916   0.80470   0.82433   0.85066

 Mulliken charges:
               1
     1  O   -0.481814
     2  H    0.236234
     3  H    0.251302
     4  O   -0.486156
     5  H    0.228783
     6  H    0.251651
 Sum of Mulliken charges =  -0.00000

 Dipole moment (field-independent basis, Debye):
    X=             -1.6067    Y=             -1.0975    Z=              0.0000  Tot=              1.9458
 Quadrupole moment (field-independent basis, Debye-Ang):
   XX=             -9.3868   YY=             -2.0649   ZZ=            -14.7196
   XY=             -1.8933   XZ=              0.0000   YZ=              0.0000

 Normal termination of Gaussian 16 at Sat Aug 27 03:29:14 2022.
