 Gaussian 16, Revision A.03,
 Gaussian 16:  ES64L-G16RevA.03 25-Dec-2016

 ------------------
 #p CCSD(T)/cc-pVTZ
 ------------------

 ------------
 H2O_H2O_4288
 ------------
 Symbolic Z-matrix:
 Charge =  0 Multiplicity = 1

                         Standard orientation:
 ---------------------------------------------------------------------
 Center     Atomic      Atomic             Coordinates (Angstroms)
 Number     Number       Type             X           Y           Z
 ---------------------------------------------------------------------
      1          8           0        0.042963   -3.056122    0.000000
      2          1           0       -0.757294   -3.626293    0.000000
      3          1           0        0.841847   -3.628215    0.000000
      4          8           0        0.042963    3.094931    0.000000
      5          1           0        0.141932    4.072536    0.000000
      6          1           0       -0.913900    2.871505    0.000000
 ---------------------------------------------------------------------

 SCF Done:  E(RHF) =  -152.107086359     A.U. after   10 cycles
 E2 =    -0.5259104027D+00 EUMP2 =    -0.15263299676178D+03
 CCSD(T)
 CCSD(T)= -0.15266022354D+03

 The electronic state is 1-A'.
 Alpha  occ. eigenvalues --  -20.55382 -20.55145  -1.32679  -1.32440  -0.70086
 Alpha  occ. eigenvalues --   -0.69843  -0.56112  -0.55873  -0.49789  -0.49551
 Alpha virt. eigenvalues --    0.14258   0.14514   0.20323   0.20578   0.54478
 Alpha virt. eigenvalues --    0.54735   0.57369   0.57608   0.68079   0.68368
 Alpha virt. eigenvalues --    0.79091   0.79325   0.80528   0.80785   0.82457

 Mulliken charges:
               1
     1  O   -0.506987
     2  H    0.252447
     3  H    0.254541
     4  O   -0.506799
     5  H    0.251722
     6  H    0.255076
 Sum of Mulliken charges =  -0.00000

 Dipole moment (field-independent basis, Debye):
    X=             -1.4758    Y=             -0.6783    Z=              0.0000  Tot=              1.6242
 Quadrupole moment (field-independent basis, Debye-Ang):
   XX=             -8.9648   YY=              9.4999   ZZ=            -14.7113
   XY=             -3.7202   XZ=              0.0000   YZ=              0.0000

 Normal termination of Gaussian 16 at Sat Aug 27 06:27:57 2022.
