 Gaussian 16, Revision A.03,
 Gaussian 16:  ES64L-G16RevA.03 25-Dec-2016

 ------------------
 #p CCSD(T)/cc-pVTZ
 ------------------

 -----------
 H2O_H2O_347
 -----------
 Symbolic Z-matrix:
 Charge =  0 Multiplicity = 1

                         Standard orientation:
 ---------------------------------------------------------------------
 Center     Atomic      Atomic             Coordinates (Angstroms)
 Number     Number       Type             X           Y           Z
 ---------------------------------------------------------------------
      1          8           0        0.056873   -0.922809    0.000000
      2          1           0       -0.745552   -1.489925    0.000000
      3          1           0        0.853570   -1.497943    0.000000
      4          8           0        0.056873    1.021557    0.000000
      5          1           0       -0.400654    1.891141    0.000000
      6          1           0       -0.617331    0.306746    0.000000
 ---------------------------------------------------------------------

 SCF Done:  E(RHF) =  -152.031045168     A.U. after   11 cycles
 E2 =    -0.5396284907D+00 EUMP2 =    -0.15257067365906D+03
 CCSD(T)
 CCSD(T)= -0.15259659973D+03

 The electronic state is 1-A'.
 Alpha  occ. eigenvalues --  -20.56434 -20.49115  -1.37607  -1.27042  -0.75316
 Alpha  occ. eigenvalues --   -0.71007  -0.53390  -0.51472  -0.49471  -0.43963
 Alpha virt. eigenvalues --    0.12906   0.18649   0.19676   0.26712   0.49566
 Alpha virt. eigenvalues --    0.54565   0.62517   0.67182   0.72545   0.75153
 Alpha virt. eigenvalues --    0.78699   0.79912   0.83881   0.85359   0.87950

 Mulliken charges:
               1
     1  O   -0.361910
     2  H    0.194216
     3  H    0.232087
     4  O   -0.501887
     5  H    0.174960
     6  H    0.262533
 Sum of Mulliken charges =  -0.00000

 Dipole moment (field-independent basis, Debye):
    X=             -1.6128    Y=             -2.3874    Z=              0.0000  Tot=              2.8811
 Quadrupole moment (field-independent basis, Debye-Ang):
   XX=             -9.8234   YY=             -7.2573   ZZ=            -14.6261
   XY=             -1.9610   XZ=              0.0000   YZ=              0.0000

 Normal termination of Gaussian 16 at Fri Aug 26 15:31:34 2022.
