 Gaussian 16, Revision A.03,
 Gaussian 16:  ES64L-G16RevA.03 25-Dec-2016

 ------------------
 #p CCSD(T)/cc-pVTZ
 ------------------

 ------------
 H2O_H2O_4381
 ------------
 Symbolic Z-matrix:
 Charge =  0 Multiplicity = 1

                         Standard orientation:
 ---------------------------------------------------------------------
 Center     Atomic      Atomic             Coordinates (Angstroms)
 Number     Number       Type             X           Y           Z
 ---------------------------------------------------------------------
      1          8           0        0.021859   -3.125675    0.000000
      2          1           0       -0.778055   -3.696326    0.000000
      3          1           0        0.821086   -3.697288    0.000000
      4          8           0        0.021859    3.134344    0.000000
      5          1           0        0.542505    3.967671    0.000000
      6          1           0       -0.935278    3.356593    0.000000
 ---------------------------------------------------------------------

 SCF Done:  E(RHF) =  -152.106863343     A.U. after   10 cycles
 E2 =    -0.5259272967D+00 EUMP2 =    -0.15263279063948D+03
 CCSD(T)
 CCSD(T)= -0.15266002233D+03

 The electronic state is 1-A'.
 Alpha  occ. eigenvalues --  -20.55226 -20.55175  -1.32522  -1.32471  -0.69929
 Alpha  occ. eigenvalues --   -0.69877  -0.55944  -0.55893  -0.49630  -0.49579
 Alpha virt. eigenvalues --    0.14400   0.14463   0.20451   0.20507   0.54639
 Alpha virt. eigenvalues --    0.54695   0.57509   0.57561   0.68269   0.68358
 Alpha virt. eigenvalues --    0.79249   0.79300   0.80692   0.80748   0.82620

 Mulliken charges:
               1
     1  O   -0.505655
     2  H    0.252319
     3  H    0.253337
     4  O   -0.505603
     5  H    0.252072
     6  H    0.253532
 Sum of Mulliken charges =  -0.00000

 Dipole moment (field-independent basis, Debye):
    X=             -0.7509    Y=             -0.1513    Z=              0.0000  Tot=              0.7660
 Quadrupole moment (field-independent basis, Debye-Ang):
   XX=             -8.1038   YY=             12.3448   ZZ=            -14.7108
   XY=             -1.7255   XZ=              0.0000   YZ=              0.0000

 Normal termination of Gaussian 16 at Sat Aug 27 06:59:37 2022.
