 Gaussian 16, Revision A.03,
 Gaussian 16:  ES64L-G16RevA.03 25-Dec-2016

 ------------------
 #p CCSD(T)/cc-pVTZ
 ------------------

 ------------
 H2O_H2O_3062
 ------------
 Symbolic Z-matrix:
 Charge =  0 Multiplicity = 1

                         Standard orientation:
 ---------------------------------------------------------------------
 Center     Atomic      Atomic             Coordinates (Angstroms)
 Number     Number       Type             X           Y           Z
 ---------------------------------------------------------------------
      1          8           0        0.040409   -2.407592    0.000000
      2          1           0       -0.759980   -2.977577    0.000000
      3          1           0        0.839160   -2.979870    0.000000
      4          8           0        0.040409    2.440933    0.000000
      5          1           0        0.203330    3.409933    0.000000
      6          1           0       -0.929056    2.280792    0.000000
 ---------------------------------------------------------------------

 SCF Done:  E(RHF) =  -152.106608098     A.U. after   10 cycles
 E2 =    -0.5260027980D+00 EUMP2 =    -0.15263261089613D+03
 CCSD(T)
 CCSD(T)= -0.15265984400D+03

 The electronic state is 1-A'.
 Alpha  occ. eigenvalues --  -20.55183 -20.54848  -1.32478  -1.32139  -0.69887
 Alpha  occ. eigenvalues --   -0.69538  -0.55886  -0.55548  -0.49583  -0.49247
 Alpha virt. eigenvalues --    0.14123   0.15017   0.20385   0.20907   0.54549
 Alpha virt. eigenvalues --    0.55058   0.57526   0.57853   0.67055   0.70269
 Alpha virt. eigenvalues --    0.79292   0.79626   0.80662   0.81174   0.82787

 Mulliken charges:
               1
     1  O   -0.504111
     2  H    0.250146
     3  H    0.254018
     4  O   -0.503683
     5  H    0.248957
     6  H    0.254673
 Sum of Mulliken charges =  -0.00000

 Dipole moment (field-independent basis, Debye):
    X=             -1.3797    Y=             -0.5904    Z=              0.0000  Tot=              1.5007
 Quadrupole moment (field-independent basis, Debye-Ang):
   XX=             -8.8353   YY=              5.4833   ZZ=            -14.7109
   XY=             -2.5365   XZ=              0.0000   YZ=              0.0000

 Normal termination of Gaussian 16 at Fri Aug 26 19:01:01 2022.
