 Gaussian 16, Revision A.03,
 Gaussian 16:  ES64L-G16RevA.03 25-Dec-2016

 ------------------
 #p CCSD(T)/cc-pVTZ
 ------------------

 ------------
 H2O_H2O_4723
 ------------
 Symbolic Z-matrix:
 Charge =  0 Multiplicity = 1

                         Standard orientation:
 ---------------------------------------------------------------------
 Center     Atomic      Atomic             Coordinates (Angstroms)
 Number     Number       Type             X           Y           Z
 ---------------------------------------------------------------------
      1          8           0        0.057070   -3.245346    0.000000
      2          1           0       -0.743349   -3.815288    0.000000
      3          1           0        0.855791   -3.817666    0.000000
      4          8           0        0.057070    3.351932    0.000000
      5          1           0       -0.459302    4.187914    0.000000
      6          1           0       -0.566264    2.592352    0.000000
 ---------------------------------------------------------------------

 SCF Done:  E(RHF) =  -152.107630554     A.U. after   10 cycles
 E2 =    -0.5258563670D+00 EUMP2 =    -0.15263348692084D+03
 CCSD(T)
 CCSD(T)= -0.15266070252D+03

 The electronic state is 1-A'.
 Alpha  occ. eigenvalues --  -20.55740 -20.55181  -1.33040  -1.32481  -0.70445
 Alpha  occ. eigenvalues --   -0.69881  -0.56497  -0.55934  -0.50153  -0.49596
 Alpha virt. eigenvalues --    0.13949   0.14516   0.20041   0.20635   0.54114
 Alpha virt. eigenvalues --    0.54689   0.57052   0.57609   0.67664   0.68262
 Alpha virt. eigenvalues --    0.78727   0.79276   0.80154   0.80738   0.82085

 Mulliken charges:
               1
     1  O   -0.510205
     2  H    0.254063
     3  H    0.256143
     4  O   -0.509890
     5  H    0.252689
     6  H    0.257200
 Sum of Mulliken charges =  -0.00000

 Dipole moment (field-independent basis, Debye):
    X=             -1.9628    Y=             -1.8600    Z=              0.0000  Tot=              2.7041
 Quadrupole moment (field-independent basis, Debye-Ang):
   XX=             -9.8553   YY=              3.9418   ZZ=            -14.7126
   XY=             -6.5957   XZ=              0.0000   YZ=              0.0000

 Normal termination of Gaussian 16 at Sat Aug 27 08:57:52 2022.
