 Gaussian 16, Revision A.03,
 Gaussian 16:  ES64L-G16RevA.03 25-Dec-2016

 ------------------
 #p CCSD(T)/cc-pVTZ
 ------------------

 ------------
 H2O_H2O_2272
 ------------
 Symbolic Z-matrix:
 Charge =  0 Multiplicity = 1

                         Standard orientation:
 ---------------------------------------------------------------------
 Center     Atomic      Atomic             Coordinates (Angstroms)
 Number     Number       Type             X           Y           Z
 ---------------------------------------------------------------------
      1          8           0        0.056746   -1.946442    0.000000
      2          1           0       -0.744218   -2.515620    0.000000
      3          1           0        0.854920   -2.519525    0.000000
      4          8           0        0.056746    2.045482    0.000000
      5          1           0       -0.403016    2.913886    0.000000
      6          1           0       -0.615617    1.328939    0.000000
 ---------------------------------------------------------------------

 SCF Done:  E(RHF) =  -152.108456946     A.U. after   10 cycles
 E2 =    -0.5261743232D+00 EUMP2 =    -0.15263463126914D+03
 CCSD(T)
 CCSD(T)= -0.15266179380D+03

 The electronic state is 1-A'.
 Alpha  occ. eigenvalues --  -20.55987 -20.54317  -1.33261  -1.31615  -0.70668
 Alpha  occ. eigenvalues --   -0.68984  -0.56729  -0.55078  -0.50381  -0.48742
 Alpha virt. eigenvalues --    0.13034   0.16047   0.19852   0.22779   0.53944
 Alpha virt. eigenvalues --    0.54818   0.56906   0.58553   0.66196   0.73583
 Alpha virt. eigenvalues --    0.78393   0.79257   0.80184   0.80987   0.82841

 Mulliken charges:
               1
     1  O   -0.505201
     2  H    0.250163
     3  H    0.258262
     4  O   -0.512080
     5  H    0.246330
     6  H    0.262526
 Sum of Mulliken charges =  -0.00000

 Dipole moment (field-independent basis, Debye):
    X=             -1.9178    Y=             -1.8189    Z=              0.0000  Tot=              2.6432
 Quadrupole moment (field-independent basis, Debye-Ang):
   XX=             -9.8255   YY=             -1.1125   ZZ=            -14.7169
   XY=             -3.9152   XZ=              0.0000   YZ=              0.0000

 Normal termination of Gaussian 16 at Sat Aug 27 09:34:48 2022.
