 Gaussian 16, Revision A.03,
 Gaussian 16:  ES64L-G16RevA.03 25-Dec-2016

 ------------------
 #p CCSD(T)/cc-pVTZ
 ------------------

 -----------
 H2O_H2O_393
 -----------
 Symbolic Z-matrix:
 Charge =  0 Multiplicity = 1

                         Standard orientation:
 ---------------------------------------------------------------------
 Center     Atomic      Atomic             Coordinates (Angstroms)
 Number     Number       Type             X           Y           Z
 ---------------------------------------------------------------------
      1          8           0        0.052925   -0.964996    0.000000
      2          1           0       -0.749232   -1.532490    0.000000
      3          1           0        0.849894   -1.539754    0.000000
      4          8           0        0.052925    1.035030    0.000000
      5          1           0       -0.164398    1.993297    0.000000
      6          1           0       -0.783069    0.518677    0.000000
 ---------------------------------------------------------------------

 SCF Done:  E(RHF) =  -152.054510891     A.U. after   11 cycles
 E2 =    -0.5363991815D+00 EUMP2 =    -0.15259091007227D+03
 CCSD(T)
 CCSD(T)= -0.15261751824D+03

 The electronic state is 1-A'.
 Alpha  occ. eigenvalues --  -20.54673 -20.51169  -1.34698  -1.28264  -0.72156
 Alpha  occ. eigenvalues --   -0.69124  -0.55164  -0.51284  -0.48627  -0.45147
 Alpha virt. eigenvalues --    0.13610   0.18609   0.19648   0.24848   0.51546
 Alpha virt. eigenvalues --    0.56406   0.60524   0.63999   0.72307   0.75476
 Alpha virt. eigenvalues --    0.79875   0.82071   0.84051   0.84445   0.88046

 Mulliken charges:
               1
     1  O   -0.408843
     2  H    0.199328
     3  H    0.229192
     4  O   -0.442645
     5  H    0.175128
     6  H    0.247839
 Sum of Mulliken charges =   0.00000

 Dipole moment (field-independent basis, Debye):
    X=             -1.5254    Y=             -1.5010    Z=              0.0000  Tot=              2.1400
 Quadrupole moment (field-independent basis, Debye-Ang):
   XX=             -9.6471   YY=             -6.2698   ZZ=            -14.6833
   XY=             -1.4231   XZ=              0.0000   YZ=              0.0000

 Normal termination of Gaussian 16 at Fri Aug 26 15:59:28 2022.
