 Gaussian 16, Revision A.03,
 Gaussian 16:  ES64L-G16RevA.03 25-Dec-2016

 ------------------
 #p CCSD(T)/cc-pVTZ
 ------------------

 ------------
 H2O_H2O_3300
 ------------
 Symbolic Z-matrix:
 Charge =  0 Multiplicity = 1

                         Standard orientation:
 ---------------------------------------------------------------------
 Center     Atomic      Atomic             Coordinates (Angstroms)
 Number     Number       Type             X           Y           Z
 ---------------------------------------------------------------------
      1          8           0        0.000000   -0.000000    2.558659
      2          1           0        0.000000    0.799571    3.129791
      3          1           0       -0.000000   -0.799571    3.129791
      4          8           0        0.000000   -0.000000   -2.558659
      5          1           0       -0.000000   -0.799571   -3.129791
      6          1           0        0.000000    0.799571   -3.129791
 ---------------------------------------------------------------------

 SCF Done:  E(RHF) =  -152.106238165     A.U. after   10 cycles
 E2 =    -0.5260093840D+00 EUMP2 =    -0.15263224754952D+03
 CCSD(T)
 CCSD(T)= -0.15265949087D+03

 The electronic state is 1-AG.
 Alpha  occ. eigenvalues --  -20.54952 -20.54952  -1.32245  -1.32245  -0.69655
 Alpha  occ. eigenvalues --   -0.69654  -0.55646  -0.55626  -0.49349  -0.49347
 Alpha virt. eigenvalues --    0.14465   0.14788   0.20590   0.20694   0.54843
 Alpha virt. eigenvalues --    0.54994   0.57712   0.57761   0.67765   0.69521
 Alpha virt. eigenvalues --    0.79515   0.79541   0.80944   0.81022   0.82751

 Mulliken charges:
               1
     1  O   -0.501982
     2  H    0.250991
     3  H    0.250991
     4  O   -0.501982
     5  H    0.250991
     6  H    0.250991
 Sum of Mulliken charges =  -0.00000

 Dipole moment (field-independent basis, Debye):
    X=             -0.0000    Y=              0.0000    Z=              0.0000  Tot=              0.0000
 Quadrupole moment (field-independent basis, Debye-Ang):
   XX=            -14.7099   YY=             -7.8130   ZZ=              8.4099
   XY=              0.0000   XZ=              0.0000   YZ=             -0.0000

 4\MP4DQ=-152.6413685\MP4SDQ=-152.6444342\CCSD=-152.6438438\CCSD(T)=-15
 Normal termination of Gaussian 16 at Fri Aug 26 21:10:49 2022.
