 Gaussian 16, Revision A.03,
 Gaussian 16:  ES64L-G16RevA.03 25-Dec-2016

 ------------------
 #p CCSD(T)/cc-pVTZ
 ------------------

 ------------
 H2O_H2O_4790
 ------------
 Symbolic Z-matrix:
 Charge =  0 Multiplicity = 1

                         Standard orientation:
 ---------------------------------------------------------------------
 Center     Atomic      Atomic             Coordinates (Angstroms)
 Number     Number       Type             X           Y           Z
 ---------------------------------------------------------------------
      1          8           0        0.047519   -3.315610    0.000000
      2          1           0       -0.752750   -3.885764    0.000000
      3          1           0        0.846390   -3.887720    0.000000
      4          8           0        0.047519    3.366260    0.000000
      5          1           0        0.018060    4.348419    0.000000
      6          1           0       -0.872003    3.019870    0.000000
 ---------------------------------------------------------------------

 SCF Done:  E(RHF) =  -152.107252978     A.U. after   10 cycles
 E2 =    -0.5258894472D+00 EUMP2 =    -0.15263314242519D+03
 CCSD(T)
 CCSD(T)= -0.15266036605D+03

 The electronic state is 1-A'.
 Alpha  occ. eigenvalues --  -20.55479 -20.55218  -1.32777  -1.32515  -0.70184
 Alpha  occ. eigenvalues --   -0.69917  -0.56217  -0.55955  -0.49888  -0.49626
 Alpha virt. eigenvalues --    0.14184   0.14446   0.20251   0.20526   0.54380
 Alpha virt. eigenvalues --    0.54656   0.57285   0.57546   0.67983   0.68252
 Alpha virt. eigenvalues --    0.78992   0.79250   0.80426   0.80706   0.82351

 Mulliken charges:
               1
     1  O   -0.507963
     2  H    0.253077
     3  H    0.254886
     4  O   -0.507803
     5  H    0.252364
     6  H    0.255439
 Sum of Mulliken charges =   0.00000

 Dipole moment (field-independent basis, Debye):
    X=             -1.6343    Y=             -0.8831    Z=              0.0000  Tot=              1.8576
 Quadrupole moment (field-independent basis, Debye-Ang):
   XX=             -9.2243   YY=             10.1194   ZZ=            -14.7116
   XY=             -4.7228   XZ=              0.0000   YZ=              0.0000

 Normal termination of Gaussian 16 at Sat Aug 27 09:21:04 2022.
