 Gaussian 16, Revision A.03,
 Gaussian 16:  ES64L-G16RevA.03 25-Dec-2016

 ------------------
 #p CCSD(T)/cc-pVTZ
 ------------------

 ------------
 H2O_H2O_1115
 ------------
 Symbolic Z-matrix:
 Charge =  0 Multiplicity = 1

                         Standard orientation:
 ---------------------------------------------------------------------
 Center     Atomic      Atomic             Coordinates (Angstroms)
 Number     Number       Type             X           Y           Z
 ---------------------------------------------------------------------
      1          8           0        0.047563   -1.361197    0.000000
      2          1           0       -0.753689   -1.929969    0.000000
      3          1           0        0.845446   -1.934684    0.000000
      4          8           0        0.047563    1.411683    0.000000
      5          1           0        0.019798    2.393892    0.000000
      6          1           0       -0.872555    1.066879    0.000000
 ---------------------------------------------------------------------

 SCF Done:  E(RHF) =  -152.102947577     A.U. after   10 cycles
 E2 =    -0.5280234765D+00 EUMP2 =    -0.15263097105379D+03
 CCSD(T)
 CCSD(T)= -0.15265817035D+03

 The electronic state is 1-A'.
 Alpha  occ. eigenvalues --  -20.54928 -20.53361  -1.32333  -1.30605  -0.69752
 Alpha  occ. eigenvalues --   -0.68119  -0.56089  -0.53269  -0.49470  -0.47655
 Alpha virt. eigenvalues --    0.13799   0.17136   0.20090   0.23267   0.53654
 Alpha virt. eigenvalues --    0.57621   0.58061   0.58380   0.69366   0.76090
 Alpha virt. eigenvalues --    0.76102   0.77100   0.81627   0.82820   0.85226

 Mulliken charges:
               1
     1  O   -0.477651
     2  H    0.233357
     3  H    0.249489
     4  O   -0.477650
     5  H    0.223740
     6  H    0.248715
 Sum of Mulliken charges =  -0.00000

 Dipole moment (field-independent basis, Debye):
    X=             -1.5248    Y=             -0.9810    Z=              0.0000  Tot=              1.8131
 Quadrupole moment (field-independent basis, Debye-Ang):
   XX=             -9.2847   YY=             -2.4534   ZZ=            -14.7207
   XY=             -1.6009   XZ=              0.0000   YZ=              0.0000

 Normal termination of Gaussian 16 at Sat Aug 27 02:15:00 2022.
