 Gaussian 16, Revision A.03,
 Gaussian 16:  ES64L-G16RevA.03 25-Dec-2016

 ------------------
 #p CCSD(T)/cc-pVTZ
 ------------------

 ------------
 H2O_H2O_1058
 ------------
 Symbolic Z-matrix:
 Charge =  0 Multiplicity = 1

                         Standard orientation:
 ---------------------------------------------------------------------
 Center     Atomic      Atomic             Coordinates (Angstroms)
 Number     Number       Type             X           Y           Z
 ---------------------------------------------------------------------
      1          8           0        0.028570   -1.353771    0.000000
      2          1           0       -0.772031   -1.923458    0.000000
      3          1           0        0.827109   -1.926346    0.000000
      4          8           0        0.028570    1.368971    0.000000
      5          1           0        0.437069    2.262635    0.000000
      6          1           0       -0.949272    1.465566    0.000000
 ---------------------------------------------------------------------

 SCF Done:  E(RHF) =  -152.099169855     A.U. after   11 cycles
 E2 =    -0.5281747940D+00 EUMP2 =    -0.15262734464906D+03
 CCSD(T)
 CCSD(T)= -0.15265462718D+03

 The electronic state is 1-A'.
 Alpha  occ. eigenvalues --  -20.53868 -20.53442  -1.31360  -1.30665  -0.68751
 Alpha  occ. eigenvalues --   -0.68154  -0.56167  -0.52054  -0.48584  -0.47577
 Alpha virt. eigenvalues --    0.14273   0.17070   0.20457   0.22399   0.52121
 Alpha virt. eigenvalues --    0.58387   0.58681   0.60606   0.69731   0.76645
 Alpha virt. eigenvalues --    0.76782   0.77969   0.81570   0.83375   0.86033

 Mulliken charges:
               1
     1  O   -0.471148
     2  H    0.229881
     3  H    0.240990
     4  O   -0.462333
     5  H    0.224216
     6  H    0.238393
 Sum of Mulliken charges =  -0.00000

 Dipole moment (field-independent basis, Debye):
    X=             -0.9141    Y=             -0.2913    Z=              0.0000  Tot=              0.9594
 Quadrupole moment (field-independent basis, Debye-Ang):
   XX=             -8.4300   YY=             -1.9265   ZZ=            -14.7171
   XY=             -0.6275   XZ=              0.0000   YZ=              0.0000

 Normal termination of Gaussian 16 at Sat Aug 27 01:44:18 2022.
