 Gaussian 16, Revision A.03,
 Gaussian 16:  ES64L-G16RevA.03 25-Dec-2016

 ------------------
 #p CCSD(T)/cc-pVTZ
 ------------------

 ------------
 H2O_H2O_1723
 ------------
 Symbolic Z-matrix:
 Charge =  0 Multiplicity = 1

                         Standard orientation:
 ---------------------------------------------------------------------
 Center     Atomic      Atomic             Coordinates (Angstroms)
 Number     Number       Type             X           Y           Z
 ---------------------------------------------------------------------
      1          8           0        0.057144   -1.649920    0.000000
      2          1           0       -0.744068   -2.218746    0.000000
      3          1           0        0.855067   -2.223352    0.000000
      4          8           0        0.057144    1.756347    0.000000
      5          1           0       -0.458062    2.593047    0.000000
      6          1           0       -0.567248    0.997636    0.000000
 ---------------------------------------------------------------------

 SCF Done:  E(RHF) =  -152.109454797     A.U. after   10 cycles
 E2 =    -0.5266729339D+00 EUMP2 =    -0.15263612773069D+03
 CCSD(T)
 CCSD(T)= -0.15266324103D+03

 The electronic state is 1-A'.
 Alpha  occ. eigenvalues --  -20.56367 -20.53739  -1.33636  -1.31048  -0.71038
 Alpha  occ. eigenvalues --   -0.68441  -0.57111  -0.54533  -0.50759  -0.48184
 Alpha virt. eigenvalues --    0.12962   0.16786   0.19660   0.24672   0.52859
 Alpha virt. eigenvalues --    0.55658   0.56590   0.58092   0.67241   0.75146
 Alpha virt. eigenvalues --    0.76977   0.77024   0.79854   0.81094   0.84206

 Mulliken charges:
               1
     1  O   -0.497690
     2  H    0.247453
     3  H    0.259070
     4  O   -0.515226
     5  H    0.241895
     6  H    0.264499
 Sum of Mulliken charges =  -0.00000

 Dipole moment (field-independent basis, Debye):
    X=             -1.9025    Y=             -2.0330    Z=              0.0000  Tot=              2.7843
 Quadrupole moment (field-independent basis, Debye-Ang):
   XX=             -9.8522   YY=             -2.9097   ZZ=            -14.7225
   XY=             -3.5185   XZ=              0.0000   YZ=              0.0000

 Normal termination of Gaussian 16 at Sat Aug 27 06:25:16 2022.
