 Gaussian 16, Revision A.03,
 Gaussian 16:  ES64L-G16RevA.03 25-Dec-2016

 ------------------
 #p CCSD(T)/cc-pVTZ
 ------------------

 -----------
 H2O_H2O_142
 -----------
 Symbolic Z-matrix:
 Charge =  0 Multiplicity = 1

                         Standard orientation:
 ---------------------------------------------------------------------
 Center     Atomic      Atomic             Coordinates (Angstroms)
 Number     Number       Type             X           Y           Z
 ---------------------------------------------------------------------
      1          8           0        0.051385   -0.835756    0.000000
      2          1           0       -0.751080   -1.402816    0.000000
      3          1           0        0.848042   -1.410945    0.000000
      4          8           0        0.051385    0.898940    0.000000
      5          1           0       -0.102274    1.869452    0.000000
      6          1           0       -0.816840    0.438839    0.000000
 ---------------------------------------------------------------------

 SCF Done:  E(RHF) =  -151.974758124     A.U. after   11 cycles
 E2 =    -0.5451722277D+00 EUMP2 =    -0.15251993035202D+03
 CCSD(T)
 CCSD(T)= -0.15254554255D+03

 The electronic state is 1-A'.
 Alpha  occ. eigenvalues --  -20.53886 -20.50618  -1.37637  -1.26883  -0.74762
 Alpha  occ. eigenvalues --   -0.70386  -0.55545  -0.53109  -0.43782  -0.42280
 Alpha virt. eigenvalues --    0.13673   0.19011   0.19635   0.24556   0.51546
 Alpha virt. eigenvalues --    0.56077   0.60121   0.65998   0.73108   0.76759
 Alpha virt. eigenvalues --    0.80542   0.81090   0.84007   0.84047   0.88724

 Mulliken charges:
               1
     1  O   -0.349206
     2  H    0.164853
     3  H    0.207521
     4  O   -0.394364
     5  H    0.127559
     6  H    0.243636
 Sum of Mulliken charges =  -0.00000

 Dipole moment (field-independent basis, Debye):
    X=             -1.3743    Y=             -1.4259    Z=              0.0000  Tot=              1.9804
 Quadrupole moment (field-independent basis, Debye-Ang):
   XX=             -9.6117   YY=             -8.0200   ZZ=            -14.6249
   XY=             -1.0302   XZ=              0.0000   YZ=              0.0000

 Normal termination of Gaussian 16 at Fri Aug 26 13:15:54 2022.
