 Gaussian 16, Revision A.03,
 Gaussian 16:  ES64L-G16RevA.03 25-Dec-2016

 ------------------
 #p CCSD(T)/cc-pVTZ
 ------------------

 -----------
 H2O_H2O_158
 -----------
 Symbolic Z-matrix:
 Charge =  0 Multiplicity = 1

                         Standard orientation:
 ---------------------------------------------------------------------
 Center     Atomic      Atomic             Coordinates (Angstroms)
 Number     Number       Type             X           Y           Z
 ---------------------------------------------------------------------
      1          8           0        0.028578   -0.875147    0.000000
      2          1           0       -0.772581   -1.444050    0.000000
      3          1           0        0.826555   -1.448503    0.000000
      4          8           0        0.028578    0.890291    0.000000
      5          1           0        0.437951    1.783555    0.000000
      6          1           0       -0.949169    0.987844    0.000000
 ---------------------------------------------------------------------

 SCF Done:  E(RHF) =  -151.992259975     A.U. after   11 cycles
 E2 =    -0.5428514086D+00 EUMP2 =    -0.15253511138387D+03
 CCSD(T)
 CCSD(T)= -0.15256093083D+03

 The electronic state is 1-A'.
 Alpha  occ. eigenvalues --  -20.51834 -20.51375  -1.34617  -1.27419  -0.70650
 Alpha  occ. eigenvalues --   -0.67612  -0.62102  -0.51225  -0.43834  -0.38837
 Alpha virt. eigenvalues --    0.14403   0.18878   0.20021   0.23378   0.52715
 Alpha virt. eigenvalues --    0.57104   0.58839   0.65536   0.70623   0.78374
 Alpha virt. eigenvalues --    0.79542   0.83027   0.83605   0.85611   0.88476

 Mulliken charges:
               1
     1  O   -0.395261
     2  H    0.187379
     3  H    0.207006
     4  O   -0.369041
     5  H    0.145146
     6  H    0.224771
 Sum of Mulliken charges =  -0.00000

 Dipole moment (field-independent basis, Debye):
    X=             -0.7993    Y=             -0.3554    Z=              0.0000  Tot=              0.8747
 Quadrupole moment (field-independent basis, Debye-Ang):
   XX=             -8.7143   YY=             -7.6005   ZZ=            -14.7276
   XY=             -0.3441   XZ=              0.0000   YZ=              0.0000

 Normal termination of Gaussian 16 at Fri Aug 26 13:27:35 2022.
