 Gaussian 16, Revision A.03,
 Gaussian 16:  ES64L-G16RevA.03 25-Dec-2016

 ------------------
 #p CCSD(T)/cc-pVTZ
 ------------------

 -----------
 H2O_H2O_151
 -----------
 Symbolic Z-matrix:
 Charge =  0 Multiplicity = 1

                         Standard orientation:
 ---------------------------------------------------------------------
 Center     Atomic      Atomic             Coordinates (Angstroms)
 Number     Number       Type             X           Y           Z
 ---------------------------------------------------------------------
      1          8           0        0.003735   -0.883243    0.000000
      2          1           0       -0.796043   -1.454084    0.000000
      3          1           0        0.803098   -1.454666    0.000000
      4          8           0        0.003735    0.883485    0.000000
      5          1           0        0.764468    1.505411    0.000000
      6          1           0       -0.831289    1.401403    0.000000
 ---------------------------------------------------------------------

 SCF Done:  E(RHF) =  -151.985501848     A.U. after   11 cycles
 E2 =    -0.5434288012D+00 EUMP2 =    -0.15252893064930D+03
 CCSD(T)
 CCSD(T)= -0.15255465908D+03

 The electronic state is 1-A'.
 Alpha  occ. eigenvalues --  -20.51189 -20.51182  -1.34087  -1.27399  -0.69517
 Alpha  occ. eigenvalues --   -0.65826  -0.65079  -0.50852  -0.43649  -0.37329
 Alpha virt. eigenvalues --    0.14630   0.19220   0.20140   0.22995   0.50411
 Alpha virt. eigenvalues --    0.59150   0.59252   0.67413   0.67931   0.79219
 Alpha virt. eigenvalues --    0.80512   0.83969   0.84375   0.86352   0.87711

 Mulliken charges:
               1
     1  O   -0.384127
     2  H    0.190311
     3  H    0.193800
     4  O   -0.383229
     5  H    0.185033
     6  H    0.198212
 Sum of Mulliken charges =  -0.00000

 Dipole moment (field-independent basis, Debye):
    X=             -0.1068    Y=             -0.0061    Z=              0.0000  Tot=              0.1070
 Quadrupole moment (field-independent basis, Debye-Ang):
   XX=             -8.3568   YY=             -7.6617   ZZ=            -14.7628
   XY=             -0.0411   XZ=              0.0000   YZ=              0.0000

 Normal termination of Gaussian 16 at Fri Aug 26 13:22:54 2022.
