 Gaussian 16, Revision A.03,
 Gaussian 16:  ES64L-G16RevA.03 25-Dec-2016

 ------------------
 #p CCSD(T)/cc-pVTZ
 ------------------

 ------------
 H2O_H2O_1813
 ------------
 Symbolic Z-matrix:
 Charge =  0 Multiplicity = 1

                         Standard orientation:
 ---------------------------------------------------------------------
 Center     Atomic      Atomic             Coordinates (Angstroms)
 Number     Number       Type             X           Y           Z
 ---------------------------------------------------------------------
      1          8           0        0.042981   -1.739868    0.000000
      2          1           0       -0.757789   -2.309318    0.000000
      3          1           0        0.841350   -2.312679    0.000000
      4          8           0        0.042981    1.778599    0.000000
      5          1           0        0.142829    2.756114    0.000000
      6          1           0       -0.914083    1.556033    0.000000
 ---------------------------------------------------------------------

 SCF Done:  E(RHF) =  -152.105736228     A.U. after   10 cycles
 E2 =    -0.5265938346D+00 EUMP2 =    -0.15263233006259D+03
 CCSD(T)
 CCSD(T)= -0.15265954064D+03

 The electronic state is 1-A'.
 Alpha  occ. eigenvalues --  -20.54981 -20.54195  -1.32259  -1.31460  -0.69679
 Alpha  occ. eigenvalues --   -0.68849  -0.55710  -0.54683  -0.49367  -0.48565
 Alpha virt. eigenvalues --    0.13749   0.16239   0.20271   0.22014   0.53345
 Alpha virt. eigenvalues --    0.55315   0.57696   0.58551   0.63861   0.76761
 Alpha virt. eigenvalues --    0.78622   0.78638   0.80073   0.81033   0.85116

 Mulliken charges:
               1
     1  O   -0.491480
     2  H    0.241966
     3  H    0.251184
     4  O   -0.493366
     5  H    0.239290
     6  H    0.252405
 Sum of Mulliken charges =  -0.00000

 Dipole moment (field-independent basis, Debye):
    X=             -1.4340    Y=             -0.7198    Z=              0.0000  Tot=              1.6045
 Quadrupole moment (field-independent basis, Debye-Ang):
   XX=             -8.9907   YY=              0.6145   ZZ=            -14.7126
   XY=             -1.8118   XZ=              0.0000   YZ=              0.0000

 Normal termination of Gaussian 16 at Sat Aug 27 06:55:51 2022.
