 Gaussian 16, Revision A.03,
 Gaussian 16:  ES64L-G16RevA.03 25-Dec-2016

 ------------------
 #p CCSD(T)/cc-pVTZ
 ------------------

 ------------
 H2O_H2O_2357
 ------------
 Symbolic Z-matrix:
 Charge =  0 Multiplicity = 1

                         Standard orientation:
 ---------------------------------------------------------------------
 Center     Atomic      Atomic             Coordinates (Angstroms)
 Number     Number       Type             X           Y           Z
 ---------------------------------------------------------------------
      1          8           0        0.025267   -2.047045    0.000000
      2          1           0       -0.774909   -2.617330    0.000000
      3          1           0        0.824232   -2.619024    0.000000
      4          8           0        0.025267    2.058772    0.000000
      5          1           0        0.490692    2.924153    0.000000
      6          1           0       -0.944284    2.218390    0.000000
 ---------------------------------------------------------------------

 SCF Done:  E(RHF) =  -152.105568689     A.U. after   10 cycles
 E2 =    -0.5262248319D+00 EUMP2 =    -0.15263179352049D+03
 CCSD(T)
 CCSD(T)= -0.15265903565D+03

 The electronic state is 1-A'.
 Alpha  occ. eigenvalues --  -20.54759 -20.54593  -1.32045  -1.31875  -0.69460
 Alpha  occ. eigenvalues --   -0.69283  -0.55462  -0.55149  -0.49146  -0.48975
 Alpha virt. eigenvalues --    0.14102   0.15548   0.20540   0.21136   0.54219
 Alpha virt. eigenvalues --    0.55715   0.57826   0.58091   0.63590   0.74113
 Alpha virt. eigenvalues --    0.79502   0.80110   0.80739   0.81177   0.82301

 Mulliken charges:
               1
     1  O   -0.496969
     2  H    0.246673
     3  H    0.250423
     4  O   -0.496694
     5  H    0.245914
     6  H    0.250653
 Sum of Mulliken charges =   0.00000

 Dipole moment (field-independent basis, Debye):
    X=             -0.8553    Y=             -0.2116    Z=              0.0000  Tot=              0.8811
 Quadrupole moment (field-independent basis, Debye-Ang):
   XX=             -8.2278   YY=              3.8422   ZZ=            -14.7100
   XY=             -1.0994   XZ=              0.0000   YZ=              0.0000

 Normal termination of Gaussian 16 at Sat Aug 27 10:06:45 2022.
