 Gaussian 16, Revision A.03,
 Gaussian 16:  ES64L-G16RevA.03 25-Dec-2016

 ------------------
 #p CCSD(T)/cc-pVTZ
 ------------------

 ------------
 H2O_H2O_4784
 ------------
 Symbolic Z-matrix:
 Charge =  0 Multiplicity = 1

                         Standard orientation:
 ---------------------------------------------------------------------
 Center     Atomic      Atomic             Coordinates (Angstroms)
 Number     Number       Type             X           Y           Z
 ---------------------------------------------------------------------
      1          8           0        0.031738   -3.332691    0.000000
      2          1           0       -0.768299   -3.903169    0.000000
      3          1           0        0.830842   -3.904476    0.000000
      4          8           0        0.031738    3.351889    0.000000
      5          1           0        0.380004    4.270702    0.000000
      6          1           0       -0.950359    3.383353    0.000000
 ---------------------------------------------------------------------

 SCF Done:  E(RHF) =  -152.107043678     A.U. after   10 cycles
 E2 =    -0.5259073460D+00 EUMP2 =    -0.15263295102367D+03
 CCSD(T)
 CCSD(T)= -0.15266017914D+03

 The electronic state is 1-A'.
 Alpha  occ. eigenvalues --  -20.55329 -20.55230  -1.32626  -1.32527  -0.70033
 Alpha  occ. eigenvalues --   -0.69931  -0.56057  -0.55958  -0.49735  -0.49636
 Alpha virt. eigenvalues --    0.14317   0.14417   0.20374   0.20477   0.54534
 Alpha virt. eigenvalues --    0.54640   0.57420   0.57519   0.68160   0.68262
 Alpha virt. eigenvalues --    0.79144   0.79242   0.80584   0.80691   0.82509

 Mulliken charges:
               1
     1  O   -0.506719
     2  H    0.252748
     3  H    0.253971
     4  O   -0.506642
     5  H    0.252395
     6  H    0.254247
 Sum of Mulliken charges =  -0.00000

 Dipole moment (field-independent basis, Debye):
    X=             -1.0914    Y=             -0.3346    Z=              0.0000  Tot=              1.1415
 Quadrupole moment (field-independent basis, Debye-Ang):
   XX=             -8.4358   YY=             13.0646   ZZ=            -14.7111
   XY=             -2.8408   XZ=              0.0000   YZ=              0.0000

 Normal termination of Gaussian 16 at Sat Aug 27 09:19:07 2022.
