 Gaussian 16, Revision A.03,
 Gaussian 16:  ES64L-G16RevA.03 25-Dec-2016

 ------------------
 #p CCSD(T)/cc-pVTZ
 ------------------

 ------------
 H2O_H2O_1933
 ------------
 Symbolic Z-matrix:
 Charge =  0 Multiplicity = 1

                         Standard orientation:
 ---------------------------------------------------------------------
 Center     Atomic      Atomic             Coordinates (Angstroms)
 Number     Number       Type             X           Y           Z
 ---------------------------------------------------------------------
      1          8           0        0.028567   -1.819113    0.000000
      2          1           0       -0.771772   -2.389169    0.000000
      3          1           0        0.827368   -2.391321    0.000000
      4          8           0        0.028567    1.834340    0.000000
      5          1           0        0.436654    2.728192    0.000000
      6          1           0       -0.949320    1.930486    0.000000
 ---------------------------------------------------------------------

 SCF Done:  E(RHF) =  -152.104992355     A.U. after   10 cycles
 E2 =    -0.5265065123D+00 EUMP2 =    -0.15263149886697D+03
 CCSD(T)
 CCSD(T)= -0.15265873554D+03

 The electronic state is 1-A'.
 Alpha  occ. eigenvalues --  -20.54625 -20.54347  -1.31905  -1.31618  -0.69326
 Alpha  occ. eigenvalues --   -0.69026  -0.55427  -0.54699  -0.49011  -0.48710
 Alpha virt. eigenvalues --    0.14020   0.16002   0.20487   0.21482   0.53314
 Alpha virt. eigenvalues --    0.56122   0.57933   0.58341   0.62492   0.76033
 Alpha virt. eigenvalues --    0.79107   0.79511   0.80761   0.80827   0.83340

 Mulliken charges:
               1
     1  O   -0.490524
     2  H    0.242659
     3  H    0.248332
     4  O   -0.490653
     5  H    0.241518
     6  H    0.248668
 Sum of Mulliken charges =  -0.00000

 Dipole moment (field-independent basis, Debye):
    X=             -0.9578    Y=             -0.2806    Z=              0.0000  Tot=              0.9980
 Quadrupole moment (field-independent basis, Debye-Ang):
   XX=             -8.3522   YY=              1.9469   ZZ=            -14.7101
   XY=             -1.0587   XZ=              0.0000   YZ=              0.0000

 Normal termination of Gaussian 16 at Sat Aug 27 07:37:55 2022.
