 Gaussian 16, Revision A.03,
 Gaussian 16:  ES64L-G16RevA.03 25-Dec-2016

 ------------------
 #p CCSD(T)/cc-pVTZ
 ------------------

 ------------
 H2O_H2O_2339
 ------------
 Symbolic Z-matrix:
 Charge =  0 Multiplicity = 1

                         Standard orientation:
 ---------------------------------------------------------------------
 Center     Atomic      Atomic             Coordinates (Angstroms)
 Number     Number       Type             X           Y           Z
 ---------------------------------------------------------------------
      1          8           0        0.045354   -2.015941    0.000000
      2          1           0       -0.755309   -2.585541    0.000000
      3          1           0        0.843830   -2.588602    0.000000
      4          8           0        0.045354    2.060457    0.000000
      5          1           0        0.080872    3.042417    0.000000
      6          1           0       -0.895051    1.775597    0.000000
 ---------------------------------------------------------------------

 SCF Done:  E(RHF) =  -152.106504064     A.U. after   10 cycles
 E2 =    -0.5261909965D+00 EUMP2 =    -0.15263269506060D+03
 CCSD(T)
 CCSD(T)= -0.15265991187D+03

 The electronic state is 1-A'.
 Alpha  occ. eigenvalues --  -20.55189 -20.54521  -1.32473  -1.31802  -0.69887
 Alpha  occ. eigenvalues --   -0.69191  -0.55872  -0.55185  -0.49579  -0.48913
 Alpha virt. eigenvalues --    0.13672   0.15711   0.20264   0.21524   0.53769
 Alpha virt. eigenvalues --    0.55051   0.57543   0.58183   0.64807   0.74546
 Alpha virt. eigenvalues --    0.79168   0.79993   0.80076   0.81574   0.83447

 Mulliken charges:
               1
     1  O   -0.500899
     2  H    0.247412
     3  H    0.254214
     4  O   -0.501512
     5  H    0.245332
     6  H    0.255454
 Sum of Mulliken charges =  -0.00000

 Dipole moment (field-independent basis, Debye):
    X=             -1.5343    Y=             -0.8067    Z=              0.0000  Tot=              1.7334
 Quadrupole moment (field-independent basis, Debye-Ang):
   XX=             -9.1062   YY=              2.2625   ZZ=            -14.7121
   XY=             -2.4170   XZ=              0.0000   YZ=              0.0000

 Normal termination of Gaussian 16 at Sat Aug 27 09:57:58 2022.
