 Gaussian 16, Revision A.03,
 Gaussian 16:  ES64L-G16RevA.03 25-Dec-2016

 ------------------
 #p CCSD(T)/cc-pVTZ
 ------------------

 ------------
 H2O_H2O_2157
 ------------
 Symbolic Z-matrix:
 Charge =  0 Multiplicity = 1

                         Standard orientation:
 ---------------------------------------------------------------------
 Center     Atomic      Atomic             Coordinates (Angstroms)
 Number     Number       Type             X           Y           Z
 ---------------------------------------------------------------------
      1          8           0        0.025267   -1.940679    0.000000
      2          1           0       -0.774941   -2.510918    0.000000
      3          1           0        0.824200   -2.512704    0.000000
      4          8           0        0.025267    1.952403    0.000000
      5          1           0        0.490742    2.817757    0.000000
      6          1           0       -0.944274    2.112077    0.000000
 ---------------------------------------------------------------------

 SCF Done:  E(RHF) =  -152.105289529     A.U. after   10 cycles
 E2 =    -0.5263377267D+00 EUMP2 =    -0.15263162725607D+03
 CCSD(T)
 CCSD(T)= -0.15265886740D+03

 The electronic state is 1-A'.
 Alpha  occ. eigenvalues --  -20.54677 -20.54489  -1.31959  -1.31768  -0.69377
 Alpha  occ. eigenvalues --   -0.69177  -0.55419  -0.54957  -0.49062  -0.48863
 Alpha virt. eigenvalues --    0.14063   0.15750   0.20532   0.21267   0.53847
 Alpha virt. eigenvalues --    0.55956   0.57881   0.58193   0.62638   0.75096
 Alpha virt. eigenvalues --    0.79388   0.80249   0.80397   0.81121   0.82555

 Mulliken charges:
               1
     1  O   -0.494209
     2  H    0.245071
     3  H    0.249355
     4  O   -0.494067
     5  H    0.244234
     6  H    0.249615
 Sum of Mulliken charges =  -0.00000

 Dipole moment (field-independent basis, Debye):
    X=             -0.8520    Y=             -0.2136    Z=              0.0000  Tot=              0.8784
 Quadrupole moment (field-independent basis, Debye-Ang):
   XX=             -8.2339   YY=              3.0098   ZZ=            -14.7099
   XY=             -1.0096   XZ=              0.0000   YZ=              0.0000

 Normal termination of Gaussian 16 at Sat Aug 27 08:54:33 2022.
