 Gaussian 16, Revision A.03,
 Gaussian 16:  ES64L-G16RevA.03 25-Dec-2016

 ------------------
 #p CCSD(T)/cc-pVTZ
 ------------------

 ------------
 H2O_H2O_1044
 ------------
 Symbolic Z-matrix:
 Charge =  0 Multiplicity = 1

                         Standard orientation:
 ---------------------------------------------------------------------
 Center     Atomic      Atomic             Coordinates (Angstroms)
 Number     Number       Type             X           Y           Z
 ---------------------------------------------------------------------
      1          8           0        0.054216   -1.306836    0.000000
      2          1           0       -0.747326   -1.875197    0.000000
      3          1           0        0.851806   -1.880731    0.000000
      4          8           0        0.054216    1.383970    0.000000
      5          1           0       -0.226336    2.325669    0.000000
      6          1           0       -0.745600    0.813181    0.000000
 ---------------------------------------------------------------------

 SCF Done:  E(RHF) =  -152.104054079     A.U. after   10 cycles
 E2 =    -0.5285123186D+00 EUMP2 =    -0.15263256639758D+03
 CCSD(T)
 CCSD(T)= -0.15265967945D+03

 The electronic state is 1-A'.
 Alpha  occ. eigenvalues --  -20.55732 -20.52943  -1.33214  -1.30230  -0.70619
 Alpha  occ. eigenvalues --   -0.68006  -0.56300  -0.53494  -0.50318  -0.47310
 Alpha virt. eigenvalues --    0.13421   0.17514   0.19798   0.24428   0.52582
 Alpha virt. eigenvalues --    0.56983   0.58228   0.59209   0.70579   0.74858
 Alpha virt. eigenvalues --    0.75789   0.80207   0.82197   0.82664   0.84546

 Mulliken charges:
               1
     1  O   -0.477722
     2  H    0.235882
     3  H    0.253634
     4  O   -0.492473
     5  H    0.224174
     6  H    0.256507
 Sum of Mulliken charges =  -0.00000

 Dipole moment (field-independent basis, Debye):
    X=             -1.7274    Y=             -1.5398    Z=              0.0000  Tot=              2.3141
 Quadrupole moment (field-independent basis, Debye-Ang):
   XX=             -9.6791   YY=             -3.5595   ZZ=            -14.7248
   XY=             -2.2083   XZ=              0.0000   YZ=              0.0000

 Normal termination of Gaussian 16 at Sat Aug 27 01:38:15 2022.
