 Gaussian 16, Revision A.03,
 Gaussian 16:  ES64L-G16RevA.03 25-Dec-2016

 ------------------
 #p CCSD(T)/cc-pVTZ
 ------------------

 -----------
 H2O_H2O_851
 -----------
 Symbolic Z-matrix:
 Charge =  0 Multiplicity = 1

                         Standard orientation:
 ---------------------------------------------------------------------
 Center     Atomic      Atomic             Coordinates (Angstroms)
 Number     Number       Type             X           Y           Z
 ---------------------------------------------------------------------
      1          8           0        0.003735   -1.255528    0.000000
      2          1           0       -0.795982   -1.826455    0.000000
      3          1           0        0.803160   -1.826865    0.000000
      4          8           0        0.003735    1.255771    0.000000
      5          1           0        0.764401    1.877779    0.000000
      6          1           0       -0.831345    1.773599    0.000000
 ---------------------------------------------------------------------

 SCF Done:  E(RHF) =  -152.092464411     A.U. after   10 cycles
 E2 =    -0.5291420182D+00 EUMP2 =    -0.15262160642960D+03
 CCSD(T)
 CCSD(T)= -0.15264891144D+03

 The electronic state is 1-A'.
 Alpha  occ. eigenvalues --  -20.53079 -20.53072  -1.31008  -1.30148  -0.68293
 Alpha  occ. eigenvalues --   -0.67718  -0.56951  -0.50098  -0.48301  -0.46909
 Alpha virt. eigenvalues --    0.14507   0.17491   0.20576   0.22314   0.50380
 Alpha virt. eigenvalues --    0.58803   0.58899   0.63116   0.73262   0.76702
 Alpha virt. eigenvalues --    0.76997   0.79272   0.83828   0.83974   0.86498

 Mulliken charges:
               1
     1  O   -0.459493
     2  H    0.228841
     3  H    0.230601
     4  O   -0.459147
     5  H    0.228531
     6  H    0.230667
 Sum of Mulliken charges =  -0.00000

 Dipole moment (field-independent basis, Debye):
    X=             -0.1173    Y=             -0.0047    Z=              0.0000  Tot=              0.1174
 Quadrupole moment (field-independent basis, Debye-Ang):
   XX=             -7.9886   YY=             -2.7911   ZZ=            -14.7244
   XY=             -0.0537   XZ=              0.0000   YZ=              0.0000

 Normal termination of Gaussian 16 at Fri Aug 26 20:34:10 2022.
