 Gaussian 16, Revision A.03,
 Gaussian 16:  ES64L-G16RevA.03 25-Dec-2016

 ------------------
 #p CCSD(T)/cc-pVTZ
 ------------------

 -----------
 H2O_H2O_367
 -----------
 Symbolic Z-matrix:
 Charge =  0 Multiplicity = 1

                         Standard orientation:
 ---------------------------------------------------------------------
 Center     Atomic      Atomic             Coordinates (Angstroms)
 Number     Number       Type             X           Y           Z
 ---------------------------------------------------------------------
      1          8           0        0.051365   -0.955386    0.000000
      2          1           0       -0.750750   -1.522940    0.000000
      3          1           0        0.848377   -1.530084    0.000000
      4          8           0        0.051365    1.018633    0.000000
      5          1           0       -0.102892    1.989051    0.000000
      6          1           0       -0.816576    0.557998    0.000000
 ---------------------------------------------------------------------

 SCF Done:  E(RHF) =  -152.050648446     A.U. after   11 cycles
 E2 =    -0.5367121631D+00 EUMP2 =    -0.15258736060886D+03
 CCSD(T)
 CCSD(T)= -0.15261397346D+03

 The electronic state is 1-A'.
 Alpha  occ. eigenvalues --  -20.54282 -20.51316  -1.34495  -1.28259  -0.71895
 Alpha  occ. eigenvalues --   -0.68938  -0.55834  -0.51112  -0.47721  -0.45105
 Alpha virt. eigenvalues --    0.13736   0.18553   0.19731   0.24549   0.51933
 Alpha virt. eigenvalues --    0.56662   0.60046   0.63926   0.72339   0.75749
 Alpha virt. eigenvalues --    0.80142   0.82286   0.84006   0.84164   0.88173

 Mulliken charges:
               1
     1  O   -0.409975
     2  H    0.197785
     3  H    0.226500
     4  O   -0.429723
     5  H    0.170756
     6  H    0.244657
 Sum of Mulliken charges =  -0.00000

 Dipole moment (field-independent basis, Debye):
    X=             -1.4716    Y=             -1.3408    Z=              0.0000  Tot=              1.9908
 Quadrupole moment (field-independent basis, Debye-Ang):
   XX=             -9.5697   YY=             -6.3011   ZZ=            -14.6866
   XY=             -1.2568   XZ=              0.0000   YZ=              0.0000

 Normal termination of Gaussian 16 at Fri Aug 26 15:42:50 2022.
