 Gaussian 16, Revision A.03,
 Gaussian 16:  ES64L-G16RevA.03 25-Dec-2016

 ------------------
 #p CCSD(T)/cc-pVTZ
 ------------------

 ------------
 H2O_H2O_1568
 ------------
 Symbolic Z-matrix:
 Charge =  0 Multiplicity = 1

                         Standard orientation:
 ---------------------------------------------------------------------
 Center     Atomic      Atomic             Coordinates (Angstroms)
 Number     Number       Type             X           Y           Z
 ---------------------------------------------------------------------
      1          8           0        0.052864   -1.589807    0.000000
      2          1           0       -0.748300   -2.158702    0.000000
      3          1           0        0.850835   -2.163172    0.000000
      4          8           0        0.052864    1.660026    0.000000
      5          1           0       -0.166133    2.617913    0.000000
      6          1           0       -0.782227    1.142214    0.000000
 ---------------------------------------------------------------------

 SCF Done:  E(RHF) =  -152.107018201     A.U. after   10 cycles
 E2 =    -0.5268985396D+00 EUMP2 =    -0.15263391674025D+03
 CCSD(T)
 CCSD(T)= -0.15266107963D+03

 The electronic state is 1-A'.
 Alpha  occ. eigenvalues --  -20.55587 -20.53813  -1.32871  -1.31082  -0.70288
 Alpha  occ. eigenvalues --   -0.68471  -0.56274  -0.54448  -0.49986  -0.48201
 Alpha virt. eigenvalues --    0.13447   0.16710   0.19949   0.23301   0.54210
 Alpha virt. eigenvalues --    0.54876   0.57191   0.58334   0.65970   0.76124
 Alpha virt. eigenvalues --    0.77130   0.77395   0.78988   0.81563   0.84796

 Mulliken charges:
               1
     1  O   -0.490238
     2  H    0.241509
     3  H    0.254332
     4  O   -0.499411
     5  H    0.236680
     6  H    0.257129
 Sum of Mulliken charges =  -0.00000

 Dipole moment (field-independent basis, Debye):
    X=             -1.7450    Y=             -1.3367    Z=              0.0000  Tot=              2.1981
 Quadrupole moment (field-independent basis, Debye-Ang):
   XX=             -9.5752   YY=             -1.5265   ZZ=            -14.7185
   XY=             -2.5172   XZ=              0.0000   YZ=              0.0000

 Normal termination of Gaussian 16 at Sat Aug 27 05:31:09 2022.
