 Gaussian 16, Revision A.03,
 Gaussian 16:  ES64L-G16RevA.03 25-Dec-2016

 ------------------
 #p CCSD(T)/cc-pVTZ
 ------------------

 -----------
 H2O_H2O_581
 -----------
 Symbolic Z-matrix:
 Charge =  0 Multiplicity = 1

                         Standard orientation:
 ---------------------------------------------------------------------
 Center     Atomic      Atomic             Coordinates (Angstroms)
 Number     Number       Type             X           Y           Z
 ---------------------------------------------------------------------
      1          8           0        0.021864   -1.104722    0.000000
      2          1           0       -0.778675   -1.674496    0.000000
      3          1           0        0.820465   -1.677209    0.000000
      4          8           0        0.021864    1.113342    0.000000
      5          1           0        0.543422    1.946099    0.000000
      6          1           0       -0.935029    1.336641    0.000000
 ---------------------------------------------------------------------

 SCF Done:  E(RHF) =  -152.078088973     A.U. after   11 cycles
 E2 =    -0.5316398671D+00 EUMP2 =    -0.15260972884026D+03
 CCSD(T)
 CCSD(T)= -0.15263686814D+03

 The electronic state is 1-A'.
 Alpha  occ. eigenvalues --  -20.52708 -20.52435  -1.31407  -1.29399  -0.68483
 Alpha  occ. eigenvalues --   -0.67209  -0.58567  -0.48706  -0.47484  -0.46016
 Alpha virt. eigenvalues --    0.14514   0.17870   0.20488   0.22795   0.51230
 Alpha virt. eigenvalues --    0.58798   0.58843   0.64217   0.70761   0.76860
 Alpha virt. eigenvalues --    0.77699   0.81539   0.84119   0.86485   0.87209

 Mulliken charges:
               1
     1  O   -0.452414
     2  H    0.219362
     3  H    0.231236
     4  O   -0.437367
     5  H    0.205855
     6  H    0.233327
 Sum of Mulliken charges =   0.00000

 Dipole moment (field-independent basis, Debye):
    X=             -0.6595    Y=             -0.1726    Z=              0.0000  Tot=              0.6817
 Quadrupole moment (field-independent basis, Debye-Ang):
   XX=             -8.3374   YY=             -4.4031   ZZ=            -14.7372
   XY=             -0.2812   XZ=              0.0000   YZ=              0.0000

 258037\MP4DQ=-152.6177842\MP4SDQ=-152.621147\CCSD=-152.620445\CCSD(T)=
 Normal termination of Gaussian 16 at Fri Aug 26 17:50:31 2022.
