 Gaussian 16, Revision A.03,
 Gaussian 16:  ES64L-G16RevA.03 25-Dec-2016

 ------------------
 #p CCSD(T)/cc-pVTZ
 ------------------

 -----------
 H2O_H2O_435
 -----------
 Symbolic Z-matrix:
 Charge =  0 Multiplicity = 1

                         Standard orientation:
 ---------------------------------------------------------------------
 Center     Atomic      Atomic             Coordinates (Angstroms)
 Number     Number       Type             X           Y           Z
 ---------------------------------------------------------------------
      1          8           0        0.034802   -1.016917    0.000000
      2          1           0       -0.766427   -1.585720    0.000000
      3          1           0        0.832708   -1.590373    0.000000
      4          8           0        0.034802    1.040319    0.000000
      5          1           0        0.324196    1.979338    0.000000
      6          1           0       -0.947317    1.009538    0.000000
 ---------------------------------------------------------------------

 SCF Done:  E(RHF) =  -152.063684405     A.U. after   10 cycles
 E2 =    -0.5340414968D+00 EUMP2 =    -0.15259772590192D+03
 CCSD(T)
 CCSD(T)= -0.15262464012D+03

 The electronic state is 1-A'.
 Alpha  occ. eigenvalues --  -20.52844 -20.52058  -1.32317  -1.28868  -0.69308
 Alpha  occ. eigenvalues --   -0.67357  -0.59018  -0.49474  -0.46127  -0.45473
 Alpha virt. eigenvalues --    0.14360   0.18050   0.20263   0.23306   0.52852
 Alpha virt. eigenvalues --    0.57732   0.58476   0.63803   0.70854   0.76825
 Alpha virt. eigenvalues --    0.78854   0.81878   0.83673   0.85912   0.87986

 Mulliken charges:
               1
     1  O   -0.445053
     2  H    0.212090
     3  H    0.230701
     4  O   -0.414883
     5  H    0.181518
     6  H    0.235628
 Sum of Mulliken charges =  -0.00000

 Dipole moment (field-independent basis, Debye):
    X=             -1.0191    Y=             -0.4776    Z=              0.0000  Tot=              1.1255
 Quadrupole moment (field-independent basis, Debye-Ang):
   XX=             -8.7947   YY=             -5.4017   ZZ=            -14.7313
   XY=             -0.5197   XZ=              0.0000   YZ=              0.0000

 Normal termination of Gaussian 16 at Fri Aug 26 16:26:18 2022.
