 Gaussian 16, Revision A.03,
 Gaussian 16:  ES64L-G16RevA.03 25-Dec-2016

 ------------------
 #p CCSD(T)/cc-pVTZ
 ------------------

 ------------
 H2O_H2O_1189
 ------------
 Symbolic Z-matrix:
 Charge =  0 Multiplicity = 1

                         Standard orientation:
 ---------------------------------------------------------------------
 Center     Atomic      Atomic             Coordinates (Angstroms)
 Number     Number       Type             X           Y           Z
 ---------------------------------------------------------------------
      1          8           0        0.045372   -1.404367    0.000000
      2          1           0       -0.755758   -1.973311    0.000000
      3          1           0        0.843378   -1.977683    0.000000
      4          8           0        0.045372    1.448809    0.000000
      5          1           0        0.081696    2.430740    0.000000
      6          1           0       -0.895266    1.164721    0.000000
 ---------------------------------------------------------------------

 SCF Done:  E(RHF) =  -152.103288083     A.U. after   10 cycles
 E2 =    -0.5277586011D+00 EUMP2 =    -0.15263104668366D+03
 CCSD(T)
 CCSD(T)= -0.15265826001D+03

 The electronic state is 1-A'.
 Alpha  occ. eigenvalues --  -20.54810 -20.53512  -1.32176  -1.30756  -0.69598
 Alpha  occ. eigenvalues --   -0.68217  -0.55996  -0.53397  -0.49314  -0.47810
 Alpha virt. eigenvalues --    0.13865   0.16995   0.20160   0.22984   0.53727
 Alpha virt. eigenvalues --    0.57735   0.57795   0.58397   0.68352   0.75974
 Alpha virt. eigenvalues --    0.76558   0.76886   0.81065   0.82742   0.85344

 Mulliken charges:
               1
     1  O   -0.478589
     2  H    0.233847
     3  H    0.248598
     4  O   -0.477345
     5  H    0.225714
     6  H    0.247775
 Sum of Mulliken charges =  -0.00000

 Dipole moment (field-independent basis, Debye):
    X=             -1.4636    Y=             -0.8570    Z=              0.0000  Tot=              1.6960
 Quadrupole moment (field-independent basis, Debye-Ang):
   XX=             -9.1578   YY=             -1.9888   ZZ=            -14.7186
   XY=             -1.4997   XZ=              0.0000   YZ=              0.0000

 Normal termination of Gaussian 16 at Sat Aug 27 02:50:54 2022.
