 Gaussian 16, Revision A.03,
 Gaussian 16:  ES64L-G16RevA.03 25-Dec-2016

 ------------------
 #p CCSD(T)/cc-pVTZ
 ------------------

 ------------
 H2O_H2O_1510
 ------------
 Symbolic Z-matrix:
 Charge =  0 Multiplicity = 1

                         Standard orientation:
 ---------------------------------------------------------------------
 Center     Atomic      Atomic             Coordinates (Angstroms)
 Number     Number       Type             X           Y           Z
 ---------------------------------------------------------------------
      1          8           0        0.034790   -1.588603    0.000000
      2          1           0       -0.765847   -2.158239    0.000000
      3          1           0        0.833292   -2.161229    0.000000
      4          8           0        0.034790    1.612078    0.000000
      5          1           0        0.323208    2.551398    0.000000
      6          1           0       -0.947297    1.580275    0.000000
 ---------------------------------------------------------------------

 SCF Done:  E(RHF) =  -152.104013783     A.U. after   10 cycles
 E2 =    -0.5270183084D+00 EUMP2 =    -0.15263103209124D+03
 CCSD(T)
 CCSD(T)= -0.15265827261D+03

 The electronic state is 1-A'.
 Alpha  occ. eigenvalues --  -20.54526 -20.53982  -1.31822  -1.31240  -0.69248
 Alpha  occ. eigenvalues --   -0.68649  -0.55593  -0.53976  -0.48947  -0.48308
 Alpha virt. eigenvalues --    0.14028   0.16510   0.20390   0.22046   0.53031
 Alpha virt. eigenvalues --    0.56947   0.58009   0.58728   0.64618   0.76924
 Alpha virt. eigenvalues --    0.78066   0.78816   0.79092   0.81983   0.85623

 Mulliken charges:
               1
     1  O   -0.482449
     2  H    0.237075
     3  H    0.246566
     4  O   -0.481391
     5  H    0.234075
     6  H    0.246124
 Sum of Mulliken charges =   0.00000

 Dipole moment (field-independent basis, Debye):
    X=             -1.1470    Y=             -0.4418    Z=              0.0000  Tot=              1.2292
 Quadrupole moment (field-independent basis, Debye-Ang):
   XX=             -8.6188   YY=             -0.0844   ZZ=            -14.7118
   XY=             -1.1189   XZ=              0.0000   YZ=              0.0000

 Normal termination of Gaussian 16 at Sat Aug 27 05:11:32 2022.
