 Gaussian 16, Revision A.03,
 Gaussian 16:  ES64L-G16RevA.03 25-Dec-2016

 ------------------
 #p CCSD(T)/cc-pVTZ
 ------------------

 ------------
 H2O_H2O_3210
 ------------
 Symbolic Z-matrix:
 Charge =  0 Multiplicity = 1

                         Standard orientation:
 ---------------------------------------------------------------------
 Center     Atomic      Atomic             Coordinates (Angstroms)
 Number     Number       Type             X           Y           Z
 ---------------------------------------------------------------------
      1          8           0        0.034782   -2.492701    0.000000
      2          1           0       -0.765471   -3.062877    0.000000
      3          1           0        0.833670   -3.064788    0.000000
      4          8           0        0.034782    2.516222    0.000000
      5          1           0        0.322565    3.455736    0.000000
      6          1           0       -0.947283    2.483757    0.000000
 ---------------------------------------------------------------------

 SCF Done:  E(RHF) =  -152.106523295     A.U. after   10 cycles
 E2 =    -0.5259948416D+00 EUMP2 =    -0.15263251813628D+03
 CCSD(T)
 CCSD(T)= -0.15265975453D+03

 The electronic state is 1-A'.
 Alpha  occ. eigenvalues --  -20.55124 -20.54905  -1.32419  -1.32197  -0.69828
 Alpha  occ. eigenvalues --   -0.69600  -0.55824  -0.55603  -0.49524  -0.49304
 Alpha virt. eigenvalues --    0.14267   0.14886   0.20453   0.20798   0.54664
 Alpha virt. eigenvalues --    0.55017   0.57576   0.57806   0.67448   0.69733
 Alpha virt. eigenvalues --    0.79352   0.79571   0.80767   0.81075   0.82740

 Mulliken charges:
               1
     1  O   -0.503676
     2  H    0.250325
     3  H    0.253368
     4  O   -0.503346
     5  H    0.249493
     6  H    0.253837
 Sum of Mulliken charges =   0.00000

 Dipole moment (field-independent basis, Debye):
    X=             -1.1888    Y=             -0.4152    Z=              0.0000  Tot=              1.2592
 Quadrupole moment (field-independent basis, Debye-Ang):
   XX=             -8.5700   YY=              6.6434   ZZ=            -14.7106
   XY=             -2.1701   XZ=              0.0000   YZ=              0.0000

 Normal termination of Gaussian 16 at Fri Aug 26 20:23:55 2022.
