 Gaussian 16, Revision A.03,
 Gaussian 16:  ES64L-G16RevA.03 25-Dec-2016

 ------------------
 #p CCSD(T)/cc-pVTZ
 ------------------

 ------------
 H2O_H2O_4341
 ------------
 Symbolic Z-matrix:
 Charge =  0 Multiplicity = 1

                         Standard orientation:
 ---------------------------------------------------------------------
 Center     Atomic      Atomic             Coordinates (Angstroms)
 Number     Number       Type             X           Y           Z
 ---------------------------------------------------------------------
      1          8           0        0.049501   -3.072847    0.000000
      2          1           0       -0.750854   -3.642881    0.000000
      3          1           0        0.848287   -3.645076    0.000000
      4          8           0        0.049501    3.129825    0.000000
      5          1           0       -0.043986    4.107969    0.000000
      6          1           0       -0.845457    2.724170    0.000000
 ---------------------------------------------------------------------

 SCF Done:  E(RHF) =  -152.107250075     A.U. after   10 cycles
 E2 =    -0.5258956758D+00 EUMP2 =    -0.15263314575044D+03
 CCSD(T)
 CCSD(T)= -0.15266036905D+03

 The electronic state is 1-A'.
 Alpha  occ. eigenvalues --  -20.55487 -20.55144  -1.32785  -1.32441  -0.70192
 Alpha  occ. eigenvalues --   -0.69841  -0.56225  -0.55880  -0.49896  -0.49552
 Alpha virt. eigenvalues --    0.14164   0.14528   0.20240   0.20609   0.54370
 Alpha virt. eigenvalues --    0.54736   0.57276   0.57621   0.67952   0.68351
 Alpha virt. eigenvalues --    0.78984   0.79322   0.80417   0.80785   0.82350

 Mulliken charges:
               1
     1  O   -0.507959
     2  H    0.252815
     3  H    0.255145
     4  O   -0.507724
     5  H    0.251850
     6  H    0.255873
 Sum of Mulliken charges =  -0.00000

 Dipole moment (field-independent basis, Debye):
    X=             -1.7008    Y=             -0.9960    Z=              0.0000  Tot=              1.9709
 Quadrupole moment (field-independent basis, Debye-Ang):
   XX=             -9.3454   YY=              8.0537   ZZ=            -14.7117
   XY=             -4.6135   XZ=              0.0000   YZ=              0.0000

 Normal termination of Gaussian 16 at Sat Aug 27 06:46:12 2022.
