 Gaussian 16, Revision A.03,
 Gaussian 16:  ES64L-G16RevA.03 25-Dec-2016

 ------------------
 #p CCSD(T)/cc-pVTZ
 ------------------

 -----------
 H2O_H2O_323
 -----------
 Symbolic Z-matrix:
 Charge =  0 Multiplicity = 1

                         Standard orientation:
 ---------------------------------------------------------------------
 Center     Atomic      Atomic             Coordinates (Angstroms)
 Number     Number       Type             X           Y           Z
 ---------------------------------------------------------------------
      1          8           0        0.057263   -0.905482    0.000000
      2          1           0       -0.745220   -1.472514    0.000000
      3          1           0        0.853901   -1.480699    0.000000
      4          8           0        0.057263    1.011653    0.000000
      5          1           0       -0.456070    1.849504    0.000000
      6          1           0       -0.568825    0.254341    0.000000
 ---------------------------------------------------------------------

 SCF Done:  E(RHF) =  -152.018131050     A.U. after   11 cycles
 E2 =    -0.5409090508D+00 EUMP2 =    -0.15255904010132D+03
 CCSD(T)
 CCSD(T)= -0.15258465947D+03

 The electronic state is 1-A'.
 Alpha  occ. eigenvalues --  -20.57064 -20.48181  -1.38852  -1.26499  -0.76603
 Alpha  occ. eigenvalues --   -0.71788  -0.54245  -0.50647  -0.48863  -0.43383
 Alpha virt. eigenvalues --    0.12640   0.18338   0.19990   0.27329   0.48956
 Alpha virt. eigenvalues --    0.53985   0.63021   0.68479   0.72700   0.74939
 Alpha virt. eigenvalues --    0.78065   0.79282   0.83915   0.85539   0.88091

 Mulliken charges:
               1
     1  O   -0.342643
     2  H    0.193512
     3  H    0.233038
     4  O   -0.525542
     5  H    0.173357
     6  H    0.268278
 Sum of Mulliken charges =  -0.00000

 Dipole moment (field-independent basis, Debye):
    X=             -1.6077    Y=             -2.6893    Z=              0.0000  Tot=              3.1333
 Quadrupole moment (field-independent basis, Debye-Ang):
   XX=             -9.8232   YY=             -7.6219   ZZ=            -14.6020
   XY=             -2.0766   XZ=              0.0000   YZ=              0.0000

 Normal termination of Gaussian 16 at Fri Aug 26 15:15:37 2022.
