 Gaussian 16, Revision A.03,
 Gaussian 16:  ES64L-G16RevA.03 25-Dec-2016

 ------------------
 #p CCSD(T)/cc-pVTZ
 ------------------

 ------------
 H2O_H2O_1878
 ------------
 Symbolic Z-matrix:
 Charge =  0 Multiplicity = 1

                         Standard orientation:
 ---------------------------------------------------------------------
 Center     Atomic      Atomic             Coordinates (Angstroms)
 Number     Number       Type             X           Y           Z
 ---------------------------------------------------------------------
      1          8           0        0.011143   -1.799606    0.000000
      2          1           0       -0.788732   -2.370312    0.000000
      3          1           0        0.810410   -2.371164    0.000000
      4          8           0        0.011143    1.801789    0.000000
      5          1           0        0.684309    2.517578    0.000000
      6          1           0       -0.884272    2.206436    0.000000
 ---------------------------------------------------------------------

 SCF Done:  E(RHF) =  -152.104347865     A.U. after   10 cycles
 E2 =    -0.5265701064D+00 EUMP2 =    -0.15263091797130D+03
 CCSD(T)
 CCSD(T)= -0.15265817022D+03

 The electronic state is 1-A'.
 Alpha  occ. eigenvalues --  -20.54378 -20.54338  -1.31667  -1.31606  -0.69089
 Alpha  occ. eigenvalues --   -0.69029  -0.55322  -0.54482  -0.48796  -0.48664
 Alpha virt. eigenvalues --    0.14203   0.16009   0.20601   0.21372   0.53541
 Alpha virt. eigenvalues --    0.57118   0.57990   0.58362   0.61228   0.75799
 Alpha virt. eigenvalues --    0.79146   0.79726   0.80534   0.81017   0.83401

 Mulliken charges:
               1
     1  O   -0.487352
     2  H    0.242570
     3  H    0.244853
     4  O   -0.487341
     5  H    0.242317
     6  H    0.244953
 Sum of Mulliken charges =  -0.00000

 Dipole moment (field-independent basis, Debye):
    X=             -0.3732    Y=             -0.0404    Z=              0.0000  Tot=              0.3754
 Quadrupole moment (field-independent basis, Debye-Ang):
   XX=             -7.9292   YY=              2.1319   ZZ=            -14.7090
   XY=             -0.3583   XZ=              0.0000   YZ=              0.0000

 Normal termination of Gaussian 16 at Sat Aug 27 07:19:15 2022.
