 Gaussian 16, Revision A.03,
 Gaussian 16:  ES64L-G16RevA.03 25-Dec-2016

 ------------------
 #p CCSD(T)/cc-pVTZ
 ------------------

 ------------
 H2O_H2O_4773
 ------------
 Symbolic Z-matrix:
 Charge =  0 Multiplicity = 1

                         Standard orientation:
 ---------------------------------------------------------------------
 Center     Atomic      Atomic             Coordinates (Angstroms)
 Number     Number       Type             X           Y           Z
 ---------------------------------------------------------------------
      1          8           0        0.057070   -3.271937    0.000000
      2          1           0       -0.743343   -3.841889    0.000000
      3          1           0        0.855797   -3.844248    0.000000
      4          8           0        0.057070    3.378524    0.000000
      5          1           0       -0.459313    4.214500    0.000000
      6          1           0       -0.566256    2.618937    0.000000
 ---------------------------------------------------------------------

 SCF Done:  E(RHF) =  -152.107626282     A.U. after   10 cycles
 E2 =    -0.5258561390D+00 EUMP2 =    -0.15263348242098D+03
 CCSD(T)
 CCSD(T)= -0.15266069815D+03

 The electronic state is 1-A'.
 Alpha  occ. eigenvalues --  -20.55738 -20.55189  -1.33038  -1.32489  -0.70444
 Alpha  occ. eigenvalues --   -0.69889  -0.56495  -0.55941  -0.50151  -0.49604
 Alpha virt. eigenvalues --    0.13952   0.14507   0.20042   0.20625   0.54115
 Alpha virt. eigenvalues --    0.54681   0.57053   0.57601   0.67669   0.68252
 Alpha virt. eigenvalues --    0.78729   0.79268   0.80156   0.80731   0.82084

 Mulliken charges:
               1
     1  O   -0.510178
     2  H    0.254074
     3  H    0.256105
     4  O   -0.509873
     5  H    0.252734
     6  H    0.257139
 Sum of Mulliken charges =  -0.00000

 Dipole moment (field-independent basis, Debye):
    X=             -1.9630    Y=             -1.8596    Z=              0.0000  Tot=              2.7039
 Quadrupole moment (field-independent basis, Debye-Ang):
   XX=             -9.8554   YY=              4.0547   ZZ=            -14.7125
   XY=             -6.6477   XZ=              0.0000   YZ=              0.0000

 Normal termination of Gaussian 16 at Sat Aug 27 09:15:31 2022.
