 Gaussian 16, Revision A.03,
 Gaussian 16:  ES64L-G16RevA.03 25-Dec-2016

 ------------------
 #p CCSD(T)/cc-pVTZ
 ------------------

 ------------
 H2O_H2O_2465
 ------------
 Symbolic Z-matrix:
 Charge =  0 Multiplicity = 1

                         Standard orientation:
 ---------------------------------------------------------------------
 Center     Atomic      Atomic             Coordinates (Angstroms)
 Number     Number       Type             X           Y           Z
 ---------------------------------------------------------------------
      1          8           0        0.047537   -2.079126    0.000000
      2          1           0       -0.753142   -2.648704    0.000000
      3          1           0        0.845997   -2.651811    0.000000
      4          8           0        0.047537    2.129707    0.000000
      5          1           0        0.018784    3.111888    0.000000
      6          1           0       -0.872233    1.783979    0.000000
 ---------------------------------------------------------------------

 SCF Done:  E(RHF) =  -152.106742325     A.U. after   10 cycles
 E2 =    -0.5261287951D+00 EUMP2 =    -0.15263287112025D+03
 CCSD(T)
 CCSD(T)= -0.15266008672D+03

 The electronic state is 1-A'.
 Alpha  occ. eigenvalues --  -20.55286 -20.54574  -1.32572  -1.31859  -0.69984
 Alpha  occ. eigenvalues --   -0.69246  -0.55978  -0.55263  -0.49679  -0.48971
 Alpha virt. eigenvalues --    0.13637   0.15612   0.20226   0.21479   0.53931
 Alpha virt. eigenvalues --    0.54970   0.57466   0.58121   0.65366   0.73786
 Alpha virt. eigenvalues --    0.79136   0.79956   0.80076   0.81827   0.83424

 Mulliken charges:
               1
     1  O   -0.502799
     2  H    0.248449
     3  H    0.255010
     4  O   -0.503341
     5  H    0.246278
     6  H    0.256401
 Sum of Mulliken charges =  -0.00000

 Dipole moment (field-independent basis, Debye):
    X=             -1.6117    Y=             -0.9128    Z=              0.0000  Tot=              1.8522
 Quadrupole moment (field-independent basis, Debye-Ang):
   XX=             -9.2304   YY=              2.3762   ZZ=            -14.7123
   XY=             -2.7297   XZ=              0.0000   YZ=              0.0000

 Normal termination of Gaussian 16 at Sat Aug 27 10:42:31 2022.
