 Gaussian 16, Revision A.03,
 Gaussian 16:  ES64L-G16RevA.03 25-Dec-2016

 ------------------
 #p CCSD(T)/cc-pVTZ
 ------------------

 ------------
 H2O_H2O_2613
 ------------
 Symbolic Z-matrix:
 Charge =  0 Multiplicity = 1

                         Standard orientation:
 ---------------------------------------------------------------------
 Center     Atomic      Atomic             Coordinates (Angstroms)
 Number     Number       Type             X           Y           Z
 ---------------------------------------------------------------------
      1          8           0        0.042973   -2.165318    0.000000
      2          1           0       -0.757563   -2.735097    0.000000
      3          1           0        0.841576   -2.737803    0.000000
      4          8           0        0.042973    2.204085    0.000000
      5          1           0        0.142421    3.181641    0.000000
      6          1           0       -0.914000    1.981128    0.000000
 ---------------------------------------------------------------------

 SCF Done:  E(RHF) =  -152.106490049     A.U. after   10 cycles
 E2 =    -0.5260911507D+00 EUMP2 =    -0.15263258120011D+03
 CCSD(T)
 CCSD(T)= -0.15265980863D+03

 The electronic state is 1-A'.
 Alpha  occ. eigenvalues --  -20.55161 -20.54667  -1.32450  -1.31953  -0.69862
 Alpha  occ. eigenvalues --   -0.69347  -0.55850  -0.55348  -0.49555  -0.49062
 Alpha virt. eigenvalues --    0.13852   0.15417   0.20326   0.21214   0.54184
 Alpha virt. eigenvalues --    0.55136   0.57555   0.58001   0.65632   0.72757
 Alpha virt. eigenvalues --    0.79285   0.79842   0.80469   0.81583   0.82959

 Mulliken charges:
               1
     1  O   -0.502601
     2  H    0.248730
     3  H    0.254159
     4  O   -0.502367
     5  H    0.247062
     6  H    0.255017
 Sum of Mulliken charges =  -0.00000

 Dipole moment (field-independent basis, Debye):
    X=             -1.4602    Y=             -0.6947    Z=              0.0000  Tot=              1.6171
 Quadrupole moment (field-independent basis, Debye-Ang):
   XX=             -8.9723   YY=              3.5370   ZZ=            -14.7113
   XY=             -2.4241   XZ=              0.0000   YZ=              0.0000

 Normal termination of Gaussian 16 at Fri Aug 26 14:20:45 2022.
