 Gaussian 16, Revision A.03,
 Gaussian 16:  ES64L-G16RevA.03 25-Dec-2016

 ------------------
 #p CCSD(T)/cc-pVTZ
 ------------------

 ------------
 H2O_H2O_1842
 ------------
 Symbolic Z-matrix:
 Charge =  0 Multiplicity = 1

                         Standard orientation:
 ---------------------------------------------------------------------
 Center     Atomic      Atomic             Coordinates (Angstroms)
 Number     Number       Type             X           Y           Z
 ---------------------------------------------------------------------
      1          8           0        0.051302   -1.739739    0.000000
      2          1           0       -0.749688   -2.308879    0.000000
      3          1           0        0.849449   -2.312859    0.000000
      4          8           0        0.051302    1.803189    0.000000
      5          1           0       -0.104874    2.773300    0.000000
      6          1           0       -0.815725    1.340837    0.000000
 ---------------------------------------------------------------------

 SCF Done:  E(RHF) =  -152.106958882     A.U. after   10 cycles
 E2 =    -0.5265339158D+00 EUMP2 =    -0.15263349279827D+03
 CCSD(T)
 CCSD(T)= -0.15266067336D+03

 The electronic state is 1-A'.
 Alpha  occ. eigenvalues --  -20.55450 -20.54120  -1.32724  -1.31392  -0.70140
 Alpha  occ. eigenvalues --   -0.68766  -0.56132  -0.54770  -0.49836  -0.48511
 Alpha virt. eigenvalues --    0.13455   0.16340   0.20057   0.22617   0.54033
 Alpha virt. eigenvalues --    0.54478   0.57326   0.58550   0.64710   0.76224
 Alpha virt. eigenvalues --    0.78337   0.78492   0.79288   0.80896   0.84907

 Mulliken charges:
               1
     1  O   -0.495239
     2  H    0.244006
     3  H    0.254422
     4  O   -0.500973
     5  H    0.240524
     6  H    0.257260
 Sum of Mulliken charges =  -0.00000

 Dipole moment (field-independent basis, Debye):
    X=             -1.7126    Y=             -1.1838    Z=              0.0000  Tot=              2.0819
 Quadrupole moment (field-independent basis, Debye-Ang):
   XX=             -9.4694   YY=             -0.3344   ZZ=            -14.7154
   XY=             -2.5818   XZ=              0.0000   YZ=              0.0000

 Normal termination of Gaussian 16 at Sat Aug 27 07:07:12 2022.
