 Gaussian 16, Revision A.03,
 Gaussian 16:  ES64L-G16RevA.03 25-Dec-2016

 ------------------
 #p CCSD(T)/cc-pVTZ
 ------------------

 ---------
 H2O_H2O_5
 ---------
 Symbolic Z-matrix:
 Charge =  0 Multiplicity = 1

                         Standard orientation:
 ---------------------------------------------------------------------
 Center     Atomic      Atomic             Coordinates (Angstroms)
 Number     Number       Type             X           Y           Z
 ---------------------------------------------------------------------
      1          8           0        0.018364   -0.800345    0.000000
      2          1           0       -0.782329   -1.369902    0.000000
      3          1           0        0.816810   -1.373049    0.000000
      4          8           0        0.018364    0.806334    0.000000
      5          1           0        0.593487    1.603040    0.000000
      6          1           0       -0.921797    1.091993    0.000000
 ---------------------------------------------------------------------

 SCF Done:  E(RHF) =  -151.908353997     A.U. after   12 cycles
 E2 =    -0.5533849539D+00 EUMP2 =    -0.15246173895134D+03
 CCSD(T)
 CCSD(T)= -0.15248569094D+03

 The electronic state is 1-A'.
 Alpha  occ. eigenvalues --  -20.51793 -20.51617  -1.37762  -1.26844  -0.72136
 Alpha  occ. eigenvalues --   -0.69506  -0.64467  -0.53612  -0.43138  -0.32014
 Alpha virt. eigenvalues --    0.14241   0.19435   0.20037   0.23191   0.51551
 Alpha virt. eigenvalues --    0.57350   0.59021   0.65748   0.69309   0.78800
 Alpha virt. eigenvalues --    0.80381   0.83469   0.83575   0.85274   0.88388

 Mulliken charges:
               1
     1  O   -0.331863
     2  H    0.156517
     3  H    0.176909
     4  O   -0.319597
     5  H    0.113146
     6  H    0.204889
 Sum of Mulliken charges =  -0.00000

 Dipole moment (field-independent basis, Debye):
    X=             -0.5271    Y=             -0.1750    Z=              0.0000  Tot=              0.5554
 Quadrupole moment (field-independent basis, Debye-Ang):
   XX=             -8.7287   YY=             -9.5337   ZZ=            -14.7650
   XY=             -0.3130   XZ=              0.0000   YZ=              0.0000

 79\MP4DQ=-152.4637781\MP4SDQ=-152.468288\CCSD=-152.4667762\CCSD(T)=-15
 Normal termination of Gaussian 16 at Fri Aug 26 11:49:12 2022.
