 Gaussian 16, Revision A.03,
 Gaussian 16:  ES64L-G16RevA.03 25-Dec-2016

 ------------------
 #p CCSD(T)/cc-pVTZ
 ------------------

 ------------
 H2O_H2O_1655
 ------------
 Symbolic Z-matrix:
 Charge =  0 Multiplicity = 1

                         Standard orientation:
 ---------------------------------------------------------------------
 Center     Atomic      Atomic             Coordinates (Angstroms)
 Number     Number       Type             X           Y           Z
 ---------------------------------------------------------------------
      1          8           0        0.018361   -1.677855    0.000000
      2          1           0       -0.781746   -2.248235    0.000000
      3          1           0        0.817395   -2.249739    0.000000
      4          8           0        0.018361    1.683882    0.000000
      5          1           0        0.592665    2.481179    0.000000
      6          1           0       -0.922093    1.968575    0.000000
 ---------------------------------------------------------------------

 SCF Done:  E(RHF) =  -152.103732280     A.U. after   10 cycles
 E2 =    -0.5268165767D+00 EUMP2 =    -0.15263054885633D+03
 CCSD(T)
 CCSD(T)= -0.15265780718D+03

 The electronic state is 1-A'.
 Alpha  occ. eigenvalues --  -20.54285 -20.54159  -1.31579  -1.31422  -0.69004
 Alpha  occ. eigenvalues --   -0.68848  -0.55391  -0.54078  -0.48718  -0.48466
 Alpha virt. eigenvalues --    0.14208   0.16282   0.20550   0.21603   0.52865
 Alpha virt. eigenvalues --    0.57547   0.58104   0.58520   0.62504   0.76374
 Alpha virt. eigenvalues --    0.78665   0.78838   0.79996   0.81612   0.84706

 Mulliken charges:
               1
     1  O   -0.482515
     2  H    0.239121
     3  H    0.243649
     4  O   -0.482285
     5  H    0.238530
     6  H    0.243500
 Sum of Mulliken charges =  -0.00000

 Dipole moment (field-independent basis, Debye):
    X=             -0.6103    Y=             -0.1125    Z=              0.0000  Tot=              0.6206
 Quadrupole moment (field-independent basis, Debye-Ang):
   XX=             -8.0739   YY=              1.0232   ZZ=            -14.7093
   XY=             -0.5398   XZ=              0.0000   YZ=              0.0000

 Normal termination of Gaussian 16 at Sat Aug 27 06:01:42 2022.
