 Gaussian 16, Revision A.03,
 Gaussian 16:  ES64L-G16RevA.03 25-Dec-2016

 ------------------
 #p CCSD(T)/cc-pVTZ
 ------------------

 -----------
 H2O_H2O_721
 -----------
 Symbolic Z-matrix:
 Charge =  0 Multiplicity = 1

                         Standard orientation:
 ---------------------------------------------------------------------
 Center     Atomic      Atomic             Coordinates (Angstroms)
 Number     Number       Type             X           Y           Z
 ---------------------------------------------------------------------
      1          8           0        0.056204   -1.126197    0.000000
      2          1           0       -0.745710   -1.694034    0.000000
      3          1           0        0.853419   -1.700614    0.000000
      4          8           0        0.056204    1.217677    0.000000
      5          1           0       -0.344276    2.114962    0.000000
      6          1           0       -0.662705    0.547844    0.000000
 ---------------------------------------------------------------------

 SCF Done:  E(RHF) =  -152.093001020     A.U. after   11 cycles
 E2 =    -0.5314731858D+00 EUMP2 =    -0.15262447420548D+03
 CCSD(T)
 CCSD(T)= -0.15265135282D+03

 The electronic state is 1-A'.
 Alpha  occ. eigenvalues --  -20.56195 -20.51671  -1.34375  -1.29122  -0.71737
 Alpha  occ. eigenvalues --   -0.68577  -0.55347  -0.52602  -0.51308  -0.46142
 Alpha virt. eigenvalues --    0.13199   0.18316   0.19478   0.25823   0.50919
 Alpha virt. eigenvalues --    0.56183   0.60721   0.62135   0.71687   0.73875
 Alpha virt. eigenvalues --    0.77187   0.82630   0.83805   0.83965   0.87133

 Mulliken charges:
               1
     1  O   -0.447078
     2  H    0.225604
     3  H    0.247118
     4  O   -0.495713
     5  H    0.210129
     6  H    0.259940
 Sum of Mulliken charges =  -0.00000

 Dipole moment (field-independent basis, Debye):
    X=             -1.7256    Y=             -1.9539    Z=              0.0000  Tot=              2.6068
 Quadrupole moment (field-independent basis, Debye-Ang):
   XX=             -9.8014   YY=             -5.2627   ZZ=            -14.7095
   XY=             -2.2205   XZ=              0.0000   YZ=              0.0000

 Normal termination of Gaussian 16 at Fri Aug 26 19:25:16 2022.
