 Gaussian 16, Revision A.03,
 Gaussian 16:  ES64L-G16RevA.03 25-Dec-2016

 ------------------
 #p CCSD(T)/cc-pVTZ
 ------------------

 ------------
 H2O_H2O_3430
 ------------
 Symbolic Z-matrix:
 Charge =  0 Multiplicity = 1

                         Standard orientation:
 ---------------------------------------------------------------------
 Center     Atomic      Atomic             Coordinates (Angstroms)
 Number     Number       Type             X           Y           Z
 ---------------------------------------------------------------------
      1          8           0        0.018360   -2.621858    0.000000
      2          1           0       -0.781555   -3.192509    0.000000
      3          1           0        0.817587   -3.193471    0.000000
      4          8           0        0.018360    2.627898    0.000000
      5          1           0        0.592395    3.425388    0.000000
      6          1           0       -0.922191    2.912273    0.000000
 ---------------------------------------------------------------------

 SCF Done:  E(RHF) =  -152.106406200     A.U. after   10 cycles
 E2 =    -0.5259898797D+00 EUMP2 =    -0.15263239607947D+03
 CCSD(T)
 CCSD(T)= -0.15265963615D+03

 The electronic state is 1-A'.
 Alpha  occ. eigenvalues --  -20.55032 -20.54981  -1.32326  -1.32275  -0.69735
 Alpha  occ. eigenvalues --   -0.69682  -0.55726  -0.55674  -0.49430  -0.49379
 Alpha virt. eigenvalues --    0.14439   0.14731   0.20550   0.20672   0.54796
 Alpha virt. eigenvalues --    0.54931   0.57659   0.57730   0.67939   0.69205
 Alpha virt. eigenvalues --    0.79445   0.79498   0.80883   0.80971   0.82769

 Mulliken charges:
               1
     1  O   -0.502977
     2  H    0.250788
     3  H    0.252191
     4  O   -0.502889
     5  H    0.250500
     6  H    0.252389
 Sum of Mulliken charges =  -0.00000

 Dipole moment (field-independent basis, Debye):
    X=             -0.6283    Y=             -0.1062    Z=              0.0000  Tot=              0.6372
 Quadrupole moment (field-independent basis, Debye-Ang):
   XX=             -8.0223   YY=              8.5949   ZZ=            -14.7102
   XY=             -1.1192   XZ=              0.0000   YZ=              0.0000

 Normal termination of Gaussian 16 at Fri Aug 26 22:16:05 2022.
