 Gaussian 16, Revision A.03,
 Gaussian 16:  ES64L-G16RevA.03 25-Dec-2016

 ------------------
 #p CCSD(T)/cc-pVTZ
 ------------------

 ------------
 H2O_H2O_3663
 ------------
 Symbolic Z-matrix:
 Charge =  0 Multiplicity = 1

                         Standard orientation:
 ---------------------------------------------------------------------
 Center     Atomic      Atomic             Coordinates (Angstroms)
 Number     Number       Type             X           Y           Z
 ---------------------------------------------------------------------
      1          8           0        0.042966   -2.723732    0.000000
      2          1           0       -0.757374   -3.293786    0.000000
      3          1           0        0.841767   -3.295940    0.000000
      4          8           0        0.042966    2.762527    0.000000
      5          1           0        0.142078    3.740118    0.000000
      6          1           0       -0.913930    2.539241    0.000000
 ---------------------------------------------------------------------

 SCF Done:  E(RHF) =  -152.106928797     A.U. after   10 cycles
 E2 =    -0.5259396114D+00 EUMP2 =    -0.15263286840864D+03
 CCSD(T)
 CCSD(T)= -0.15266009754D+03

 The electronic state is 1-A'.
 Alpha  occ. eigenvalues --  -20.55316 -20.55015  -1.32613  -1.32309  -0.70021
 Alpha  occ. eigenvalues --   -0.69710  -0.56038  -0.55735  -0.49721  -0.49419
 Alpha virt. eigenvalues --    0.14235   0.14693   0.20350   0.20712   0.54531
 Alpha virt. eigenvalues --    0.54876   0.57420   0.57724   0.67914   0.68794
 Alpha virt. eigenvalues --    0.79158   0.79455   0.80593   0.80910   0.82575

 Mulliken charges:
               1
     1  O   -0.506077
     2  H    0.251588
     3  H    0.254496
     4  O   -0.505767
     5  H    0.250603
     6  H    0.255157
 Sum of Mulliken charges =  -0.00000

 Dipole moment (field-independent basis, Debye):
    X=             -1.4725    Y=             -0.6815    Z=              0.0000  Tot=              1.6226
 Quadrupole moment (field-independent basis, Debye-Ang):
   XX=             -8.9661   YY=              7.2860   ZZ=            -14.7112
   XY=             -3.2344   XZ=              0.0000   YZ=              0.0000

 Normal termination of Gaussian 16 at Sat Aug 27 02:18:33 2022.
