 Gaussian 16, Revision A.03,
 Gaussian 16:  ES64L-G16RevA.03 25-Dec-2016

 ------------------
 #p CCSD(T)/cc-pVTZ
 ------------------

 ----------
 H2O_H2O_67
 ----------
 Symbolic Z-matrix:
 Charge =  0 Multiplicity = 1

                         Standard orientation:
 ---------------------------------------------------------------------
 Center     Atomic      Atomic             Coordinates (Angstroms)
 Number     Number       Type             X           Y           Z
 ---------------------------------------------------------------------
      1          8           0        0.051392   -0.795881    0.000000
      2          1           0       -0.751211   -1.362744    0.000000
      3          1           0        0.847908   -1.371266    0.000000
      4          8           0        0.051392    0.859039    0.000000
      5          1           0       -0.102029    1.829590    0.000000
      6          1           0       -0.816945    0.399152    0.000000
 ---------------------------------------------------------------------

 SCF Done:  E(RHF) =  -151.932175529     A.U. after   12 cycles
 E2 =    -0.5495450170D+00 EUMP2 =    -0.15248172054602D+03
 CCSD(T)
 CCSD(T)= -0.15250670056D+03

 The electronic state is 1-A'.
 Alpha  occ. eigenvalues --  -20.53958 -20.50545  -1.39536  -1.26390  -0.76174
 Alpha  occ. eigenvalues --   -0.71319  -0.55490  -0.54301  -0.43351  -0.39641
 Alpha virt. eigenvalues --    0.13603   0.18948   0.19817   0.24501   0.51276
 Alpha virt. eigenvalues --    0.55880   0.60010   0.66743   0.73256   0.76818
 Alpha virt. eigenvalues --    0.79695   0.81260   0.83931   0.84055   0.89003

 Mulliken charges:
               1
     1  O   -0.316712
     2  H    0.148328
     3  H    0.196885
     4  O   -0.376404
     5  H    0.103506
     6  H    0.244396
 Sum of Mulliken charges =  -0.00000

 Dipole moment (field-independent basis, Debye):
    X=             -1.3335    Y=             -1.4708    Z=              0.0000  Tot=              1.9853
 Quadrupole moment (field-independent basis, Debye-Ang):
   XX=             -9.6433   YY=             -8.8011   ZZ=            -14.5967
   XY=             -0.9506   XZ=              0.0000   YZ=              0.0000

 Normal termination of Gaussian 16 at Fri Aug 26 12:25:52 2022.
