 Gaussian 16, Revision A.03,
 Gaussian 16:  ES64L-G16RevA.03 25-Dec-2016

 ------------------
 #p CCSD(T)/cc-pVTZ
 ------------------

 -----------
 H2O_H2O_456
 -----------
 Symbolic Z-matrix:
 Charge =  0 Multiplicity = 1

                         Standard orientation:
 ---------------------------------------------------------------------
 Center     Atomic      Atomic             Coordinates (Angstroms)
 Number     Number       Type             X           Y           Z
 ---------------------------------------------------------------------
      1          8           0        0.021864   -1.038245    0.000000
      2          1           0       -0.778736   -1.607933    0.000000
      3          1           0        0.820403   -1.610819    0.000000
      4          8           0        0.021864    1.046861    0.000000
      5          1           0        0.543513    1.879561    0.000000
      6          1           0       -0.935004    1.270262    0.000000
 ---------------------------------------------------------------------

 SCF Done:  E(RHF) =  -152.064240871     A.U. after   10 cycles
 E2 =    -0.5335956051D+00 EUMP2 =    -0.15259783647607D+03
 CCSD(T)
 CCSD(T)= -0.15262480647D+03

 The electronic state is 1-A'.
 Alpha  occ. eigenvalues --  -20.52348 -20.52076  -1.31774  -1.28903  -0.68647
 Alpha  occ. eigenvalues --   -0.66921  -0.59706  -0.49024  -0.45533  -0.45432
 Alpha virt. eigenvalues --    0.14553   0.18117   0.20439   0.22935   0.51322
 Alpha virt. eigenvalues --    0.58732   0.58875   0.64968   0.70177   0.77336
 Alpha virt. eigenvalues --    0.78304   0.82316   0.84138   0.86492   0.87477

 Mulliken charges:
               1
     1  O   -0.443301
     2  H    0.214213
     3  H    0.227173
     4  O   -0.425068
     5  H    0.195586
     6  H    0.231397
 Sum of Mulliken charges =  -0.00000

 Dipole moment (field-independent basis, Debye):
    X=             -0.6459    Y=             -0.1774    Z=              0.0000  Tot=              0.6698
 Quadrupole moment (field-independent basis, Debye-Ang):
   XX=             -8.3822   YY=             -5.1991   ZZ=            -14.7421
   XY=             -0.2514   XZ=              0.0000   YZ=              0.0000

 Normal termination of Gaussian 16 at Fri Aug 26 16:38:00 2022.
