 Gaussian 16, Revision A.03,
 Gaussian 16:  ES64L-G16RevA.03 25-Dec-2016

 ------------------
 #p CCSD(T)/cc-pVTZ
 ------------------

 -----------
 H2O_H2O_332
 -----------
 Symbolic Z-matrix:
 Charge =  0 Multiplicity = 1

                         Standard orientation:
 ---------------------------------------------------------------------
 Center     Atomic      Atomic             Coordinates (Angstroms)
 Number     Number       Type             X           Y           Z
 ---------------------------------------------------------------------
      1          8           0        0.025274   -0.970107    0.000000
      2          1           0       -0.775568   -1.539456    0.000000
      3          1           0        0.823570   -1.543019    0.000000
      4          8           0        0.025274    0.981774    0.000000
      5          1           0        0.491710    1.846612    0.000000
      6          1           0       -0.944090    1.142527    0.000000
 ---------------------------------------------------------------------

 SCF Done:  E(RHF) =  -152.043398420     A.U. after   11 cycles
 E2 =    -0.5364232291D+00 EUMP2 =    -0.15257982164902D+03
 CCSD(T)
 CCSD(T)= -0.15260648961D+03

 The electronic state is 1-A'.
 Alpha  occ. eigenvalues --  -20.52092 -20.51727  -1.32548  -1.28340  -0.69162
 Alpha  occ. eigenvalues --   -0.66857  -0.60816  -0.49652  -0.44805  -0.43267
 Alpha virt. eigenvalues --    0.14529   0.18366   0.20312   0.23144   0.51891
 Alpha virt. eigenvalues --    0.58245   0.58834   0.65254   0.69995   0.77810
 Alpha virt. eigenvalues --    0.78890   0.82780   0.83977   0.86278   0.87902

 Mulliken charges:
               1
     1  O   -0.430977
     2  H    0.206391
     3  H    0.222453
     4  O   -0.405704
     5  H    0.178334
     6  H    0.229503
 Sum of Mulliken charges =   0.00000

 Dipole moment (field-independent basis, Debye):
    X=             -0.7293    Y=             -0.2494    Z=              0.0000  Tot=              0.7707
 Quadrupole moment (field-independent basis, Debye-Ang):
   XX=             -8.5238   YY=             -6.0870   ZZ=            -14.7407
   XY=             -0.2859   XZ=              0.0000   YZ=              0.0000

 Normal termination of Gaussian 16 at Fri Aug 26 15:21:54 2022.
