 Gaussian 16, Revision A.03,
 Gaussian 16:  ES64L-G16RevA.03 25-Dec-2016

 ------------------
 #p CCSD(T)/cc-pVTZ
 ------------------

 ------------
 H2O_H2O_4891
 ------------
 Symbolic Z-matrix:
 Charge =  0 Multiplicity = 1

                         Standard orientation:
 ---------------------------------------------------------------------
 Center     Atomic      Atomic             Coordinates (Angstroms)
 Number     Number       Type             X           Y           Z
 ---------------------------------------------------------------------
      1          8           0        0.049497   -3.365351    0.000000
      2          1           0       -0.750790   -3.935480    0.000000
      3          1           0        0.848351   -3.937486    0.000000
      4          8           0        0.049497    3.422340    0.000000
      5          1           0       -0.044105    4.400473    0.000000
      6          1           0       -0.845413    3.016580    0.000000
 ---------------------------------------------------------------------

 SCF Done:  E(RHF) =  -152.107304165     A.U. after   10 cycles
 E2 =    -0.5258839705D+00 EUMP2 =    -0.15263318813509D+03
 CCSD(T)
 CCSD(T)= -0.15266041073D+03

 The electronic state is 1-A'.
 Alpha  occ. eigenvalues --  -20.55514 -20.55229  -1.32812  -1.32527  -0.70218
 Alpha  occ. eigenvalues --   -0.69929  -0.56254  -0.55969  -0.49923  -0.49638
 Alpha virt. eigenvalues --    0.14154   0.14439   0.20224   0.20523   0.54345
 Alpha virt. eigenvalues --    0.54644   0.57254   0.57539   0.67943   0.68234
 Alpha virt. eigenvalues --    0.78957   0.79238   0.80390   0.80694   0.82314

 Mulliken charges:
               1
     1  O   -0.508265
     2  H    0.253237
     3  H    0.255028
     4  O   -0.508101
     5  H    0.252488
     6  H    0.255614
 Sum of Mulliken charges =  -0.00000

 Dipole moment (field-independent basis, Debye):
    X=             -1.7027    Y=             -0.9933    Z=              0.0000  Tot=              1.9712
 Quadrupole moment (field-independent basis, Debye-Ang):
   XX=             -9.3455   YY=              9.8066   ZZ=            -14.7117
   XY=             -5.1081   XZ=              0.0000   YZ=              0.0000

 Normal termination of Gaussian 16 at Sat Aug 27 09:55:26 2022.
