 Gaussian 16, Revision A.03,
 Gaussian 16:  ES64L-G16RevA.03 25-Dec-2016

 ------------------
 #p CCSD(T)/cc-pVTZ
 ------------------

 ------------
 H2O_H2O_2065
 ------------
 Symbolic Z-matrix:
 Charge =  0 Multiplicity = 1

                         Standard orientation:
 ---------------------------------------------------------------------
 Center     Atomic      Atomic             Coordinates (Angstroms)
 Number     Number       Type             X           Y           Z
 ---------------------------------------------------------------------
      1          8           0        0.047543   -1.866403    0.000000
      2          1           0       -0.753261   -2.435806    0.000000
      3          1           0        0.845878   -2.439261    0.000000
      4          8           0        0.047543    1.916963    0.000000
      5          1           0        0.019004    2.899150    0.000000
      6          1           0       -0.872303    1.571435    0.000000
 ---------------------------------------------------------------------

 SCF Done:  E(RHF) =  -152.106547395     A.U. after   10 cycles
 E2 =    -0.5263504127D+00 EUMP2 =    -0.15263289780798D+03
 CCSD(T)
 CCSD(T)= -0.15266010025D+03

 The electronic state is 1-A'.
 Alpha  occ. eigenvalues --  -20.55241 -20.54338  -1.32519  -1.31613  -0.69935
 Alpha  occ. eigenvalues --   -0.68995  -0.55921  -0.54978  -0.49627  -0.48727
 Alpha virt. eigenvalues --    0.13567   0.16026   0.20193   0.21953   0.53547
 Alpha virt. eigenvalues --    0.54867   0.57503   0.58436   0.64337   0.75855
 Alpha virt. eigenvalues --    0.78887   0.79129   0.80459   0.80921   0.84453

 Mulliken charges:
               1
     1  O   -0.497831
     2  H    0.245446
     3  H    0.253942
     4  O   -0.500186
     5  H    0.242852
     6  H    0.255776
 Sum of Mulliken charges =  -0.00000

 Dipole moment (field-independent basis, Debye):
    X=             -1.5982    Y=             -0.9291    Z=              0.0000  Tot=              1.8486
 Quadrupole moment (field-independent basis, Debye-Ang):
   XX=             -9.2367   YY=              1.0152   ZZ=            -14.7131
   XY=             -2.3904   XZ=              0.0000   YZ=              0.0000

 Normal termination of Gaussian 16 at Sat Aug 27 08:23:20 2022.
