 Gaussian 16, Revision A.03,
 Gaussian 16:  ES64L-G16RevA.03 25-Dec-2016

 ------------------
 #p CCSD(T)/cc-pVTZ
 ------------------

 ------------
 H2O_H2O_4282
 ------------
 Symbolic Z-matrix:
 Charge =  0 Multiplicity = 1

                         Standard orientation:
 ---------------------------------------------------------------------
 Center     Atomic      Atomic             Coordinates (Angstroms)
 Number     Number       Type             X           Y           Z
 ---------------------------------------------------------------------
      1          8           0        0.025265   -3.070821    0.000000
      2          1           0       -0.774710   -3.641388    0.000000
      3          1           0        0.824432   -3.642518    0.000000
      4          8           0        0.025265    3.082565    0.000000
      5          1           0        0.490385    3.948111    0.000000
      6          1           0       -0.944342    3.241842    0.000000
 ---------------------------------------------------------------------

 SCF Done:  E(RHF) =  -152.106856412     A.U. after   10 cycles
 E2 =    -0.5259294550D+00 EUMP2 =    -0.15263278586704D+03
 CCSD(T)
 CCSD(T)= -0.15266001762D+03

 The electronic state is 1-A'.
 Alpha  occ. eigenvalues --  -20.55229 -20.55157  -1.32525  -1.32453  -0.69932
 Alpha  occ. eigenvalues --   -0.69858  -0.55947  -0.55875  -0.49632  -0.49561
 Alpha virt. eigenvalues --    0.14394   0.14482   0.20447   0.20525   0.54636
 Alpha virt. eigenvalues --    0.54715   0.57506   0.57578   0.68258   0.68386
 Alpha virt. eigenvalues --    0.79247   0.79317   0.80689   0.80768   0.82618

 Mulliken charges:
               1
     1  O   -0.505617
     2  H    0.252191
     3  H    0.253426
     4  O   -0.505543
     5  H    0.251879
     6  H    0.253664
 Sum of Mulliken charges =  -0.00000

 Dipole moment (field-independent basis, Debye):
    X=             -0.8677    Y=             -0.2051    Z=              0.0000  Tot=              0.8916
 Quadrupole moment (field-independent basis, Debye-Ang):
   XX=             -8.2052   YY=             11.6997   ZZ=            -14.7108
   XY=             -1.9730   XZ=              0.0000   YZ=              0.0000

 Normal termination of Gaussian 16 at Sat Aug 27 06:25:53 2022.
