 Gaussian 16, Revision A.03,
 Gaussian 16:  ES64L-G16RevA.03 25-Dec-2016

 ------------------
 #p CCSD(T)/cc-pVTZ
 ------------------

 ------------
 H2O_H2O_2444
 ------------
 Symbolic Z-matrix:
 Charge =  0 Multiplicity = 1

                         Standard orientation:
 ---------------------------------------------------------------------
 Center     Atomic      Atomic             Coordinates (Angstroms)
 Number     Number       Type             X           Y           Z
 ---------------------------------------------------------------------
      1          8           0        0.054168   -2.051337    0.000000
      2          1           0       -0.746673   -2.620687    0.000000
      3          1           0        0.852465   -2.624249    0.000000
      4          8           0        0.054168    2.128605    0.000000
      5          1           0       -0.227544    3.069958    0.000000
      6          1           0       -0.744943    1.556830    0.000000
 ---------------------------------------------------------------------

 SCF Done:  E(RHF) =  -152.107564956     A.U. after   10 cycles
 E2 =    -0.5261109912D+00 EUMP2 =    -0.15263367594726D+03
 CCSD(T)
 CCSD(T)= -0.15266086833D+03

 The electronic state is 1-A'.
 Alpha  occ. eigenvalues --  -20.55639 -20.54499  -1.32922  -1.31789  -0.70332
 Alpha  occ. eigenvalues --   -0.69166  -0.56359  -0.55228  -0.50035  -0.48908
 Alpha virt. eigenvalues --    0.13307   0.15756   0.20032   0.21928   0.54058
 Alpha virt. eigenvalues --    0.54605   0.57191   0.58293   0.65841   0.73587
 Alpha virt. eigenvalues --    0.78803   0.79578   0.79994   0.82130   0.82393

 Mulliken charges:
               1
     1  O   -0.505227
     2  H    0.249672
     3  H    0.257030
     4  O   -0.507856
     5  H    0.246680
     6  H    0.259701
 Sum of Mulliken charges =  -0.00000

 Dipole moment (field-independent basis, Debye):
    X=             -1.8359    Y=             -1.4018    Z=              0.0000  Tot=              2.3099
 Quadrupole moment (field-independent basis, Debye-Ang):
   XX=             -9.6488   YY=              0.7435   ZZ=            -14.7143
   XY=             -3.5383   XZ=              0.0000   YZ=              0.0000

 Normal termination of Gaussian 16 at Sat Aug 27 10:35:42 2022.
