 Gaussian 16, Revision A.03,
 Gaussian 16:  ES64L-G16RevA.03 25-Dec-2016

 ------------------
 #p CCSD(T)/cc-pVTZ
 ------------------

 -----------
 H2O_H2O_297
 -----------
 Symbolic Z-matrix:
 Charge =  0 Multiplicity = 1

                         Standard orientation:
 ---------------------------------------------------------------------
 Center     Atomic      Atomic             Coordinates (Angstroms)
 Number     Number       Type             X           Y           Z
 ---------------------------------------------------------------------
      1          8           0        0.056880   -0.896226    0.000000
      2          1           0       -0.745625   -1.463228    0.000000
      3          1           0        0.853496   -1.471472    0.000000
      4          8           0        0.056880    0.994957    0.000000
      5          1           0       -0.400524    1.864606    0.000000
      6          1           0       -0.617424    0.280241    0.000000
 ---------------------------------------------------------------------

 SCF Done:  E(RHF) =  -152.013966005     A.U. after   11 cycles
 E2 =    -0.5413621584D+00 EUMP2 =    -0.15255532816323D+03
 CCSD(T)
 CCSD(T)= -0.15258102404D+03

 The electronic state is 1-A'.
 Alpha  occ. eigenvalues --  -20.56427 -20.48723  -1.38355  -1.26712  -0.76114
 Alpha  occ. eigenvalues --   -0.71384  -0.53805  -0.51209  -0.48282  -0.43627
 Alpha virt. eigenvalues --    0.12871   0.18545   0.19843   0.26701   0.49467
 Alpha virt. eigenvalues --    0.54318   0.62664   0.67739   0.72739   0.75373
 Alpha virt. eigenvalues --    0.78874   0.79410   0.83979   0.85370   0.88126

 Mulliken charges:
               1
     1  O   -0.346902
     2  H    0.188409
     3  H    0.228909
     4  O   -0.502024
     5  H    0.167777
     6  H    0.263832
 Sum of Mulliken charges =  -0.00000

 Dipole moment (field-independent basis, Debye):
    X=             -1.5880    Y=             -2.4299    Z=              0.0000  Tot=              2.9028
 Quadrupole moment (field-independent basis, Debye-Ang):
   XX=             -9.8226   YY=             -7.5561   ZZ=            -14.6087
   XY=             -1.8993   XZ=              0.0000   YZ=              0.0000

 9347\MP4DQ=-152.5607943\MP4SDQ=-152.5643752\CCSD=-152.5635584\CCSD(T)=
 Normal termination of Gaussian 16 at Fri Aug 26 14:58:32 2022.
