 Gaussian 16, Revision A.03,
 Gaussian 16:  ES64L-G16RevA.03 25-Dec-2016

 ------------------
 #p CCSD(T)/cc-pVTZ
 ------------------

 ------------
 H2O_H2O_2014
 ------------
 Symbolic Z-matrix:
 Charge =  0 Multiplicity = 1

                         Standard orientation:
 ---------------------------------------------------------------------
 Center     Atomic      Atomic             Coordinates (Angstroms)
 Number     Number       Type             X           Y           Z
 ---------------------------------------------------------------------
      1          8           0        0.045358   -1.843102    0.000000
      2          1           0       -0.755406   -2.412561    0.000000
      3          1           0        0.843733   -2.415905    0.000000
      4          8           0        0.045358    1.887602    0.000000
      5          1           0        0.081050    2.869556    0.000000
      6          1           0       -0.895098    1.602909    0.000000
 ---------------------------------------------------------------------

 SCF Done:  E(RHF) =  -152.106263562     A.U. after   10 cycles
 E2 =    -0.5263979245D+00 EUMP2 =    -0.15263266148624D+03
 CCSD(T)
 CCSD(T)= -0.15265986862D+03

 The electronic state is 1-A'.
 Alpha  occ. eigenvalues --  -20.55134 -20.54322  -1.32411  -1.31595  -0.69829
 Alpha  occ. eigenvalues --   -0.68980  -0.55817  -0.54926  -0.49519  -0.48706
 Alpha virt. eigenvalues --    0.13643   0.16051   0.20238   0.21891   0.53424
 Alpha virt. eigenvalues --    0.55028   0.57585   0.58439   0.64054   0.76092
 Alpha virt. eigenvalues --    0.78900   0.79081   0.80564   0.80804   0.84383

 Mulliken charges:
               1
     1  O   -0.496209
     2  H    0.244602
     3  H    0.253036
     4  O   -0.498141
     5  H    0.242143
     6  H    0.254569
 Sum of Mulliken charges =   0.00000

 Dipole moment (field-independent basis, Debye):
    X=             -1.5228    Y=             -0.8190    Z=              0.0000  Tot=              1.7291
 Quadrupole moment (field-independent basis, Debye-Ang):
   XX=             -9.1130   YY=              1.1128   ZZ=            -14.7127
   XY=             -2.1543   XZ=              0.0000   YZ=              0.0000

 Normal termination of Gaussian 16 at Sat Aug 27 08:06:37 2022.
