 Gaussian 16, Revision A.03,
 Gaussian 16:  ES64L-G16RevA.03 25-Dec-2016

 ------------------
 #p CCSD(T)/cc-pVTZ
 ------------------

 ------------
 H2O_H2O_3780
 ------------
 Symbolic Z-matrix:
 Charge =  0 Multiplicity = 1

                         Standard orientation:
 ---------------------------------------------------------------------
 Center     Atomic      Atomic             Coordinates (Angstroms)
 Number     Number       Type             X           Y           Z
 ---------------------------------------------------------------------
      1          8           0        0.018360   -2.808000    0.000000
      2          1           0       -0.781532   -3.378682    0.000000
      3          1           0        0.817610   -3.379581    0.000000
      4          8           0        0.018360    2.814041    0.000000
      5          1           0        0.592363    3.611554    0.000000
      6          1           0       -0.922202    3.098379    0.000000
 ---------------------------------------------------------------------

 SCF Done:  E(RHF) =  -152.106601420     A.U. after   10 cycles
 E2 =    -0.5259612857D+00 EUMP2 =    -0.15263256270590D+03
 CCSD(T)
 CCSD(T)= -0.15265979932D+03

 The electronic state is 1-A'.
 Alpha  occ. eigenvalues --  -20.55108 -20.55064  -1.32403  -1.32359  -0.69811
 Alpha  occ. eigenvalues --   -0.69766  -0.55813  -0.55768  -0.49509  -0.49465
 Alpha virt. eigenvalues --    0.14449   0.14597   0.20520   0.20595   0.54749
 Alpha virt. eigenvalues --    0.54818   0.57604   0.57656   0.68229   0.68700
 Alpha virt. eigenvalues --    0.79369   0.79413   0.80815   0.80868   0.82746

 Mulliken charges:
               1
     1  O   -0.504118
     2  H    0.251480
     3  H    0.252639
     4  O   -0.504056
     5  H    0.251230
     6  H    0.252826
 Sum of Mulliken charges =  -0.00000

 Dipole moment (field-independent basis, Debye):
    X=             -0.6294    Y=             -0.1059    Z=              0.0000  Tot=              0.6382
 Quadrupole moment (field-independent basis, Debye-Ang):
   XX=             -8.0191   YY=             10.0556   ZZ=            -14.7104
   XY=             -1.2350   XZ=              0.0000   YZ=              0.0000

 Normal termination of Gaussian 16 at Sat Aug 27 03:14:58 2022.
