 Gaussian 16, Revision A.03,
 Gaussian 16:  ES64L-G16RevA.03 25-Dec-2016

 ------------------
 #p CCSD(T)/cc-pVTZ
 ------------------

 ------------
 H2O_H2O_3258
 ------------
 Symbolic Z-matrix:
 Charge =  0 Multiplicity = 1

                         Standard orientation:
 ---------------------------------------------------------------------
 Center     Atomic      Atomic             Coordinates (Angstroms)
 Number     Number       Type             X           Y           Z
 ---------------------------------------------------------------------
      1          8           0        0.028564   -2.523786    0.000000
      2          1           0       -0.771561   -3.094141    0.000000
      3          1           0        0.827580   -3.095694    0.000000
      4          8           0        0.028564    2.539034    0.000000
      5          1           0        0.436316    3.433038    0.000000
      6          1           0       -0.949358    2.634813    0.000000
 ---------------------------------------------------------------------

 SCF Done:  E(RHF) =  -152.106425720     A.U. after   10 cycles
 E2 =    -0.5259983846D+00 EUMP2 =    -0.15263242410455D+03
 CCSD(T)
 CCSD(T)= -0.15265966302D+03

 The electronic state is 1-A'.
 Alpha  occ. eigenvalues --  -20.55065 -20.54927  -1.32359  -1.32219  -0.69768
 Alpha  occ. eigenvalues --   -0.69624  -0.55760  -0.55620  -0.49463  -0.49325
 Alpha virt. eigenvalues --    0.14349   0.14836   0.20506   0.20749   0.54737
 Alpha virt. eigenvalues --    0.55002   0.57627   0.57783   0.67594   0.69599
 Alpha virt. eigenvalues --    0.79412   0.79552   0.80839   0.81044   0.82738

 Mulliken charges:
               1
     1  O   -0.503104
     2  H    0.250345
     3  H    0.252766
     4  O   -0.502872
     5  H    0.249760
     6  H    0.253105
 Sum of Mulliken charges =  -0.00000

 Dipole moment (field-independent basis, Debye):
    X=             -0.9765    Y=             -0.2688    Z=              0.0000  Tot=              1.0128
 Quadrupole moment (field-independent basis, Debye-Ang):
   XX=             -8.3235   YY=              7.3338   ZZ=            -14.7103
   XY=             -1.7337   XZ=              0.0000   YZ=              0.0000

 Normal termination of Gaussian 16 at Fri Aug 26 20:48:03 2022.
