 Gaussian 16, Revision A.03,
 Gaussian 16:  ES64L-G16RevA.03 25-Dec-2016

 ------------------
 #p CCSD(T)/cc-pVTZ
 ------------------

 ------------
 H2O_H2O_3789
 ------------
 Symbolic Z-matrix:
 Charge =  0 Multiplicity = 1

                         Standard orientation:
 ---------------------------------------------------------------------
 Center     Atomic      Atomic             Coordinates (Angstroms)
 Number     Number       Type             X           Y           Z
 ---------------------------------------------------------------------
      1          8           0        0.045342   -2.787078    0.000000
      2          1           0       -0.755021   -3.357100    0.000000
      3          1           0        0.844119   -3.359320    0.000000
      4          8           0        0.045342    2.831642    0.000000
      5          1           0        0.080344    3.813620    0.000000
      6          1           0       -0.894913    2.546288    0.000000
 ---------------------------------------------------------------------

 SCF Done:  E(RHF) =  -152.107031744     A.U. after   10 cycles
 E2 =    -0.5259269620D+00 EUMP2 =    -0.15263295870573D+03
 CCSD(T)
 CCSD(T)= -0.15266018587D+03

 The electronic state is 1-A'.
 Alpha  occ. eigenvalues --  -20.55370 -20.55041  -1.32667  -1.32335  -0.70075
 Alpha  occ. eigenvalues --   -0.69735  -0.56097  -0.55765  -0.49776  -0.49446
 Alpha virt. eigenvalues --    0.14210   0.14657   0.20315   0.20697   0.54481
 Alpha virt. eigenvalues --    0.54848   0.57375   0.57707   0.67935   0.68657
 Alpha virt. eigenvalues --    0.79103   0.79428   0.80538   0.80881   0.82511

 Mulliken charges:
               1
     1  O   -0.506684
     2  H    0.251914
     3  H    0.254776
     4  O   -0.506380
     5  H    0.250879
     6  H    0.255495
 Sum of Mulliken charges =  -0.00000

 Dipole moment (field-independent basis, Debye):
    X=             -1.5549    Y=             -0.7820    Z=              0.0000  Tot=              1.7405
 Quadrupole moment (field-independent basis, Debye-Ang):
   XX=             -9.0975   YY=              7.2855   ZZ=            -14.7113
   XY=             -3.5977   XZ=              0.0000   YZ=              0.0000

 Normal termination of Gaussian 16 at Sat Aug 27 03:19:58 2022.
