 Gaussian 16, Revision A.03,
 Gaussian 16:  ES64L-G16RevA.03 25-Dec-2016

 ------------------
 #p CCSD(T)/cc-pVTZ
 ------------------

 -----------
 H2O_H2O_914
 -----------
 Symbolic Z-matrix:
 Charge =  0 Multiplicity = 1

                         Standard orientation:
 ---------------------------------------------------------------------
 Center     Atomic      Atomic             Coordinates (Angstroms)
 Number     Number       Type             X           Y           Z
 ---------------------------------------------------------------------
      1          8           0        0.045379   -1.258127    0.000000
      2          1           0       -0.755928   -1.826821    0.000000
      3          1           0        0.843206   -1.831692    0.000000
      4          8           0        0.045379    1.302541    0.000000
      5          1           0        0.082009    2.284460    0.000000
      6          1           0       -0.895348    1.018746    0.000000
 ---------------------------------------------------------------------

 SCF Done:  E(RHF) =  -152.098797183     A.U. after   11 cycles
 E2 =    -0.5289197709D+00 EUMP2 =    -0.15262771695351D+03
 CCSD(T)
 CCSD(T)= -0.15265491973D+03

 The electronic state is 1-A'.
 Alpha  occ. eigenvalues --  -20.54552 -20.53068  -1.32146  -1.30290  -0.69538
 Alpha  occ. eigenvalues --   -0.67959  -0.56352  -0.52190  -0.49314  -0.47259
 Alpha virt. eigenvalues --    0.13925   0.17365   0.20143   0.23342   0.53352
 Alpha virt. eigenvalues --    0.57764   0.58229   0.59848   0.70548   0.75663
 Alpha virt. eigenvalues --    0.77373   0.78516   0.83189   0.84021   0.85401

 Mulliken charges:
               1
     1  O   -0.471903
     2  H    0.229215
     3  H    0.246790
     4  O   -0.465337
     5  H    0.215456
     6  H    0.245778
 Sum of Mulliken charges =  -0.00000

 Dipole moment (field-independent basis, Debye):
    X=             -1.4270    Y=             -0.8700    Z=              0.0000  Tot=              1.6713
 Quadrupole moment (field-independent basis, Debye-Ang):
   XX=             -9.1867   YY=             -3.1450   ZZ=            -14.7233
   XY=             -1.2877   XZ=              0.0000   YZ=              0.0000

 40892\MP4DQ=-152.6362961\MP4SDQ=-152.639515\CCSD=-152.6388652\CCSD(T)=
 Normal termination of Gaussian 16 at Fri Aug 26 21:09:16 2022.
