 Gaussian 16, Revision A.03,
 Gaussian 16:  ES64L-G16RevA.03 25-Dec-2016

 ------------------
 #p CCSD(T)/cc-pVTZ
 ------------------

 ------------
 H2O_H2O_3853
 ------------
 Symbolic Z-matrix:
 Charge =  0 Multiplicity = 1

                         Standard orientation:
 ---------------------------------------------------------------------
 Center     Atomic      Atomic             Coordinates (Angstroms)
 Number     Number       Type             X           Y           Z
 ---------------------------------------------------------------------
      1          8           0        0.011143   -2.849981    0.000000
      2          1           0       -0.788620   -3.420844    0.000000
      3          1           0        0.810521   -3.421382    0.000000
      4          8           0        0.011143    2.852168    0.000000
      5          1           0        0.684168    3.568088    0.000000
      6          1           0       -0.884351    3.256639    0.000000
 ---------------------------------------------------------------------

 SCF Done:  E(RHF) =  -152.106597387     A.U. after   10 cycles
 E2 =    -0.5259594563D+00 EUMP2 =    -0.15263255684358D+03
 CCSD(T)
 CCSD(T)= -0.15265979366D+03

 The electronic state is 1-A'.
 Alpha  occ. eigenvalues --  -20.55098 -20.55082  -1.32393  -1.32377  -0.69801
 Alpha  occ. eigenvalues --   -0.69785  -0.55802  -0.55786  -0.49498  -0.49483
 Alpha virt. eigenvalues --    0.14465   0.14575   0.20530   0.20576   0.54759
 Alpha virt. eigenvalues --    0.54799   0.57613   0.57639   0.68277   0.68644
 Alpha virt. eigenvalues --    0.79380   0.79395   0.80825   0.80848   0.82754

 Mulliken charges:
               1
     1  O   -0.504089
     2  H    0.251707
     3  H    0.252382
     4  O   -0.504067
     5  H    0.251573
     6  H    0.252494
 Sum of Mulliken charges =  -0.00000

 Dipole moment (field-independent basis, Debye):
    X=             -0.3821    Y=             -0.0383    Z=              0.0000  Tot=              0.3840
 Quadrupole moment (field-independent basis, Debye-Ang):
   XX=             -7.8850   YY=             10.6249   ZZ=            -14.7104
   XY=             -0.7511   XZ=              0.0000   YZ=              0.0000

 Normal termination of Gaussian 16 at Sat Aug 27 03:48:21 2022.
