 Gaussian 16, Revision A.03,
 Gaussian 16:  ES64L-G16RevA.03 25-Dec-2016

 ------------------
 #p CCSD(T)/cc-pVTZ
 ------------------

 -----------
 H2O_H2O_899
 -----------
 Symbolic Z-matrix:
 Charge =  0 Multiplicity = 1

                         Standard orientation:
 ---------------------------------------------------------------------
 Center     Atomic      Atomic             Coordinates (Angstroms)
 Number     Number       Type             X           Y           Z
 ---------------------------------------------------------------------
      1          8           0        0.057335   -1.207158    0.000000
      2          1           0       -0.744451   -1.775176    0.000000
      3          1           0        0.854678   -1.781396    0.000000
      4          8           0        0.057335    1.320939    0.000000
      5          1           0       -0.510683    2.122727    0.000000
      6          1           0       -0.516903    0.523596    0.000000
 ---------------------------------------------------------------------

 SCF Done:  E(RHF) =  -152.102879926     A.U. after   10 cycles
 E2 =    -0.5302085260D+00 EUMP2 =    -0.15263308845179D+03
 CCSD(T)
 CCSD(T)= -0.15265993100D+03

 The electronic state is 1-A'.
 Alpha  occ. eigenvalues --  -20.57235 -20.51614  -1.35055  -1.29186  -0.72349
 Alpha  occ. eigenvalues --   -0.68453  -0.56777  -0.52731  -0.52032  -0.46258
 Alpha virt. eigenvalues --    0.12801   0.18323   0.19202   0.27411   0.50127
 Alpha virt. eigenvalues --    0.55693   0.60285   0.61615   0.71090   0.73318
 Alpha virt. eigenvalues --    0.74787   0.81167   0.82607   0.83411   0.86463

 Mulliken charges:
               1
     1  O   -0.462369
     2  H    0.237245
     3  H    0.256075
     4  O   -0.527157
     5  H    0.223731
     6  H    0.272476
 Sum of Mulliken charges =  -0.00000

 Dipole moment (field-independent basis, Debye):
    X=             -1.8050    Y=             -2.4619    Z=              0.0000  Tot=              3.0526
 Quadrupole moment (field-independent basis, Debye-Ang):
   XX=             -9.8489   YY=             -5.5105   ZZ=            -14.7140
   XY=             -2.8368   XZ=              0.0000   YZ=              0.0000

 Normal termination of Gaussian 16 at Fri Aug 26 20:59:06 2022.
