 Gaussian 16, Revision A.03,
 Gaussian 16:  ES64L-G16RevA.03 25-Dec-2016

 ------------------
 #p CCSD(T)/cc-pVTZ
 ------------------

 ------------
 H2O_H2O_2073
 ------------
 Symbolic Z-matrix:
 Charge =  0 Multiplicity = 1

                         Standard orientation:
 ---------------------------------------------------------------------
 Center     Atomic      Atomic             Coordinates (Angstroms)
 Number     Number       Type             X           Y           Z
 ---------------------------------------------------------------------
      1          8           0        0.057129   -1.836045    0.000000
      2          1           0       -0.743922   -2.405099    0.000000
      3          1           0        0.855215   -2.409252    0.000000
      4          8           0        0.057129    1.942505    0.000000
      5          1           0       -0.458315    2.779059    0.000000
      6          1           0       -0.567047    1.183617    0.000000
 ---------------------------------------------------------------------

 SCF Done:  E(RHF) =  -152.109013424     A.U. after   10 cycles
 E2 =    -0.5262977810D+00 EUMP2 =    -0.15263531120527D+03
 CCSD(T)
 CCSD(T)= -0.15266245228D+03

 The electronic state is 1-A'.
 Alpha  occ. eigenvalues --  -20.56185 -20.54121  -1.33452  -1.31424  -0.70857
 Alpha  occ. eigenvalues --   -0.68792  -0.56935  -0.54898  -0.50575  -0.48556
 Alpha virt. eigenvalues --    0.12945   0.16324   0.19753   0.23585   0.53536
 Alpha virt. eigenvalues --    0.55364   0.56698   0.58466   0.66547   0.73926
 Alpha virt. eigenvalues --    0.77993   0.79254   0.79617   0.80450   0.83906

 Mulliken charges:
               1
     1  O   -0.503064
     2  H    0.249633
     3  H    0.258571
     4  O   -0.514284
     5  H    0.245237
     6  H    0.263906
 Sum of Mulliken charges =   0.00000

 Dipole moment (field-independent basis, Debye):
    X=             -1.9227    Y=             -1.9814    Z=              0.0000  Tot=              2.7609
 Quadrupole moment (field-independent basis, Debye-Ang):
   XX=             -9.8516   YY=             -2.0738   ZZ=            -14.7190
   XY=             -3.8706   XZ=              0.0000   YZ=              0.0000

 Normal termination of Gaussian 16 at Sat Aug 27 08:25:58 2022.
