 Gaussian 16, Revision A.03,
 Gaussian 16:  ES64L-G16RevA.03 25-Dec-2016

 ------------------
 #p CCSD(T)/cc-pVTZ
 ------------------

 ------------
 H2O_H2O_3553
 ------------
 Symbolic Z-matrix:
 Charge =  0 Multiplicity = 1

                         Standard orientation:
 ---------------------------------------------------------------------
 Center     Atomic      Atomic             Coordinates (Angstroms)
 Number     Number       Type             X           Y           Z
 ---------------------------------------------------------------------
      1          8           0        0.011143   -2.690430    0.000000
      2          1           0       -0.788632   -3.261277    0.000000
      3          1           0        0.810510   -3.261847    0.000000
      4          8           0        0.011143    2.692617    0.000000
      5          1           0        0.684183    3.408524    0.000000
      6          1           0       -0.884343    3.097105    0.000000
 ---------------------------------------------------------------------

 SCF Done:  E(RHF) =  -152.106434293     A.U. after   10 cycles
 E2 =    -0.5259822016D+00 EUMP2 =    -0.15263241649466D+03
 CCSD(T)
 CCSD(T)= -0.15265965629D+03

 The electronic state is 1-A'.
 Alpha  occ. eigenvalues --  -20.55032 -20.55015  -1.32327  -1.32309  -0.69735
 Alpha  occ. eigenvalues --   -0.69717  -0.55728  -0.55709  -0.49431  -0.49414
 Alpha virt. eigenvalues --    0.14468   0.14676   0.20558   0.20636   0.54804
 Alpha virt. eigenvalues --    0.54888   0.57660   0.57700   0.68104   0.68994
 Alpha virt. eigenvalues --    0.79445   0.79465   0.80883   0.80932   0.82782

 Mulliken charges:
               1
     1  O   -0.503135
     2  H    0.251171
     3  H    0.251964
     4  O   -0.503105
     5  H    0.251022
     6  H    0.252083
 Sum of Mulliken charges =  -0.00000

 Dipole moment (field-independent basis, Debye):
    X=             -0.3816    Y=             -0.0384    Z=              0.0000  Tot=              0.3835
 Quadrupole moment (field-independent basis, Debye-Ang):
   XX=             -7.8877   YY=              9.3524   ZZ=            -14.7102
   XY=             -0.6908   XZ=              0.0000   YZ=              0.0000

 Normal termination of Gaussian 16 at Sat Aug 27 01:26:05 2022.
