 Gaussian 16, Revision A.03,
 Gaussian 16:  ES64L-G16RevA.03 25-Dec-2016

 ------------------
 #p CCSD(T)/cc-pVTZ
 ------------------

 -----------
 H2O_H2O_449
 -----------
 Symbolic Z-matrix:
 Charge =  0 Multiplicity = 1

                         Standard orientation:
 ---------------------------------------------------------------------
 Center     Atomic      Atomic             Coordinates (Angstroms)
 Number     Number       Type             X           Y           Z
 ---------------------------------------------------------------------
      1          8           0        0.057387   -0.967886    0.000000
      2          1           0       -0.744915   -1.535175    0.000000
      3          1           0        0.854208   -1.542848    0.000000
      4          8           0        0.057387    1.081563    0.000000
      5          1           0       -0.509903    1.883865    0.000000
      6          1           0       -0.517575    0.284741    0.000000
 ---------------------------------------------------------------------

 SCF Done:  E(RHF) =  -152.051851849     A.U. after   11 cycles
 E2 =    -0.5374946757D+00 EUMP2 =    -0.15258934652485D+03
 CCSD(T)
 CCSD(T)= -0.15261531296D+03

 The electronic state is 1-A'.
 Alpha  occ. eigenvalues --  -20.57609 -20.48621  -1.37959  -1.26946  -0.75463
 Alpha  occ. eigenvalues --   -0.71419  -0.53931  -0.51969  -0.50371  -0.43845
 Alpha virt. eigenvalues --    0.12509   0.18386   0.19766   0.28021   0.48712
 Alpha virt. eigenvalues --    0.54203   0.62841   0.68192   0.72045   0.74207
 Alpha virt. eigenvalues --    0.76855   0.80094   0.83631   0.85422   0.87620

 Mulliken charges:
               1
     1  O   -0.368924
     2  H    0.208537
     3  H    0.241362
     4  O   -0.540996
     5  H    0.190804
     6  H    0.269218
 Sum of Mulliken charges =  -0.00000

 Dipole moment (field-independent basis, Debye):
    X=             -1.6680    Y=             -2.8382    Z=              0.0000  Tot=              3.2921
 Quadrupole moment (field-independent basis, Debye-Ang):
   XX=             -9.8192   YY=             -7.2204   ZZ=            -14.6304
   XY=             -2.3609   XZ=              0.0000   YZ=              0.0000

 Normal termination of Gaussian 16 at Fri Aug 26 16:33:32 2022.
