 Gaussian 16, Revision A.03,
 Gaussian 16:  ES64L-G16RevA.03 25-Dec-2016

 ------------------
 #p CCSD(T)/cc-pVTZ
 ------------------

 ------------
 H2O_H2O_3677
 ------------
 Symbolic Z-matrix:
 Charge =  0 Multiplicity = 1

                         Standard orientation:
 ---------------------------------------------------------------------
 Center     Atomic      Atomic             Coordinates (Angstroms)
 Number     Number       Type             X           Y           Z
 ---------------------------------------------------------------------
      1          8           0        0.007455   -2.757569    0.000000
      2          1           0       -0.792249   -3.328515    0.000000
      3          1           0        0.806893   -3.328887    0.000000
      4          8           0        0.007455    2.758542    0.000000
      5          1           0        0.725794    3.428986    0.000000
      6          1           0       -0.859717    3.220625    0.000000
 ---------------------------------------------------------------------

 SCF Done:  E(RHF) =  -152.106492630     A.U. after   10 cycles
 E2 =    -0.5259730661D+00 EUMP2 =    -0.15263246569610D+03
 CCSD(T)
 CCSD(T)= -0.15265970449D+03

 The electronic state is 1-A'.
 Alpha  occ. eigenvalues --  -20.55052 -20.55045  -1.32347  -1.32339  -0.69755
 Alpha  occ. eigenvalues --   -0.69747  -0.55752  -0.55743  -0.49452  -0.49444
 Alpha virt. eigenvalues --    0.14474   0.14630   0.20551   0.20609   0.54792
 Alpha virt. eigenvalues --    0.54849   0.57646   0.57673   0.68207   0.68825
 Alpha virt. eigenvalues --    0.79425   0.79434   0.80864   0.80896   0.82779

 Mulliken charges:
               1
     1  O   -0.503475
     2  H    0.251490
     3  H    0.251985
     4  O   -0.503463
     5  H    0.251399
     6  H    0.252064
 Sum of Mulliken charges =  -0.00000

 Dipole moment (field-independent basis, Debye):
    X=             -0.2554    Y=             -0.0171    Z=              0.0000  Tot=              0.2560
 Quadrupole moment (field-independent basis, Debye-Ang):
   XX=             -7.8435   YY=              9.9590   ZZ=            -14.7102
   XY=             -0.4761   XZ=              0.0000   YZ=              0.0000

 Normal termination of Gaussian 16 at Sat Aug 27 02:24:18 2022.
