 Gaussian 16, Revision A.03,
 Gaussian 16:  ES64L-G16RevA.03 25-Dec-2016

 ------------------
 #p CCSD(T)/cc-pVTZ
 ------------------

 ------------
 H2O_H2O_2145
 ------------
 Symbolic Z-matrix:
 Charge =  0 Multiplicity = 1

                         Standard orientation:
 ---------------------------------------------------------------------
 Center     Atomic      Atomic             Coordinates (Angstroms)
 Number     Number       Type             X           Y           Z
 ---------------------------------------------------------------------
      1          8           0        0.055271   -1.887918    0.000000
      2          1           0       -0.745703   -2.457080    0.000000
      3          1           0        0.853434   -2.461015    0.000000
      4          8           0        0.055271    1.972308    0.000000
      5          1           0       -0.287191    2.893301    0.000000
      6          1           0       -0.704878    1.349670    0.000000
 ---------------------------------------------------------------------

 SCF Done:  E(RHF) =  -152.107945184     A.U. after   10 cycles
 E2 =    -0.5262596185D+00 EUMP2 =    -0.15263420480235D+03
 CCSD(T)
 CCSD(T)= -0.15266137539D+03

 The electronic state is 1-A'.
 Alpha  occ. eigenvalues --  -20.55791 -20.54276  -1.33065  -1.31565  -0.70475
 Alpha  occ. eigenvalues --   -0.68935  -0.56505  -0.55012  -0.50181  -0.48690
 Alpha virt. eigenvalues --    0.13182   0.16114   0.19937   0.22669   0.54124
 Alpha virt. eigenvalues --    0.54469   0.57062   0.58546   0.65558   0.74666
 Alpha virt. eigenvalues --    0.78490   0.79095   0.80325   0.80604   0.84064

 Mulliken charges:
               1
     1  O   -0.502460
     2  H    0.248323
     3  H    0.257185
     4  O   -0.508867
     5  H    0.244804
     6  H    0.261015
 Sum of Mulliken charges =  -0.00000

 Dipole moment (field-independent basis, Debye):
    X=             -1.8621    Y=             -1.5555    Z=              0.0000  Tot=              2.4263
 Quadrupole moment (field-independent basis, Debye-Ang):
   XX=             -9.7243   YY=             -0.5284   ZZ=            -14.7161
   XY=             -3.4380   XZ=              0.0000   YZ=              0.0000

 Normal termination of Gaussian 16 at Sat Aug 27 08:50:23 2022.
