 Gaussian 16, Revision A.03,
 Gaussian 16:  ES64L-G16RevA.03 25-Dec-2016

 ------------------
 #p CCSD(T)/cc-pVTZ
 ------------------

 -----------
 H2O_H2O_745
 -----------
 Symbolic Z-matrix:
 Charge =  0 Multiplicity = 1

                         Standard orientation:
 ---------------------------------------------------------------------
 Center     Atomic      Atomic             Coordinates (Angstroms)
 Number     Number       Type             X           Y           Z
 ---------------------------------------------------------------------
      1          8           0        0.055336   -1.143436    0.000000
      2          1           0       -0.746516   -1.711360    0.000000
      3          1           0        0.852613   -1.717766    0.000000
      4          8           0        0.055336    1.227655    0.000000
      5          1           0       -0.285702    2.149176    0.000000
      6          1           0       -0.705774    0.606192    0.000000
 ---------------------------------------------------------------------

 SCF Done:  E(RHF) =  -152.094504935     A.U. after   11 cycles
 E2 =    -0.5309567378D+00 EUMP2 =    -0.15262546167284D+03
 CCSD(T)
 CCSD(T)= -0.15265242171D+03

 The electronic state is 1-A'.
 Alpha  occ. eigenvalues --  -20.55869 -20.51996  -1.33920  -1.29367  -0.71294
 Alpha  occ. eigenvalues --   -0.68347  -0.55595  -0.52602  -0.50912  -0.46384
 Alpha virt. eigenvalues --    0.13330   0.18141   0.19610   0.25298   0.51392
 Alpha virt. eigenvalues --    0.56508   0.60369   0.61415   0.71597   0.74042
 Alpha virt. eigenvalues --    0.77403   0.82786   0.83967   0.84036   0.87243

 Mulliken charges:
               1
     1  O   -0.453333
     2  H    0.226531
     3  H    0.246710
     4  O   -0.487714
     5  H    0.210470
     6  H    0.257337
 Sum of Mulliken charges =  -0.00000

 Dipole moment (field-independent basis, Debye):
    X=             -1.7044    Y=             -1.7622    Z=              0.0000  Tot=              2.4516
 Quadrupole moment (field-independent basis, Debye-Ang):
   XX=             -9.7549   YY=             -4.9260   ZZ=            -14.7153
   XY=             -2.0866   XZ=              0.0000   YZ=              0.0000

 Normal termination of Gaussian 16 at Fri Aug 26 19:37:25 2022.
