 Gaussian 16, Revision A.03,
 Gaussian 16:  ES64L-G16RevA.03 25-Dec-2016

 ------------------
 #p CCSD(T)/cc-pVTZ
 ------------------

 ------------
 H2O_H2O_1390
 ------------
 Symbolic Z-matrix:
 Charge =  0 Multiplicity = 1

                         Standard orientation:
 ---------------------------------------------------------------------
 Center     Atomic      Atomic             Coordinates (Angstroms)
 Number     Number       Type             X           Y           Z
 ---------------------------------------------------------------------
      1          8           0        0.047555   -1.507438    0.000000
      2          1           0       -0.753536   -2.076436    0.000000
      3          1           0        0.845600   -2.080701    0.000000
      4          8           0        0.047555    1.557951    0.000000
      5          1           0        0.019514    2.540152    0.000000
      6          1           0       -0.872465    1.212888    0.000000
 ---------------------------------------------------------------------

 SCF Done:  E(RHF) =  -152.105142021     A.U. after   10 cycles
 E2 =    -0.5272382067D+00 EUMP2 =    -0.15263238022760D+03
 CCSD(T)
 CCSD(T)= -0.15265957724D+03

 The electronic state is 1-A'.
 Alpha  occ. eigenvalues --  -20.55080 -20.53734  -1.32386  -1.30986  -0.69810
 Alpha  occ. eigenvalues --   -0.68396  -0.55939  -0.54042  -0.49506  -0.48079
 Alpha virt. eigenvalues --    0.13739   0.16786   0.20115   0.22891   0.54035
 Alpha virt. eigenvalues --    0.56232   0.57579   0.58394   0.66445   0.76033
 Alpha virt. eigenvalues --    0.77165   0.77190   0.79700   0.82173   0.85175

 Mulliken charges:
               1
     1  O   -0.483715
     2  H    0.237264
     3  H    0.250582
     4  O   -0.486880
     5  H    0.231442
     6  H    0.251308
 Sum of Mulliken charges =  -0.00000

 Dipole moment (field-independent basis, Debye):
    X=             -1.5548    Y=             -0.9650    Z=              0.0000  Tot=              1.8299
 Quadrupole moment (field-independent basis, Debye-Ang):
   XX=             -9.2638   YY=             -1.3931   ZZ=            -14.7170
   XY=             -1.8258   XZ=              0.0000   YZ=              0.0000

 Normal termination of Gaussian 16 at Sat Aug 27 04:27:17 2022.
