 Gaussian 16, Revision A.03,
 Gaussian 16:  ES64L-G16RevA.03 25-Dec-2016

 ------------------
 #p CCSD(T)/cc-pVTZ
 ------------------

 ----------
 H2O_H2O_57
 ----------
 Symbolic Z-matrix:
 Charge =  0 Multiplicity = 1

                         Standard orientation:
 ---------------------------------------------------------------------
 Center     Atomic      Atomic             Coordinates (Angstroms)
 Number     Number       Type             X           Y           Z
 ---------------------------------------------------------------------
      1          8           0        0.025276   -0.823863    0.000000
      2          1           0       -0.775789   -1.392897    0.000000
      3          1           0        0.823347   -1.397088    0.000000
      4          8           0        0.025276    0.835510    0.000000
      5          1           0        0.492052    1.700164    0.000000
      6          1           0       -0.944024    0.996643    0.000000
 ---------------------------------------------------------------------

 SCF Done:  E(RHF) =  -151.942754899     A.U. after   12 cycles
 E2 =    -0.5489070839D+00 EUMP2 =    -0.15249166198325D+03
 CCSD(T)
 CCSD(T)= -0.15251648083D+03

 The electronic state is 1-A'.
 Alpha  occ. eigenvalues --  -20.51760 -20.51417  -1.36526  -1.26939  -0.71744
 Alpha  occ. eigenvalues --   -0.68651  -0.63295  -0.52653  -0.43304  -0.34834
 Alpha virt. eigenvalues --    0.14298   0.19311   0.19876   0.23344   0.52465
 Alpha virt. eigenvalues --    0.56815   0.58932   0.65766   0.70344   0.78656
 Alpha virt. eigenvalues --    0.79865   0.83276   0.83436   0.85272   0.88599

 Mulliken charges:
               1
     1  O   -0.358893
     2  H    0.169356
     3  H    0.190757
     4  O   -0.339734
     5  H    0.120592
     6  H    0.217922
 Sum of Mulliken charges =  -0.00000

 Dipole moment (field-independent basis, Debye):
    X=             -0.7074    Y=             -0.3068    Z=              0.0000  Tot=              0.7711
 Quadrupole moment (field-independent basis, Debye-Ang):
   XX=             -8.7375   YY=             -8.7702   ZZ=            -14.7343
   XY=             -0.3499   XZ=              0.0000   YZ=              0.0000

 Normal termination of Gaussian 16 at Fri Aug 26 12:20:20 2022.
