 Gaussian 16, Revision A.03,
 Gaussian 16:  ES64L-G16RevA.03 25-Dec-2016

 ------------------
 #p CCSD(T)/cc-pVTZ
 ------------------

 ------------
 H2O_H2O_2880
 ------------
 Symbolic Z-matrix:
 Charge =  0 Multiplicity = 1

                         Standard orientation:
 ---------------------------------------------------------------------
 Center     Atomic      Atomic             Coordinates (Angstroms)
 Number     Number       Type             X           Y           Z
 ---------------------------------------------------------------------
      1          8           0        0.018360   -2.329350    0.000000
      2          1           0       -0.781597   -2.899940    0.000000
      3          1           0        0.817544   -2.901023    0.000000
      4          8           0        0.018360    2.335387    0.000000
      5          1           0        0.592455    3.132834    0.000000
      6          1           0       -0.922169    2.619833    0.000000
 ---------------------------------------------------------------------

 SCF Done:  E(RHF) =  -152.105985787     A.U. after   10 cycles
 E2 =    -0.5260661748D+00 EUMP2 =    -0.15263205196141D+03
 CCSD(T)
 CCSD(T)= -0.15265929775D+03

 The electronic state is 1-A'.
 Alpha  occ. eigenvalues --  -20.54879 -20.54815  -1.32171  -1.32105  -0.69582
 Alpha  occ. eigenvalues --   -0.69514  -0.55562  -0.55467  -0.49272  -0.49207
 Alpha virt. eigenvalues --    0.14337   0.15066   0.20583   0.20845   0.54768
 Alpha virt. eigenvalues --    0.55250   0.57754   0.57885   0.66410   0.71109
 Alpha virt. eigenvalues --    0.79567   0.79701   0.81019   0.81172   0.82483

 Mulliken charges:
               1
     1  O   -0.500457
     2  H    0.249262
     3  H    0.251205
     4  O   -0.500304
     5  H    0.248902
     6  H    0.251392
 Sum of Mulliken charges =  -0.00000

 Dipole moment (field-independent basis, Debye):
    X=             -0.6258    Y=             -0.1071    Z=              0.0000  Tot=              0.6349
 Quadrupole moment (field-independent basis, Debye-Ang):
   XX=             -8.0297   YY=              6.2874   ZZ=            -14.7098
   XY=             -0.9382   XZ=              0.0000   YZ=              0.0000

 Normal termination of Gaussian 16 at Fri Aug 26 17:05:36 2022.
