 Gaussian 16, Revision A.03,
 Gaussian 16:  ES64L-G16RevA.03 25-Dec-2016

 ------------------
 #p CCSD(T)/cc-pVTZ
 ------------------

 ------------
 H2O_H2O_1453
 ------------
 Symbolic Z-matrix:
 Charge =  0 Multiplicity = 1

                         Standard orientation:
 ---------------------------------------------------------------------
 Center     Atomic      Atomic             Coordinates (Angstroms)
 Number     Number       Type             X           Y           Z
 ---------------------------------------------------------------------
      1          8           0        0.011143   -1.573577    0.000000
      2          1           0       -0.788776   -2.144222    0.000000
      3          1           0        0.810366   -2.145196    0.000000
      4          8           0        0.011143    1.575758    0.000000
      5          1           0        0.684364    2.291495    0.000000
      6          1           0       -0.884241    1.980473    0.000000
 ---------------------------------------------------------------------

 SCF Done:  E(RHF) =  -152.102447281     A.U. after   10 cycles
 E2 =    -0.5271225825D+00 EUMP2 =    -0.15262956986374D+03
 CCSD(T)
 CCSD(T)= -0.15265685149D+03

 The electronic state is 1-A'.
 Alpha  occ. eigenvalues --  -20.54025 -20.53976  -1.31374  -1.31211  -0.68791
 Alpha  occ. eigenvalues --   -0.68658  -0.55486  -0.53456  -0.48551  -0.48200
 Alpha virt. eigenvalues --    0.14328   0.16528   0.20565   0.21740   0.52206
 Alpha virt. eigenvalues --    0.58223   0.58557   0.59078   0.64044   0.76286
 Alpha virt. eigenvalues --    0.78165   0.78253   0.79484   0.82266   0.86012

 Mulliken charges:
               1
     1  O   -0.476405
     2  H    0.236581
     3  H    0.239901
     4  O   -0.475963
     5  H    0.236393
     6  H    0.239493
 Sum of Mulliken charges =  -0.00000

 Dipole moment (field-independent basis, Debye):
    X=             -0.3673    Y=             -0.0410    Z=              0.0000  Tot=              0.3696
 Quadrupole moment (field-independent basis, Debye-Ang):
   XX=             -7.9603   YY=              0.1912   ZZ=            -14.7095
   XY=             -0.2760   XZ=              0.0000   YZ=              0.0000

 Normal termination of Gaussian 16 at Sat Aug 27 04:51:00 2022.
