 Gaussian 16, Revision A.03,
 Gaussian 16:  ES64L-G16RevA.03 25-Dec-2016

 ------------------
 #p CCSD(T)/cc-pVTZ
 ------------------

 ------------
 H2O_H2O_3398
 ------------
 Symbolic Z-matrix:
 Charge =  0 Multiplicity = 1

                         Standard orientation:
 ---------------------------------------------------------------------
 Center     Atomic      Atomic             Coordinates (Angstroms)
 Number     Number       Type             X           Y           Z
 ---------------------------------------------------------------------
      1          8           0        0.057092   -2.540686    0.000000
      2          1           0       -0.743558   -3.110305    0.000000
      3          1           0        0.855581   -3.113329    0.000000
      4          8           0        0.057092    2.647226    0.000000
      5          1           0       -0.458943    3.483417    0.000000
      6          1           0       -0.566549    1.887899    0.000000
 ---------------------------------------------------------------------

 SCF Done:  E(RHF) =  -152.107885887     A.U. after   10 cycles
 E2 =    -0.5258903224D+00 EUMP2 =    -0.15263377620927D+03
 CCSD(T)
 CCSD(T)= -0.15266098055D+03

 The electronic state is 1-A'.
 Alpha  occ. eigenvalues --  -20.55826 -20.54873  -1.33123  -1.32173  -0.70529
 Alpha  occ. eigenvalues --   -0.69563  -0.56591  -0.55629  -0.50238  -0.49291
 Alpha virt. eigenvalues --    0.13558   0.15036   0.19968   0.21124   0.53999
 Alpha virt. eigenvalues --    0.54895   0.56993   0.57836   0.66973   0.69329
 Alpha virt. eigenvalues --    0.78649   0.79569   0.79935   0.80342   0.82763

 Mulliken charges:
               1
     1  O   -0.511217
     2  H    0.253624
     3  H    0.257817
     4  O   -0.510742
     5  H    0.250782
     6  H    0.259737
 Sum of Mulliken charges =  -0.00000

 Dipole moment (field-independent basis, Debye):
    X=             -1.9548    Y=             -1.8847    Z=              0.0000  Tot=              2.7154
 Quadrupole moment (field-independent basis, Debye-Ang):
   XX=             -9.8535   YY=              0.9438   ZZ=            -14.7137
   XY=             -5.2239   XZ=              0.0000   YZ=              0.0000

 Normal termination of Gaussian 16 at Fri Aug 26 21:59:26 2022.
