 Gaussian 16, Revision A.03,
 Gaussian 16:  ES64L-G16RevA.03 25-Dec-2016

 ------------------
 #p CCSD(T)/cc-pVTZ
 ------------------

 ------------
 H2O_H2O_2330
 ------------
 Symbolic Z-matrix:
 Charge =  0 Multiplicity = 1

                         Standard orientation:
 ---------------------------------------------------------------------
 Center     Atomic      Atomic             Coordinates (Angstroms)
 Number     Number       Type             X           Y           Z
 ---------------------------------------------------------------------
      1          8           0        0.018361   -2.036841    0.000000
      2          1           0       -0.781653   -2.607354    0.000000
      3          1           0        0.817489   -2.608593    0.000000
      4          8           0        0.018361    2.042875    0.000000
      5          1           0        0.592533    2.840266    0.000000
      6          1           0       -0.922141    2.327413    0.000000
 ---------------------------------------------------------------------

 SCF Done:  E(RHF) =  -152.105377879     A.U. after   10 cycles
 E2 =    -0.5262453441D+00 EUMP2 =    -0.15263162322295D+03
 CCSD(T)
 CCSD(T)= -0.15265886920D+03

 The electronic state is 1-A'.
 Alpha  occ. eigenvalues --  -20.54675 -20.54589  -1.31960  -1.31872  -0.69377
 Alpha  occ. eigenvalues --   -0.69284  -0.55405  -0.55096  -0.49062  -0.48967
 Alpha virt. eigenvalues --    0.14168   0.15552   0.20589   0.21105   0.54324
 Alpha virt. eigenvalues --    0.55890   0.57862   0.58109   0.63150   0.74240
 Alpha virt. eigenvalues --    0.79535   0.80165   0.80797   0.81262   0.82097

 Mulliken charges:
               1
     1  O   -0.495864
     2  H    0.246582
     3  H    0.249349
     4  O   -0.495689
     5  H    0.246111
     6  H    0.249510
 Sum of Mulliken charges =  -0.00000

 Dipole moment (field-independent basis, Debye):
    X=             -0.6213    Y=             -0.1090    Z=              0.0000  Tot=              0.6308
 Quadrupole moment (field-independent basis, Debye-Ang):
   XX=             -8.0421   YY=              3.9611   ZZ=            -14.7097
   XY=             -0.7582   XZ=              0.0000   YZ=              0.0000

 Normal termination of Gaussian 16 at Sat Aug 27 09:54:38 2022.
