 Gaussian 16, Revision A.03,
 Gaussian 16:  ES64L-G16RevA.03 25-Dec-2016

 ------------------
 #p CCSD(T)/cc-pVTZ
 ------------------

 -----------
 H2O_H2O_683
 -----------
 Symbolic Z-matrix:
 Charge =  0 Multiplicity = 1

                         Standard orientation:
 ---------------------------------------------------------------------
 Center     Atomic      Atomic             Coordinates (Angstroms)
 Number     Number       Type             X           Y           Z
 ---------------------------------------------------------------------
      1          8           0        0.028573   -1.154341    0.000000
      2          1           0       -0.772205   -1.723780    0.000000
      3          1           0        0.826933   -1.727164    0.000000
      4          8           0        0.028573    1.169524    0.000000
      5          1           0        0.437348    2.063061    0.000000
      6          1           0       -0.949239    1.266422    0.000000
 ---------------------------------------------------------------------

 SCF Done:  E(RHF) =  -152.086504368     A.U. after   11 cycles
 E2 =    -0.5305056550D+00 EUMP2 =    -0.15261701002341D+03
 CCSD(T)
 CCSD(T)= -0.15264421405D+03

 The electronic state is 1-A'.
 Alpha  occ. eigenvalues --  -20.53191 -20.52708  -1.31412  -1.29779  -0.68627
 Alpha  occ. eigenvalues --   -0.67526  -0.57683  -0.49076  -0.48701  -0.46492
 Alpha virt. eigenvalues --    0.14399   0.17632   0.20441   0.22838   0.51911
 Alpha virt. eigenvalues --    0.58581   0.58585   0.62995   0.70745   0.76447
 Alpha virt. eigenvalues --    0.77356   0.80739   0.83905   0.86260   0.87211

 Mulliken charges:
               1
     1  O   -0.460266
     2  H    0.222089
     3  H    0.236417
     4  O   -0.442177
     5  H    0.207530
     6  H    0.236406
 Sum of Mulliken charges =  -0.00000

 Dipole moment (field-independent basis, Debye):
    X=             -0.8744    Y=             -0.2991    Z=              0.0000  Tot=              0.9242
 Quadrupole moment (field-independent basis, Debye-Ang):
   XX=             -8.5041   YY=             -3.8530   ZZ=            -14.7308
   XY=             -0.4580   XZ=              0.0000   YZ=              0.0000

 Normal termination of Gaussian 16 at Fri Aug 26 19:02:36 2022.
