 Gaussian 16, Revision A.03,
 Gaussian 16:  ES64L-G16RevA.03 25-Dec-2016

 ------------------
 #p CCSD(T)/cc-pVTZ
 ------------------

 ------------
 H2O_H2O_1664
 ------------
 Symbolic Z-matrix:
 Charge =  0 Multiplicity = 1

                         Standard orientation:
 ---------------------------------------------------------------------
 Center     Atomic      Atomic             Coordinates (Angstroms)
 Number     Number       Type             X           Y           Z
 ---------------------------------------------------------------------
      1          8           0        0.045363   -1.656970    0.000000
      2          1           0       -0.755533   -2.226244    0.000000
      3          1           0        0.843605   -2.229958    0.000000
      4          8           0        0.045363    1.701450    0.000000
      5          1           0        0.081283    2.683394    0.000000
      6          1           0       -0.895159    1.416974    0.000000
 ---------------------------------------------------------------------

 SCF Done:  E(RHF) =  -152.105710475     A.U. after   10 cycles
 E2 =    -0.5267675592D+00 EUMP2 =    -0.15263247803407D+03
 CCSD(T)
 CCSD(T)= -0.15265968138D+03

 The electronic state is 1-A'.
 Alpha  occ. eigenvalues --  -20.55044 -20.54048  -1.32324  -1.31308  -0.69746
 Alpha  occ. eigenvalues --   -0.68695  -0.55798  -0.54500  -0.49435  -0.48413
 Alpha virt. eigenvalues --    0.13726   0.16433   0.20205   0.22342   0.53679
 Alpha virt. eigenvalues --    0.55322   0.57640   0.58600   0.64452   0.76785
 Alpha virt. eigenvalues --    0.78206   0.78470   0.79078   0.81418   0.85224

 Mulliken charges:
               1
     1  O   -0.489046
     2  H    0.240428
     3  H    0.251098
     4  O   -0.491839
     5  H    0.236884
     6  H    0.252475
 Sum of Mulliken charges =  -0.00000

 Dipole moment (field-independent basis, Debye):
    X=             -1.5043    Y=             -0.8344    Z=              0.0000  Tot=              1.7202
 Quadrupole moment (field-independent basis, Debye-Ang):
   XX=             -9.1257   YY=             -0.1598   ZZ=            -14.7139
   XY=             -1.8737   XZ=              0.0000   YZ=              0.0000

 Normal termination of Gaussian 16 at Sat Aug 27 06:05:54 2022.
