 Gaussian 16, Revision A.03,
 Gaussian 16:  ES64L-G16RevA.03 25-Dec-2016

 ------------------
 #p CCSD(T)/cc-pVTZ
 ------------------

 ------------
 H2O_H2O_4200
 ------------
 Symbolic Z-matrix:
 Charge =  0 Multiplicity = 1

                         Standard orientation:
 ---------------------------------------------------------------------
 Center     Atomic      Atomic             Coordinates (Angstroms)
 Number     Number       Type             X           Y           Z
 ---------------------------------------------------------------------
      1          8           0        0.000000   -0.000000    3.037312
      2          1           0        0.000000    0.799571    3.608444
      3          1           0       -0.000000   -0.799571    3.608444
      4          8           0        0.000000   -0.000000   -3.037312
      5          1           0       -0.000000   -0.799571   -3.608444
      6          1           0        0.000000    0.799571   -3.608444
 ---------------------------------------------------------------------

 SCF Done:  E(RHF) =  -152.106730133     A.U. after   10 cycles
 E2 =    -0.5259410557D+00 EUMP2 =    -0.15263267118903D+03
 CCSD(T)
 CCSD(T)= -0.15265990558D+03

 The electronic state is 1-AG.
 Alpha  occ. eigenvalues --  -20.55150 -20.55150  -1.32445  -1.32445  -0.69853
 Alpha  occ. eigenvalues --   -0.69852  -0.55861  -0.55861  -0.49552  -0.49551
 Alpha virt. eigenvalues --    0.14449   0.14494   0.20502   0.20521   0.54712
 Alpha virt. eigenvalues --    0.54724   0.57572   0.57581   0.68324   0.68441
 Alpha virt. eigenvalues --    0.79327   0.79327   0.80771   0.80774   0.82702

 Mulliken charges:
               1
     1  O   -0.504866
     2  H    0.252433
     3  H    0.252433
     4  O   -0.504866
     5  H    0.252433
     6  H    0.252433
 Sum of Mulliken charges =  -0.00000

 Dipole moment (field-independent basis, Debye):
    X=             -0.0000    Y=              0.0000    Z=              0.0000  Tot=              0.0000
 Quadrupole moment (field-independent basis, Debye-Ang):
   XX=            -14.7105   YY=             -7.8044   ZZ=             12.2630
   XY=              0.0000   XZ=              0.0000   YZ=             -0.0000

 3\MP4DQ=-152.6417967\MP4SDQ=-152.6448576\CCSD=-152.6442689\CCSD(T)=-15
 Normal termination of Gaussian 16 at Sat Aug 27 05:57:15 2022.
