 Gaussian 16, Revision A.03,
 Gaussian 16:  ES64L-G16RevA.03 25-Dec-2016

 ------------------
 #p CCSD(T)/cc-pVTZ
 ------------------

 -----------
 H2O_H2O_762
 -----------
 Symbolic Z-matrix:
 Charge =  0 Multiplicity = 1

                         Standard orientation:
 ---------------------------------------------------------------------
 Center     Atomic      Atomic             Coordinates (Angstroms)
 Number     Number       Type             X           Y           Z
 ---------------------------------------------------------------------
      1          8           0        0.040433   -1.184430    0.000000
      2          1           0       -0.760787   -1.753245    0.000000
      3          1           0        0.838348   -1.757874    0.000000
      4          8           0        0.040433    1.217652    0.000000
      5          1           0        0.204769    2.186414    0.000000
      6          1           0       -0.929264    1.058927    0.000000
 ---------------------------------------------------------------------

 SCF Done:  E(RHF) =  -152.092620241     A.U. after   11 cycles
 E2 =    -0.5298790021D+00 EUMP2 =    -0.15262249924314D+03
 CCSD(T)
 CCSD(T)= -0.15264969806D+03

 The electronic state is 1-A'.
 Alpha  occ. eigenvalues --  -20.53959 -20.52840  -1.31853  -1.30004  -0.69178
 Alpha  occ. eigenvalues --   -0.67798  -0.56913  -0.50686  -0.49073  -0.46852
 Alpha virt. eigenvalues --    0.14128   0.17513   0.20255   0.23205   0.53096
 Alpha virt. eigenvalues --    0.57999   0.58180   0.61311   0.70726   0.75834
 Alpha virt. eigenvalues --    0.77739   0.79960   0.83486   0.85723   0.87422

 Mulliken charges:
               1
     1  O   -0.466315
     2  H    0.224836
     3  H    0.242582
     4  O   -0.450355
     5  H    0.207264
     6  H    0.241989
 Sum of Mulliken charges =  -0.00000

 Dipole moment (field-independent basis, Debye):
    X=             -1.2487    Y=             -0.6526    Z=              0.0000  Tot=              1.4089
 Quadrupole moment (field-independent basis, Debye-Ang):
   XX=             -8.9624   YY=             -3.6492   ZZ=            -14.7261
   XY=             -0.9088   XZ=              0.0000   YZ=              0.0000

 Normal termination of Gaussian 16 at Fri Aug 26 19:45:55 2022.
