 Gaussian 16, Revision A.03,
 Gaussian 16:  ES64L-G16RevA.03 25-Dec-2016

 ------------------
 #p CCSD(T)/cc-pVTZ
 ------------------

 ------------
 H2O_H2O_2468
 ------------
 Symbolic Z-matrix:
 Charge =  0 Multiplicity = 1

                         Standard orientation:
 ---------------------------------------------------------------------
 Center     Atomic      Atomic             Coordinates (Angstroms)
 Number     Number       Type             X           Y           Z
 ---------------------------------------------------------------------
      1          8           0        0.052842   -2.068425    0.000000
      2          1           0       -0.747961   -2.637829    0.000000
      3          1           0        0.851178   -2.641282    0.000000
      4          8           0        0.052842    2.138711    0.000000
      5          1           0       -0.166765    3.096457    0.000000
      6          1           0       -0.781920    1.620367    0.000000
 ---------------------------------------------------------------------

 SCF Done:  E(RHF) =  -152.107337376     A.U. after   10 cycles
 E2 =    -0.5261076784D+00 EUMP2 =    -0.15263344505449D+03
 CCSD(T)
 CCSD(T)= -0.15266064452D+03

 The electronic state is 1-A'.
 Alpha  occ. eigenvalues --  -20.55544 -20.54530  -1.32829  -1.31819  -0.70239
 Alpha  occ. eigenvalues --   -0.69199  -0.56257  -0.55250  -0.49940  -0.48936
 Alpha virt. eigenvalues --    0.13397   0.15699   0.20084   0.21770   0.54004
 Alpha virt. eigenvalues --    0.54697   0.57266   0.58226   0.65761   0.73601
 Alpha virt. eigenvalues --    0.78899   0.79712   0.79967   0.82120   0.82647

 Mulliken charges:
               1
     1  O   -0.504802
     2  H    0.249415
     3  H    0.256563
     4  O   -0.506675
     5  H    0.246648
     6  H    0.258851
 Sum of Mulliken charges =  -0.00000

 Dipole moment (field-independent basis, Debye):
    X=             -1.7916    Y=             -1.2723    Z=              0.0000  Tot=              2.1974
 Quadrupole moment (field-independent basis, Debye-Ang):
   XX=             -9.5607   YY=              1.2448   ZZ=            -14.7137
   XY=             -3.3599   XZ=              0.0000   YZ=              0.0000

 Normal termination of Gaussian 16 at Sat Aug 27 10:43:29 2022.
