 Gaussian 16, Revision A.03,
 Gaussian 16:  ES64L-G16RevA.03 25-Dec-2016

 ------------------
 #p CCSD(T)/cc-pVTZ
 ------------------

 ------------
 H2O_H2O_3816
 ------------
 Symbolic Z-matrix:
 Charge =  0 Multiplicity = 1

                         Standard orientation:
 ---------------------------------------------------------------------
 Center     Atomic      Atomic             Coordinates (Angstroms)
 Number     Number       Type             X           Y           Z
 ---------------------------------------------------------------------
      1          8           0        0.049504   -2.793640    0.000000
      2          1           0       -0.750927   -3.363565    0.000000
      3          1           0        0.848213   -3.365978    0.000000
      4          8           0        0.049504    2.850604    0.000000
      5          1           0       -0.043849    3.828761    0.000000
      6          1           0       -0.845508    2.445071    0.000000
 ---------------------------------------------------------------------

 SCF Done:  E(RHF) =  -152.107179665     A.U. after   10 cycles
 E2 =    -0.5259142679D+00 EUMP2 =    -0.15263309393303D+03
 CCSD(T)
 CCSD(T)= -0.15266031787D+03

 The electronic state is 1-A'.
 Alpha  occ. eigenvalues --  -20.55457 -20.55038  -1.32754  -1.32333  -0.70161
 Alpha  occ. eigenvalues --   -0.69731  -0.56191  -0.55769  -0.49864  -0.49445
 Alpha virt. eigenvalues --    0.14128   0.14675   0.20249   0.20729   0.54393
 Alpha virt. eigenvalues --    0.54848   0.57300   0.57718   0.67834   0.68642
 Alpha virt. eigenvalues --    0.79016   0.79428   0.80447   0.80863   0.82454

 Mulliken charges:
               1
     1  O   -0.507559
     2  H    0.252250
     3  H    0.255317
     4  O   -0.507213
     5  H    0.250992
     6  H    0.256212
 Sum of Mulliken charges =  -0.00000

 Dipole moment (field-independent basis, Debye):
    X=             -1.6980    Y=             -0.9998    Z=              0.0000  Tot=              1.9705
 Quadrupole moment (field-independent basis, Debye-Ang):
   XX=             -9.3455   YY=              6.3750   ZZ=            -14.7117
   XY=             -4.1427   XZ=              0.0000   YZ=              0.0000

 Normal termination of Gaussian 16 at Sat Aug 27 03:32:18 2022.
