 Gaussian 16, Revision A.03,
 Gaussian 16:  ES64L-G16RevA.03 25-Dec-2016

 ------------------
 #p CCSD(T)/cc-pVTZ
 ------------------

 -----------
 H2O_H2O_779
 -----------
 Symbolic Z-matrix:
 Charge =  0 Multiplicity = 1

                         Standard orientation:
 ---------------------------------------------------------------------
 Center     Atomic      Atomic             Coordinates (Angstroms)
 Number     Number       Type             X           Y           Z
 ---------------------------------------------------------------------
      1          8           0        0.014784   -1.213675    0.000000
      2          1           0       -0.785384   -1.783969    0.000000
      3          1           0        0.813757   -1.785643    0.000000
      4          8           0        0.014784    1.217536    0.000000
      5          1           0        0.640085    1.975498    0.000000
      6          1           0       -0.905002    1.563226    0.000000
 ---------------------------------------------------------------------

 SCF Done:  E(RHF) =  -152.089998493     A.U. after   11 cycles
 E2 =    -0.5296571615D+00 EUMP2 =    -0.15261965565419D+03
 CCSD(T)
 CCSD(T)= -0.15264693044D+03

 The electronic state is 1-A'.
 Alpha  occ. eigenvalues --  -20.53034 -20.52919  -1.31084  -1.29990  -0.68332
 Alpha  occ. eigenvalues --   -0.67600  -0.57308  -0.49562  -0.48389  -0.46717
 Alpha virt. eigenvalues --    0.14491   0.17576   0.20554   0.22465   0.50712
 Alpha virt. eigenvalues --    0.58826   0.58917   0.63313   0.72351   0.76635
 Alpha virt. eigenvalues --    0.77043   0.80026   0.84048   0.86492   0.86726

 Mulliken charges:
               1
     1  O   -0.459118
     2  H    0.225596
     3  H    0.232707
     4  O   -0.453516
     5  H    0.221667
     6  H    0.232664
 Sum of Mulliken charges =  -0.00000

 Dipole moment (field-independent basis, Debye):
    X=             -0.4595    Y=             -0.0752    Z=              0.0000  Tot=              0.4656
 Quadrupole moment (field-independent basis, Debye-Ang):
   XX=             -8.1287   YY=             -3.2251   ZZ=            -14.7280
   XY=             -0.2111   XZ=              0.0000   YZ=              0.0000

 Normal termination of Gaussian 16 at Fri Aug 26 19:54:46 2022.
