 Gaussian 16, Revision A.03,
 Gaussian 16:  ES64L-G16RevA.03 25-Dec-2016

 ------------------
 #p CCSD(T)/cc-pVTZ
 ------------------

 ------------
 H2O_H2O_2406
 ------------
 Symbolic Z-matrix:
 Charge =  0 Multiplicity = 1

                         Standard orientation:
 ---------------------------------------------------------------------
 Center     Atomic      Atomic             Coordinates (Angstroms)
 Number     Number       Type             X           Y           Z
 ---------------------------------------------------------------------
      1          8           0        0.021860   -2.075305    0.000000
      2          1           0       -0.778227   -2.645713    0.000000
      3          1           0        0.820914   -2.647160    0.000000
      4          8           0        0.021860    2.083961    0.000000
      5          1           0        0.542759    2.917130    0.000000
      6          1           0       -0.935209    2.306501    0.000000
 ---------------------------------------------------------------------

 SCF Done:  E(RHF) =  -152.105547081     A.U. after   10 cycles
 E2 =    -0.5262063004D+00 EUMP2 =    -0.15263175338147D+03
 CCSD(T)
 CCSD(T)= -0.15265899806D+03

 The electronic state is 1-A'.
 Alpha  occ. eigenvalues --  -20.54740 -20.54620  -1.32026  -1.31905  -0.69441
 Alpha  occ. eigenvalues --   -0.69314  -0.55445  -0.55176  -0.49127  -0.49003
 Alpha virt. eigenvalues --    0.14155   0.15488   0.20568   0.21082   0.54366
 Alpha virt. eigenvalues --    0.55723   0.57832   0.58071   0.63740   0.73831
 Alpha virt. eigenvalues --    0.79541   0.80063   0.80888   0.81205   0.82171

 Mulliken charges:
               1
     1  O   -0.497101
     2  H    0.247021
     3  H    0.250159
     4  O   -0.496857
     5  H    0.246432
     6  H    0.250347
 Sum of Mulliken charges =  -0.00000

 Dipole moment (field-independent basis, Debye):
    X=             -0.7406    Y=             -0.1558    Z=              0.0000  Tot=              0.7568
 Quadrupole moment (field-independent basis, Debye-Ang):
   XX=             -8.1271   YY=              4.1750   ZZ=            -14.7098
   XY=             -0.9497   XZ=              0.0000   YZ=              0.0000

 Normal termination of Gaussian 16 at Sat Aug 27 10:23:00 2022.
