 Gaussian 16, Revision A.03,
 Gaussian 16:  ES64L-G16RevA.03 25-Dec-2016

 ------------------
 #p CCSD(T)/cc-pVTZ
 ------------------

 ------------
 H2O_H2O_3585
 ------------
 Symbolic Z-matrix:
 Charge =  0 Multiplicity = 1

                         Standard orientation:
 ---------------------------------------------------------------------
 Center     Atomic      Atomic             Coordinates (Angstroms)
 Number     Number       Type             X           Y           Z
 ---------------------------------------------------------------------
      1          8           0        0.034781   -2.692136    0.000000
      2          1           0       -0.765421   -3.262382    0.000000
      3          1           0        0.833720   -3.264153    0.000000
      4          8           0        0.034781    2.715663    0.000000
      5          1           0        0.322482    3.655203    0.000000
      6          1           0       -0.947281    2.683112    0.000000
 ---------------------------------------------------------------------

 SCF Done:  E(RHF) =  -152.106711308     A.U. after   10 cycles
 E2 =    -0.5259595685D+00 EUMP2 =    -0.15263267087616D+03
 CCSD(T)
 CCSD(T)= -0.15265990464D+03

 The electronic state is 1-A'.
 Alpha  occ. eigenvalues --  -20.55195 -20.55008  -1.32490  -1.32301  -0.69898
 Alpha  occ. eigenvalues --   -0.69704  -0.55905  -0.55717  -0.49596  -0.49409
 Alpha virt. eigenvalues --    0.14335   0.14692   0.20440   0.20683   0.54652
 Alpha virt. eigenvalues --    0.54887   0.57525   0.57719   0.67984   0.68904
 Alpha virt. eigenvalues --    0.79282   0.79466   0.80721   0.80933   0.82681

 Mulliken charges:
               1
     1  O   -0.504788
     2  H    0.251169
     3  H    0.253623
     4  O   -0.504550
     5  H    0.250478
     6  H    0.254068
 Sum of Mulliken charges =  -0.00000

 Dipole moment (field-independent basis, Debye):
    X=             -1.1914    Y=             -0.4133    Z=              0.0000  Tot=              1.2611
 Quadrupole moment (field-independent basis, Debye-Ang):
   XX=             -8.5675   YY=              8.0877   ZZ=            -14.7107
   XY=             -2.4048   XZ=              0.0000   YZ=              0.0000

 Normal termination of Gaussian 16 at Sat Aug 27 01:41:36 2022.
