 Gaussian 16, Revision A.03,
 Gaussian 16:  ES64L-G16RevA.03 25-Dec-2016

 ------------------
 #p CCSD(T)/cc-pVTZ
 ------------------

 ------------
 H2O_H2O_4140
 ------------
 Symbolic Z-matrix:
 Charge =  0 Multiplicity = 1

                         Standard orientation:
 ---------------------------------------------------------------------
 Center     Atomic      Atomic             Coordinates (Angstroms)
 Number     Number       Type             X           Y           Z
 ---------------------------------------------------------------------
      1          8           0        0.047522   -2.969924    0.000000
      2          1           0       -0.752827   -3.539964    0.000000
      3          1           0        0.846313   -3.542147    0.000000
      4          8           0        0.047522    3.020560    0.000000
      5          1           0        0.018202    4.002724    0.000000
      6          1           0       -0.872048    2.674299    0.000000
 ---------------------------------------------------------------------

 SCF Done:  E(RHF) =  -152.107165553     A.U. after   10 cycles
 E2 =    -0.5259066371D+00 EUMP2 =    -0.15263307219036D+03
 CCSD(T)
 CCSD(T)= -0.15266029707D+03

 The electronic state is 1-A'.
 Alpha  occ. eigenvalues --  -20.55439 -20.55111  -1.32736  -1.32406  -0.70143
 Alpha  occ. eigenvalues --   -0.69807  -0.56172  -0.55842  -0.49846  -0.49518
 Alpha virt. eigenvalues --    0.14195   0.14564   0.20275   0.20633   0.54419
 Alpha virt. eigenvalues --    0.54772   0.57318   0.57648   0.67983   0.68425
 Alpha virt. eigenvalues --    0.79034   0.79357   0.80469   0.80818   0.82408

 Mulliken charges:
               1
     1  O   -0.507465
     2  H    0.252490
     3  H    0.254976
     4  O   -0.507213
     5  H    0.251526
     6  H    0.255686
 Sum of Mulliken charges =  -0.00000

 Dipole moment (field-independent basis, Debye):
    X=             -1.6318    Y=             -0.8862    Z=              0.0000  Tot=              1.8569
 Quadrupole moment (field-independent basis, Debye-Ang):
   XX=             -9.2246   YY=              7.9690   ZZ=            -14.7115
   XY=             -4.1622   XZ=              0.0000   YZ=              0.0000

 Normal termination of Gaussian 16 at Sat Aug 27 05:36:19 2022.
