 Gaussian 16, Revision A.03,
 Gaussian 16:  ES64L-G16RevA.03 25-Dec-2016

 ------------------
 #p CCSD(T)/cc-pVTZ
 ------------------

 ------------
 H2O_H2O_1594
 ------------
 Symbolic Z-matrix:
 Charge =  0 Multiplicity = 1

                         Standard orientation:
 ---------------------------------------------------------------------
 Center     Atomic      Atomic             Coordinates (Angstroms)
 Number     Number       Type             X           Y           Z
 ---------------------------------------------------------------------
      1          8           0        0.054192   -1.599311    0.000000
      2          1           0       -0.746999   -2.168168    0.000000
      3          1           0        0.852137   -2.172713    0.000000
      4          8           0        0.054192    1.676512    0.000000
      5          1           0       -0.226942    2.618038    0.000000
      6          1           0       -0.745271    1.105229    0.000000
 ---------------------------------------------------------------------

 SCF Done:  E(RHF) =  -152.107511014     A.U. after   10 cycles
 E2 =    -0.5268562148D+00 EUMP2 =    -0.15263436722862D+03
 CCSD(T)
 CCSD(T)= -0.15266151939D+03

 The electronic state is 1-A'.
 Alpha  occ. eigenvalues --  -20.55748 -20.53796  -1.33029  -1.31071  -0.70444
 Alpha  occ. eigenvalues --   -0.68460  -0.56429  -0.54480  -0.50145  -0.48194
 Alpha virt. eigenvalues --    0.13353   0.16730   0.19889   0.23536   0.53946
 Alpha virt. eigenvalues --    0.54952   0.57062   0.58304   0.66173   0.76020
 Alpha virt. eigenvalues --    0.76970   0.77312   0.79086   0.81465   0.84674

 Mulliken charges:
               1
     1  O   -0.491706
     2  H    0.242589
     3  H    0.255396
     4  O   -0.502733
     5  H    0.237724
     6  H    0.258729
 Sum of Mulliken charges =  -0.00000

 Dipole moment (field-independent basis, Debye):
    X=             -1.7914    Y=             -1.4713    Z=              0.0000  Tot=              2.3181
 Quadrupole moment (field-independent basis, Debye-Ang):
   XX=             -9.6595   YY=             -1.7548   ZZ=            -14.7193
   XY=             -2.7229   XZ=              0.0000   YZ=              0.0000

 Normal termination of Gaussian 16 at Sat Aug 27 05:40:04 2022.
