 Gaussian 16, Revision A.03,
 Gaussian 16:  ES64L-G16RevA.03 25-Dec-2016

 ------------------
 #p CCSD(T)/cc-pVTZ
 ------------------

 ------------
 H2O_H2O_2743
 ------------
 Symbolic Z-matrix:
 Charge =  0 Multiplicity = 1

                         Standard orientation:
 ---------------------------------------------------------------------
 Center     Atomic      Atomic             Coordinates (Angstroms)
 Number     Number       Type             X           Y           Z
 ---------------------------------------------------------------------
      1          8           0        0.052837   -2.214672    0.000000
      2          1           0       -0.747886   -2.784189    0.000000
      3          1           0        0.851253   -2.787417    0.000000
      4          8           0        0.052837    2.284973    0.000000
      5          1           0       -0.166904    3.242689    0.000000
      6          1           0       -0.781852    1.766512    0.000000
 ---------------------------------------------------------------------

 SCF Done:  E(RHF) =  -152.107316010     A.U. after   10 cycles
 E2 =    -0.5260225413D+00 EUMP2 =    -0.15263333855121D+03
 CCSD(T)
 CCSD(T)= -0.15266054696D+03

 The electronic state is 1-A'.
 Alpha  occ. eigenvalues --  -20.55535 -20.54669  -1.32825  -1.31961  -0.70234
 Alpha  occ. eigenvalues --   -0.69346  -0.56259  -0.55396  -0.49936  -0.49077
 Alpha virt. eigenvalues --    0.13526   0.15432   0.20111   0.21427   0.54096
 Alpha virt. eigenvalues --    0.54861   0.57262   0.58018   0.66327   0.71924
 Alpha virt. eigenvalues --    0.78941   0.79793   0.79966   0.81357   0.82732

 Mulliken charges:
               1
     1  O   -0.506618
     2  H    0.250584
     3  H    0.256642
     4  O   -0.507131
     5  H    0.248034
     6  H    0.258490
 Sum of Mulliken charges =   0.00000

 Dipole moment (field-independent basis, Debye):
    X=             -1.7985    Y=             -1.2601    Z=              0.0000  Tot=              2.1960
 Quadrupole moment (field-independent basis, Debye-Ang):
   XX=             -9.5596   YY=              2.0640   ZZ=            -14.7131
   XY=             -3.6197   XZ=              0.0000   YZ=              0.0000

 Normal termination of Gaussian 16 at Fri Aug 26 15:40:39 2022.
