 Gaussian 16, Revision A.03,
 Gaussian 16:  ES64L-G16RevA.03 25-Dec-2016

 ------------------
 #p CCSD(T)/cc-pVTZ
 ------------------

 -----------
 H2O_H2O_967
 -----------
 Symbolic Z-matrix:
 Charge =  0 Multiplicity = 1

                         Standard orientation:
 ---------------------------------------------------------------------
 Center     Atomic      Atomic             Coordinates (Angstroms)
 Number     Number       Type             X           Y           Z
 ---------------------------------------------------------------------
      1          8           0        0.051330   -1.274429    0.000000
      2          1           0       -0.750164   -1.842859    0.000000
      3          1           0        0.848969   -1.848258    0.000000
      4          8           0        0.051330    1.337789    0.000000
      5          1           0       -0.103986    2.308037    0.000000
      6          1           0       -0.816107    0.876205    0.000000
 ---------------------------------------------------------------------

 SCF Done:  E(RHF) =  -152.101541382     A.U. after   11 cycles
 E2 =    -0.5287745084D+00 EUMP2 =    -0.15263031589053D+03
 CCSD(T)
 CCSD(T)= -0.15265746713D+03

 The electronic state is 1-A'.
 Alpha  occ. eigenvalues --  -20.55225 -20.52977  -1.32766  -1.30232  -0.70172
 Alpha  occ. eigenvalues --   -0.67991  -0.56182  -0.53018  -0.49889  -0.47271
 Alpha virt. eigenvalues --    0.13635   0.17470   0.19940   0.23925   0.52980
 Alpha virt. eigenvalues --    0.57315   0.58811   0.58984   0.70728   0.75118
 Alpha virt. eigenvalues --    0.76708   0.79857   0.82776   0.82886   0.84892

 Mulliken charges:
               1
     1  O   -0.474198
     2  H    0.232413
     3  H    0.250547
     4  O   -0.479803
     5  H    0.219392
     6  H    0.251648
 Sum of Mulliken charges =  -0.00000

 Dipole moment (field-independent basis, Debye):
    X=             -1.6227    Y=             -1.2556    Z=              0.0000  Tot=              2.0518
 Quadrupole moment (field-independent basis, Debye-Ang):
   XX=             -9.5123   YY=             -3.4066   ZZ=            -14.7240
   XY=             -1.8030   XZ=              0.0000   YZ=              0.0000

 Normal termination of Gaussian 16 at Fri Aug 26 21:35:57 2022.
