 Gaussian 16, Revision A.03,
 Gaussian 16:  ES64L-G16RevA.03 25-Dec-2016

 ------------------
 #p CCSD(T)/cc-pVTZ
 ------------------

 -----------
 H2O_H2O_375
 -----------
 Symbolic Z-matrix:
 Charge =  0 Multiplicity = 1

                         Standard orientation:
 ---------------------------------------------------------------------
 Center     Atomic      Atomic             Coordinates (Angstroms)
 Number     Number       Type             X           Y           Z
 ---------------------------------------------------------------------
      1          8           0        0.000000   -0.000000    1.003038
      2          1           0        0.000000    0.799571    1.574170
      3          1           0       -0.000000   -0.799571    1.574170
      4          8           0        0.000000   -0.000000   -1.003038
      5          1           0       -0.000000   -0.799571   -1.574170
      6          1           0        0.000000    0.799571   -1.574170
 ---------------------------------------------------------------------

 SCF Done:  E(RHF) =  -152.049726928     A.U. after   11 cycles
 E2 =    -0.5352844293D+00 EUMP2 =    -0.15258501135691D+03
 CCSD(T)
 CCSD(T)= -0.15261182467D+03

 The electronic state is 1-AG.
 Alpha  occ. eigenvalues --  -20.51762 -20.51760  -1.31895  -1.28486  -0.68457
 Alpha  occ. eigenvalues --   -0.66396  -0.61160  -0.49116  -0.44906  -0.43448
 Alpha virt. eigenvalues --    0.14670   0.18484   0.20475   0.22798   0.50179
 Alpha virt. eigenvalues --    0.59173   0.59289   0.66356   0.69930   0.78066
 Alpha virt. eigenvalues --    0.79322   0.82867   0.84509   0.86683   0.87249

 Mulliken charges:
               1
     1  O   -0.428014
     2  H    0.214007
     3  H    0.214007
     4  O   -0.428014
     5  H    0.214007
     6  H    0.214007
 Sum of Mulliken charges =   0.00000

 Dipole moment (field-independent basis, Debye):
    X=             -0.0000    Y=              0.0000    Z=             -0.0000  Tot=              0.0000
 Quadrupole moment (field-independent basis, Debye-Ang):
   XX=            -14.7530   YY=             -8.1574   ZZ=             -5.7355
   XY=              0.0000   XZ=             -0.0000   YZ=             -0.0000

 \MP4DQ=-152.5921972\MP4SDQ=-152.5957458\CCSD=-152.5949598\CCSD(T)=-152
 Normal termination of Gaussian 16 at Fri Aug 26 15:47:56 2022.
