 Gaussian 16, Revision A.03,
 Gaussian 16:  ES64L-G16RevA.03 25-Dec-2016

 ------------------
 #p CCSD(T)/cc-pVTZ
 ------------------

 ------------
 H2O_H2O_1008
 ------------
 Symbolic Z-matrix:
 Charge =  0 Multiplicity = 1

                         Standard orientation:
 ---------------------------------------------------------------------
 Center     Atomic      Atomic             Coordinates (Angstroms)
 Number     Number       Type             X           Y           Z
 ---------------------------------------------------------------------
      1          8           0        0.028571   -1.327180    0.000000
      2          1           0       -0.772051   -1.896838    0.000000
      3          1           0        0.827088   -1.899783    0.000000
      4          8           0        0.028571    1.342378    0.000000
      5          1           0        0.437101    2.236028    0.000000
      6          1           0       -0.949268    1.439008    0.000000
 ---------------------------------------------------------------------

 SCF Done:  E(RHF) =  -152.098244220     A.U. after   11 cycles
 E2 =    -0.5283786387D+00 EUMP2 =    -0.15262662285824D+03
 CCSD(T)
 CCSD(T)= -0.15265390488D+03

 The electronic state is 1-A'.
 Alpha  occ. eigenvalues --  -20.53796 -20.53361  -1.31339  -1.30573  -0.68718
 Alpha  occ. eigenvalues --   -0.68081  -0.56301  -0.51760  -0.48575  -0.47464
 Alpha virt. eigenvalues --    0.14288   0.17141   0.20457   0.22458   0.52065
 Alpha virt. eigenvalues --    0.58418   0.58693   0.60928   0.70178   0.76661
 Alpha virt. eigenvalues --    0.76715   0.78154   0.82251   0.83486   0.86067

 Mulliken charges:
               1
     1  O   -0.470033
     2  H    0.229036
     3  H    0.240517
     4  O   -0.460161
     5  H    0.222679
     6  H    0.237962
 Sum of Mulliken charges =  -0.00000

 Dipole moment (field-independent basis, Debye):
    X=             -0.9098    Y=             -0.2921    Z=              0.0000  Tot=              0.9555
 Quadrupole moment (field-independent basis, Debye-Ang):
   XX=             -8.4380   YY=             -2.1683   ZZ=            -14.7185
   XY=             -0.6039   XZ=              0.0000   YZ=              0.0000

 Normal termination of Gaussian 16 at Sat Aug 27 01:20:10 2022.
