 Gaussian 16, Revision A.03,
 Gaussian 16:  ES64L-G16RevA.03 25-Dec-2016

 ------------------
 #p CCSD(T)/cc-pVTZ
 ------------------

 -----------
 H2O_H2O_176
 -----------
 Symbolic Z-matrix:
 Charge =  0 Multiplicity = 1

                         Standard orientation:
 ---------------------------------------------------------------------
 Center     Atomic      Atomic             Coordinates (Angstroms)
 Number     Number       Type             X           Y           Z
 ---------------------------------------------------------------------
      1          8           0        0.003735   -0.896539    0.000000
      2          1           0       -0.796040   -1.467384    0.000000
      3          1           0        0.803102   -1.467957    0.000000
      4          8           0        0.003735    0.896780    0.000000
      5          1           0        0.764464    1.518712    0.000000
      6          1           0       -0.831292    1.414695    0.000000
 ---------------------------------------------------------------------

 SCF Done:  E(RHF) =  -151.995440856     A.U. after   11 cycles
 E2 =    -0.5421740841D+00 EUMP2 =    -0.15253761494007D+03
 CCSD(T)
 CCSD(T)= -0.15256353341D+03

 The electronic state is 1-A'.
 Alpha  occ. eigenvalues --  -20.51221 -20.51214  -1.33716  -1.27517  -0.69327
 Alpha  occ. eigenvalues --   -0.65806  -0.64612  -0.50565  -0.43783  -0.38163
 Alpha virt. eigenvalues --    0.14648   0.19114   0.20197   0.22980   0.50391
 Alpha virt. eigenvalues --    0.59192   0.59249   0.67367   0.68108   0.79130
 Alpha virt. eigenvalues --    0.80388   0.83894   0.84414   0.86419   0.87660

 Mulliken charges:
               1
     1  O   -0.391016
     2  H    0.193856
     3  H    0.197133
     4  O   -0.390126
     5  H    0.188916
     6  H    0.201237
 Sum of Mulliken charges =  -0.00000

 Dipole moment (field-independent basis, Debye):
    X=             -0.1069    Y=             -0.0059    Z=              0.0000  Tot=              0.1070
 Quadrupole moment (field-independent basis, Debye-Ang):
   XX=             -8.3266   YY=             -7.4102   ZZ=            -14.7613
   XY=             -0.0390   XZ=              0.0000   YZ=              0.0000

 Normal termination of Gaussian 16 at Fri Aug 26 13:39:18 2022.
