 Gaussian 16, Revision A.03,
 Gaussian 16:  ES64L-G16RevA.03 25-Dec-2016

 ------------------
 #p CCSD(T)/cc-pVTZ
 ------------------

 ------------
 H2O_H2O_3403
 ------------
 Symbolic Z-matrix:
 Charge =  0 Multiplicity = 1

                         Standard orientation:
 ---------------------------------------------------------------------
 Center     Atomic      Atomic             Coordinates (Angstroms)
 Number     Number       Type             X           Y           Z
 ---------------------------------------------------------------------
      1          8           0        0.011143   -2.610655    0.000000
      2          1           0       -0.788638   -3.181494    0.000000
      3          1           0        0.810504   -3.182081    0.000000
      4          8           0        0.011143    2.612842    0.000000
      5          1           0        0.684191    3.328741    0.000000
      6          1           0       -0.884339    3.017340    0.000000
 ---------------------------------------------------------------------

 SCF Done:  E(RHF) =  -152.106338746     A.U. after   10 cycles
 E2 =    -0.5259962733D+00 EUMP2 =    -0.15263233501902D+03
 CCSD(T)
 CCSD(T)= -0.15265957649D+03

 The electronic state is 1-A'.
 Alpha  occ. eigenvalues --  -20.54996 -20.54977  -1.32289  -1.32271  -0.69699
 Alpha  occ. eigenvalues --   -0.69679  -0.55688  -0.55665  -0.49393  -0.49375
 Alpha virt. eigenvalues --    0.14460   0.14740   0.20572   0.20671   0.54822
 Alpha virt. eigenvalues --    0.54945   0.57685   0.57734   0.67925   0.69272
 Alpha virt. eigenvalues --    0.79480   0.79505   0.80912   0.80981   0.82772

 Mulliken charges:
               1
     1  O   -0.502575
     2  H    0.250857
     3  H    0.251719
     4  O   -0.502541
     5  H    0.250700
     6  H    0.251841
 Sum of Mulliken charges =   0.00000

 Dipole moment (field-independent basis, Debye):
    X=             -0.3812    Y=             -0.0385    Z=              0.0000  Tot=              0.3832
 Quadrupole moment (field-independent basis, Debye-Ang):
   XX=             -7.8894   YY=              8.7146   ZZ=            -14.7100
   XY=             -0.6608   XZ=              0.0000   YZ=              0.0000

 Normal termination of Gaussian 16 at Fri Aug 26 22:02:46 2022.
