 Gaussian 16, Revision A.03,
 Gaussian 16:  ES64L-G16RevA.03 25-Dec-2016

 ------------------
 #p CCSD(T)/cc-pVTZ
 ------------------

 -----------
 H2O_H2O_294
 -----------
 Symbolic Z-matrix:
 Charge =  0 Multiplicity = 1

                         Standard orientation:
 ---------------------------------------------------------------------
 Center     Atomic      Atomic             Coordinates (Angstroms)
 Number     Number       Type             X           Y           Z
 ---------------------------------------------------------------------
      1          8           0        0.054272   -0.908041    0.000000
      2          1           0       -0.748098   -1.475233    0.000000
      3          1           0        0.851024   -1.483098    0.000000
      4          8           0        0.054272    0.985017    0.000000
      5          1           0       -0.224906    1.927125    0.000000
      6          1           0       -0.746375    0.415394    0.000000
 ---------------------------------------------------------------------

 SCF Done:  E(RHF) =  -152.026667904     A.U. after   11 cycles
 E2 =    -0.5398067396D+00 EUMP2 =    -0.15256647464336D+03
 CCSD(T)
 CCSD(T)= -0.15259266736D+03

 The electronic state is 1-A'.
 Alpha  occ. eigenvalues --  -20.54864 -20.50410  -1.36216  -1.27536  -0.73802
 Alpha  occ. eigenvalues --   -0.69980  -0.54011  -0.52274  -0.47225  -0.44450
 Alpha virt. eigenvalues --    0.13456   0.18909   0.19513   0.25234   0.50962
 Alpha virt. eigenvalues --    0.55715   0.61181   0.65414   0.72668   0.75898
 Alpha virt. eigenvalues --    0.80151   0.80885   0.83981   0.84827   0.88197

 Mulliken charges:
               1
     1  O   -0.378618
     2  H    0.186671
     3  H    0.224050
     4  O   -0.445296
     5  H    0.162304
     6  H    0.250889
 Sum of Mulliken charges =   0.00000

 Dipole moment (field-independent basis, Debye):
    X=             -1.5215    Y=             -1.7237    Z=              0.0000  Tot=              2.2992
 Quadrupole moment (field-independent basis, Debye-Ang):
   XX=             -9.7228   YY=             -7.0401   ZZ=            -14.6492
   XY=             -1.4581   XZ=              0.0000   YZ=              0.0000

 Normal termination of Gaussian 16 at Fri Aug 26 14:56:59 2022.
