 Gaussian 16, Revision A.03,
 Gaussian 16:  ES64L-G16RevA.03 25-Dec-2016

 ------------------
 #p CCSD(T)/cc-pVTZ
 ------------------

 -----------
 H2O_H2O_238
 -----------
 Symbolic Z-matrix:
 Charge =  0 Multiplicity = 1

                         Standard orientation:
 ---------------------------------------------------------------------
 Center     Atomic      Atomic             Coordinates (Angstroms)
 Number     Number       Type             X           Y           Z
 ---------------------------------------------------------------------
      1          8           0        0.043018   -0.902311    0.000000
      2          1           0       -0.758838   -1.470231    0.000000
      3          1           0        0.840291   -1.476645    0.000000
      4          8           0        0.043018    0.940878    0.000000
      5          1           0        0.144733    1.918201    0.000000
      6          1           0       -0.914469    0.720141    0.000000
 ---------------------------------------------------------------------

 SCF Done:  E(RHF) =  -152.021595953     A.U. after   11 cycles
 E2 =    -0.5397027652D+00 EUMP2 =    -0.15256129871777D+03
 CCSD(T)
 CCSD(T)= -0.15258760985D+03

 The electronic state is 1-A'.
 Alpha  occ. eigenvalues --  -20.52901 -20.51480  -1.34518  -1.27801  -0.71437
 Alpha  occ. eigenvalues --   -0.68388  -0.58707  -0.51102  -0.44457  -0.43124
 Alpha virt. eigenvalues --    0.14124   0.18580   0.19911   0.23815   0.53261
 Alpha virt. eigenvalues --    0.56867   0.58618   0.64526   0.72426   0.77045
 Alpha virt. eigenvalues --    0.80625   0.82141   0.82920   0.84674   0.88598

 Mulliken charges:
               1
     1  O   -0.402911
     2  H    0.190062
     3  H    0.214416
     4  O   -0.385408
     5  H    0.150115
     6  H    0.233726
 Sum of Mulliken charges =  -0.00000

 Dipole moment (field-independent basis, Debye):
    X=             -1.1992    Y=             -0.8263    Z=              0.0000  Tot=              1.4563
 Quadrupole moment (field-independent basis, Debye-Ang):
   XX=             -9.1911   YY=             -6.9374   ZZ=            -14.6954
   XY=             -0.6964   XZ=              0.0000   YZ=              0.0000

 Normal termination of Gaussian 16 at Fri Aug 26 14:23:00 2022.
