 Gaussian 16, Revision A.03,
 Gaussian 16:  ES64L-G16RevA.03 25-Dec-2016

 ------------------
 #p CCSD(T)/cc-pVTZ
 ------------------

 ------------
 H2O_H2O_4412
 ------------
 Symbolic Z-matrix:
 Charge =  0 Multiplicity = 1

                         Standard orientation:
 ---------------------------------------------------------------------
 Center     Atomic      Atomic             Coordinates (Angstroms)
 Number     Number       Type             X           Y           Z
 ---------------------------------------------------------------------
      1          8           0        0.040404   -3.125558    0.000000
      2          1           0       -0.759799   -3.695805    0.000000
      3          1           0        0.839342   -3.697574    0.000000
      4          8           0        0.040404    3.158924    0.000000
      5          1           0        0.203007    4.127979    0.000000
      6          1           0       -0.929008    2.998466    0.000000
 ---------------------------------------------------------------------

 SCF Done:  E(RHF) =  -152.107066963     A.U. after   10 cycles
 E2 =    -0.5259100364D+00 EUMP2 =    -0.15263297699923D+03
 CCSD(T)
 CCSD(T)= -0.15266020432D+03

 The electronic state is 1-A'.
 Alpha  occ. eigenvalues --  -20.55364 -20.55169  -1.32661  -1.32464  -0.70068
 Alpha  occ. eigenvalues --   -0.69867  -0.56092  -0.55896  -0.49770  -0.49574
 Alpha virt. eigenvalues --    0.14279   0.14484   0.20340   0.20548   0.54498
 Alpha virt. eigenvalues --    0.54708   0.57386   0.57583   0.68112   0.68334
 Alpha virt. eigenvalues --    0.79109   0.79302   0.80547   0.80760   0.82475

 Mulliken charges:
               1
     1  O   -0.506868
     2  H    0.252507
     3  H    0.254361
     4  O   -0.506714
     5  H    0.251897
     6  H    0.254817
 Sum of Mulliken charges =  -0.00000

 Dipole moment (field-independent basis, Debye):
    X=             -1.3883    Y=             -0.5827    Z=              0.0000  Tot=              1.5056
 Quadrupole moment (field-independent basis, Debye-Ang):
   XX=             -8.8303   YY=             10.4152   ZZ=            -14.7112
   XY=             -3.5212   XZ=              0.0000   YZ=              0.0000

 49659\MP4DQ=-152.6421027\MP4SDQ=-152.6451607\CCSD=-152.644573\CCSD(T)=
 Normal termination of Gaussian 16 at Sat Aug 27 07:10:45 2022.
