 Gaussian 16, Revision A.03,
 Gaussian 16:  ES64L-G16RevA.03 25-Dec-2016

 ------------------
 #p CCSD(T)/cc-pVTZ
 ------------------

 ------------
 H2O_H2O_3486
 ------------
 Symbolic Z-matrix:
 Charge =  0 Multiplicity = 1

                         Standard orientation:
 ---------------------------------------------------------------------
 Center     Atomic      Atomic             Coordinates (Angstroms)
 Number     Number       Type             X           Y           Z
 ---------------------------------------------------------------------
      1          8           0        0.037675   -2.636385    0.000000
      2          1           0       -0.762594   -3.206539    0.000000
      3          1           0        0.836547   -3.208494    0.000000
      4          8           0        0.037675    2.664639    0.000000
      5          1           0        0.263420    3.620958    0.000000
      6          1           0       -0.940168    2.568041    0.000000
 ---------------------------------------------------------------------

 SCF Done:  E(RHF) =  -152.106728796     A.U. after   10 cycles
 E2 =    -0.5259627428D+00 EUMP2 =    -0.15263269153917D+03
 CCSD(T)
 CCSD(T)= -0.15265992459D+03

 The electronic state is 1-A'.
 Alpha  occ. eigenvalues --  -20.55213 -20.54979  -1.32509  -1.32272  -0.69917
 Alpha  occ. eigenvalues --   -0.69674  -0.55924  -0.55688  -0.49615  -0.49380
 Alpha virt. eigenvalues --    0.14287   0.14747   0.20416   0.20726   0.54623
 Alpha virt. eigenvalues --    0.54920   0.57507   0.57748   0.67849   0.69063
 Alpha virt. eigenvalues --    0.79263   0.79494   0.80696   0.80963   0.82682

 Mulliken charges:
               1
     1  O   -0.504897
     2  H    0.251045
     3  H    0.253859
     4  O   -0.504602
     5  H    0.250210
     6  H    0.254384
 Sum of Mulliken charges =  -0.00000

 Dipole moment (field-independent basis, Debye):
    X=             -1.2899    Y=             -0.4970    Z=              0.0000  Tot=              1.3824
 Quadrupole moment (field-independent basis, Debye-Ang):
   XX=             -8.6993   YY=              7.3890   ZZ=            -14.7108
   XY=             -2.5927   XZ=              0.0000   YZ=              0.0000

 Normal termination of Gaussian 16 at Fri Aug 26 22:44:08 2022.
