 Gaussian 16, Revision A.03,
 Gaussian 16:  ES64L-G16RevA.03 25-Dec-2016

 ------------------
 #p CCSD(T)/cc-pVTZ
 ------------------

 ------------
 H2O_H2O_4793
 ------------
 Symbolic Z-matrix:
 Charge =  0 Multiplicity = 1

                         Standard orientation:
 ---------------------------------------------------------------------
 Center     Atomic      Atomic             Coordinates (Angstroms)
 Number     Number       Type             X           Y           Z
 ---------------------------------------------------------------------
      1          8           0        0.052814   -3.304900    0.000000
      2          1           0       -0.747533   -3.874945    0.000000
      3          1           0        0.851607   -3.877119    0.000000
      4          8           0        0.052814    3.375271    0.000000
      5          1           0       -0.167558    4.332842    0.000000
      6          1           0       -0.781533    2.856260    0.000000
 ---------------------------------------------------------------------

 SCF Done:  E(RHF) =  -152.107385395     A.U. after   10 cycles
 E2 =    -0.5258778326D+00 EUMP2 =    -0.15263326322802D+03
 CCSD(T)
 CCSD(T)= -0.15266048402D+03

 The electronic state is 1-A'.
 Alpha  occ. eigenvalues --  -20.55572 -20.55210  -1.32871  -1.32507  -0.70277
 Alpha  occ. eigenvalues --   -0.69908  -0.56317  -0.55952  -0.49982  -0.49620
 Alpha virt. eigenvalues --    0.14101   0.14466   0.20176   0.20559   0.54285
 Alpha virt. eigenvalues --    0.54665   0.57201   0.57564   0.67871   0.68248
 Alpha virt. eigenvalues --    0.78897   0.79255   0.80329   0.80715   0.82253

 Mulliken charges:
               1
     1  O   -0.508750
     2  H    0.253387
     3  H    0.255363
     4  O   -0.508546
     5  H    0.252456
     6  H    0.256089
 Sum of Mulliken charges =  -0.00000

 Dipole moment (field-independent basis, Debye):
    X=             -1.8166    Y=             -1.2272    Z=              0.0000  Tot=              2.1923
 Quadrupole moment (field-independent basis, Debye-Ang):
   XX=             -9.5596   YY=              8.1139   ZZ=            -14.7119
   XY=             -5.5761   XZ=              0.0000   YZ=              0.0000

 Normal termination of Gaussian 16 at Sat Aug 27 09:22:03 2022.
