 Gaussian 16, Revision A.03,
 Gaussian 16:  ES64L-G16RevA.03 25-Dec-2016

 ------------------
 #p CCSD(T)/cc-pVTZ
 ------------------

 ------------
 H2O_H2O_3501
 ------------
 Symbolic Z-matrix:
 Charge =  0 Multiplicity = 1

                         Standard orientation:
 ---------------------------------------------------------------------
 Center     Atomic      Atomic             Coordinates (Angstroms)
 Number     Number       Type             X           Y           Z
 ---------------------------------------------------------------------
      1          8           0        0.003735   -2.664894    0.000000
      2          1           0       -0.795905   -3.235930    0.000000
      3          1           0        0.803237   -3.236123    0.000000
      4          8           0        0.003735    2.665138    0.000000
      5          1           0        0.764316    3.287249    0.000000
      6          1           0       -0.831415    3.182853    0.000000
 ---------------------------------------------------------------------

 SCF Done:  E(RHF) =  -152.106379154     A.U. after   10 cycles
 E2 =    -0.5259885392D+00 EUMP2 =    -0.15263236769279D+03
 CCSD(T)
 CCSD(T)= -0.15265960856D+03

 The electronic state is 1-A'.
 Alpha  occ. eigenvalues --  -20.55006 -20.55004  -1.32300  -1.32298  -0.69709
 Alpha  occ. eigenvalues --   -0.69707  -0.55702  -0.55692  -0.49404  -0.49402
 Alpha virt. eigenvalues --    0.14476   0.14696   0.20571   0.20646   0.54820
 Alpha virt. eigenvalues --    0.54909   0.57677   0.57712   0.68064   0.69085
 Alpha virt. eigenvalues --    0.79468   0.79480   0.80901   0.80952   0.82785

 Mulliken charges:
               1
     1  O   -0.502809
     2  H    0.251268
     3  H    0.251541
     4  O   -0.502805
     5  H    0.251222
     6  H    0.251583
 Sum of Mulliken charges =  -0.00000

 Dipole moment (field-independent basis, Debye):
    X=             -0.1279    Y=             -0.0043    Z=              0.0000  Tot=              0.1279
 Quadrupole moment (field-independent basis, Debye-Ang):
   XX=             -7.8193   YY=              9.2549   ZZ=            -14.7101
   XY=             -0.2260   XZ=              0.0000   YZ=              0.0000

 Normal termination of Gaussian 16 at Fri Aug 26 22:51:33 2022.
