 Gaussian 16, Revision A.03,
 Gaussian 16:  ES64L-G16RevA.03 25-Dec-2016

 ------------------
 #p CCSD(T)/cc-pVTZ
 ------------------

 -----------
 H2O_H2O_769
 -----------
 Symbolic Z-matrix:
 Charge =  0 Multiplicity = 1

                         Standard orientation:
 ---------------------------------------------------------------------
 Center     Atomic      Atomic             Coordinates (Angstroms)
 Number     Number       Type             X           Y           Z
 ---------------------------------------------------------------------
      1          8           0        0.054232   -1.160605    0.000000
      2          1           0       -0.747550   -1.728628    0.000000
      3          1           0        0.851580   -1.734836    0.000000
      4          8           0        0.054232    1.237694    0.000000
      5          1           0       -0.225922    2.179511    0.000000
      6          1           0       -0.745824    0.667241    0.000000
 ---------------------------------------------------------------------

 SCF Done:  E(RHF) =  -152.095655794     A.U. after   11 cycles
 E2 =    -0.5305028907D+00 EUMP2 =    -0.15262615868502D+03
 CCSD(T)
 CCSD(T)= -0.15265318355D+03

 The electronic state is 1-A'.
 Alpha  occ. eigenvalues --  -20.55580 -20.52262  -1.33523  -1.29575  -0.70903
 Alpha  occ. eigenvalues --   -0.68182  -0.55824  -0.52535  -0.50563  -0.46585
 Alpha virt. eigenvalues --    0.13447   0.17981   0.19726   0.24846   0.51838
 Alpha virt. eigenvalues --    0.56795   0.60007   0.60840   0.71467   0.74252
 Alpha virt. eigenvalues --    0.77558   0.82879   0.83809   0.84301   0.87031

 Mulliken charges:
               1
     1  O   -0.458659
     2  H    0.227392
     3  H    0.246742
     4  O   -0.481291
     5  H    0.210857
     6  H    0.254961
 Sum of Mulliken charges =   0.00000

 Dipole moment (field-independent basis, Debye):
    X=             -1.6755    Y=             -1.5857    Z=              0.0000  Tot=              2.3069
 Quadrupole moment (field-independent basis, Debye-Ang):
   XX=             -9.6923   YY=             -4.6068   ZZ=            -14.7194
   XY=             -1.9490   XZ=              0.0000   YZ=              0.0000

 Normal termination of Gaussian 16 at Fri Aug 26 19:49:15 2022.
