 Gaussian 16, Revision A.03,
 Gaussian 16:  ES64L-G16RevA.03 25-Dec-2016

 ------------------
 #p CCSD(T)/cc-pVTZ
 ------------------

 ------------
 H2O_H2O_1199
 ------------
 Symbolic Z-matrix:
 Charge =  0 Multiplicity = 1

                         Standard orientation:
 ---------------------------------------------------------------------
 Center     Atomic      Atomic             Coordinates (Angstroms)
 Number     Number       Type             X           Y           Z
 ---------------------------------------------------------------------
      1          8           0        0.057310   -1.366683    0.000000
      2          1           0       -0.744229   -1.935050    0.000000
      3          1           0        0.854904   -1.940573    0.000000
      4          8           0        0.057310    1.480514    0.000000
      5          1           0       -0.511057    2.282054    0.000000
      6          1           0       -0.516580    0.682920    0.000000
 ---------------------------------------------------------------------

 SCF Done:  E(RHF) =  -152.109054093     A.U. after   10 cycles
 E2 =    -0.5281759620D+00 EUMP2 =    -0.15263723005495D+03
 CCSD(T)
 CCSD(T)= -0.15266423711D+03

 The electronic state is 1-A'.
 Alpha  occ. eigenvalues --  -20.56962 -20.52667  -1.34378  -1.30069  -0.71738
 Alpha  occ. eigenvalues --   -0.67988  -0.57478  -0.53584  -0.51470  -0.47190
 Alpha virt. eigenvalues --    0.12848   0.17705   0.19396   0.26679   0.51076
 Alpha virt. eigenvalues --    0.56047   0.57498   0.59593   0.69921   0.74095
 Alpha virt. eigenvalues --    0.74135   0.78755   0.82298   0.83710   0.84763

 Mulliken charges:
               1
     1  O   -0.487058
     2  H    0.245191
     3  H    0.260705
     4  O   -0.522920
     5  H    0.233695
     6  H    0.270389
 Sum of Mulliken charges =  -0.00000

 Dipole moment (field-independent basis, Debye):
    X=             -1.8556    Y=             -2.3224    Z=              0.0000  Tot=              2.9727
 Quadrupole moment (field-independent basis, Debye-Ang):
   XX=             -9.8569   YY=             -4.6403   ZZ=            -14.7275
   XY=             -3.1366   XZ=              0.0000   YZ=              0.0000

 Normal termination of Gaussian 16 at Sat Aug 27 02:55:30 2022.
