 Gaussian 16, Revision A.03,
 Gaussian 16:  ES64L-G16RevA.03 25-Dec-2016

 ------------------
 #p CCSD(T)/cc-pVTZ
 ------------------

 ------------
 H2O_H2O_1174
 ------------
 Symbolic Z-matrix:
 Charge =  0 Multiplicity = 1

                         Standard orientation:
 ---------------------------------------------------------------------
 Center     Atomic      Atomic             Coordinates (Angstroms)
 Number     Number       Type             X           Y           Z
 ---------------------------------------------------------------------
      1          8           0        0.057312   -1.353389    0.000000
      2          1           0       -0.744245   -1.921730    0.000000
      3          1           0        0.854887   -1.927305    0.000000
      4          8           0        0.057312    1.467216    0.000000
      5          1           0       -0.511029    2.268774    0.000000
      6          1           0       -0.516604    0.669641    0.000000
 ---------------------------------------------------------------------

 SCF Done:  E(RHF) =  -152.108821235     A.U. after   10 cycles
 E2 =    -0.5282989706D+00 EUMP2 =    -0.15263712020532D+03
 CCSD(T)
 CCSD(T)= -0.15266411871D+03

 The electronic state is 1-A'.
 Alpha  occ. eigenvalues --  -20.56985 -20.52597  -1.34420  -1.30008  -0.71776
 Alpha  occ. eigenvalues --   -0.67992  -0.57460  -0.53525  -0.51507  -0.47127
 Alpha virt. eigenvalues --    0.12846   0.17753   0.19383   0.26745   0.50998
 Alpha virt. eigenvalues --    0.56039   0.57688   0.59712   0.70049   0.74028
 Alpha virt. eigenvalues --    0.74087   0.78924   0.82353   0.83683   0.85070

 Mulliken charges:
               1
     1  O   -0.485793
     2  H    0.244814
     3  H    0.260455
     4  O   -0.523284
     5  H    0.233060
     6  H    0.270748
 Sum of Mulliken charges =  -0.00000

 Dipole moment (field-independent basis, Debye):
    X=             -1.8522    Y=             -2.3318    Z=              0.0000  Tot=              2.9779
 Quadrupole moment (field-independent basis, Debye-Ang):
   XX=             -9.8565   YY=             -4.7078   ZZ=            -14.7271
   XY=             -3.1118   XZ=              0.0000   YZ=              0.0000

 Normal termination of Gaussian 16 at Sat Aug 27 02:44:05 2022.
