 Gaussian 16, Revision A.03,
 Gaussian 16:  ES64L-G16RevA.03 25-Dec-2016

 ------------------
 #p CCSD(T)/cc-pVTZ
 ------------------

 -----------
 H2O_H2O_424
 -----------
 Symbolic Z-matrix:
 Charge =  0 Multiplicity = 1

                         Standard orientation:
 ---------------------------------------------------------------------
 Center     Atomic      Atomic             Coordinates (Angstroms)
 Number     Number       Type             X           Y           Z
 ---------------------------------------------------------------------
      1          8           0        0.057390   -0.954594    0.000000
      2          1           0       -0.744948   -1.521833    0.000000
      3          1           0        0.854175   -1.529606    0.000000
      4          8           0        0.057390    1.068264    0.000000
      5          1           0       -0.509848    1.870602    0.000000
      6          1           0       -0.517622    0.271478    0.000000
 ---------------------------------------------------------------------

 SCF Done:  E(RHF) =  -152.045469676     A.U. after   11 cycles
 E2 =    -0.5381603848D+00 EUMP2 =    -0.15258363006110D+03
 CCSD(T)
 CCSD(T)= -0.15260950286D+03

 The electronic state is 1-A'.
 Alpha  occ. eigenvalues --  -20.57634 -20.48383  -1.38275  -1.26779  -0.75830
 Alpha  occ. eigenvalues --   -0.71626  -0.54113  -0.51595  -0.50086  -0.43665
 Alpha virt. eigenvalues --    0.12481   0.18326   0.19857   0.28024   0.48642
 Alpha virt. eigenvalues --    0.54079   0.62962   0.68496   0.72173   0.74283
 Alpha virt. eigenvalues --    0.76930   0.79878   0.83666   0.85526   0.87732

 Mulliken charges:
               1
     1  O   -0.361562
     2  H    0.206266
     3  H    0.240316
     4  O   -0.542841
     5  H    0.187976
     6  H    0.269845
 Sum of Mulliken charges =  -0.00000

 Dipole moment (field-independent basis, Debye):
    X=             -1.6568    Y=             -2.8674    Z=              0.0000  Tot=              3.3117
 Quadrupole moment (field-independent basis, Debye-Ang):
   XX=             -9.8168   YY=             -7.3397   ZZ=            -14.6222
   XY=             -2.3326   XZ=              0.0000   YZ=              0.0000

 Normal termination of Gaussian 16 at Fri Aug 26 16:20:06 2022.
