 Gaussian 16, Revision A.03,
 Gaussian 16:  ES64L-G16RevA.03 25-Dec-2016

 ------------------
 #p CCSD(T)/cc-pVTZ
 ------------------

 -----------
 H2O_H2O_256
 -----------
 Symbolic Z-matrix:
 Charge =  0 Multiplicity = 1

                         Standard orientation:
 ---------------------------------------------------------------------
 Center     Atomic      Atomic             Coordinates (Angstroms)
 Number     Number       Type             X           Y           Z
 ---------------------------------------------------------------------
      1          8           0        0.021865   -0.931882    0.000000
      2          1           0       -0.778852   -1.501406    0.000000
      3          1           0        0.820286   -1.504620    0.000000
      4          8           0        0.021865    0.940489    0.000000
      5          1           0        0.543684    1.773082    0.000000
      6          1           0       -0.934958    1.164087    0.000000
 ---------------------------------------------------------------------

 SCF Done:  E(RHF) =  -152.023881255     A.U. after   11 cycles
 E2 =    -0.5388170655D+00 EUMP2 =    -0.15256269832000D+03
 CCSD(T)
 CCSD(T)= -0.15258907413D+03

 The electronic state is 1-A'.
 Alpha  occ. eigenvalues --  -20.51754 -20.51494  -1.33097  -1.27939  -0.69384
 Alpha  occ. eigenvalues --   -0.66705  -0.62003  -0.50081  -0.44333  -0.41168
 Alpha virt. eigenvalues --    0.14558   0.18628   0.20253   0.23149   0.51625
 Alpha virt. eigenvalues --    0.58329   0.58961   0.65860   0.69586   0.78336
 Alpha virt. eigenvalues --    0.79297   0.83215   0.84034   0.86279   0.87960

 Mulliken charges:
               1
     1  O   -0.417154
     2  H    0.200201
     3  H    0.215493
     4  O   -0.395632
     5  H    0.172042
     6  H    0.225050
 Sum of Mulliken charges =  -0.00000

 Dipole moment (field-independent basis, Debye):
    X=             -0.6244    Y=             -0.1927    Z=              0.0000  Tot=              0.6534
 Quadrupole moment (field-independent basis, Debye-Ang):
   XX=             -8.4827   YY=             -6.6938   ZZ=            -14.7440
   XY=             -0.2327   XZ=              0.0000   YZ=              0.0000

 Normal termination of Gaussian 16 at Fri Aug 26 14:35:03 2022.
