 Gaussian 16, Revision A.03,
 Gaussian 16:  ES64L-G16RevA.03 25-Dec-2016

 ------------------
 #p CCSD(T)/cc-pVTZ
 ------------------

 ------------
 H2O_H2O_1634
 ------------
 Symbolic Z-matrix:
 Charge =  0 Multiplicity = 1

                         Standard orientation:
 ---------------------------------------------------------------------
 Center     Atomic      Atomic             Coordinates (Angstroms)
 Number     Number       Type             X           Y           Z
 ---------------------------------------------------------------------
      1          8           0        0.031746   -1.657433    0.000000
      2          1           0       -0.768760   -2.227255    0.000000
      3          1           0        0.830380   -2.229875    0.000000
      4          8           0        0.031746    1.676580    0.000000
      5          1           0        0.380767    2.595106    0.000000
      6          1           0       -0.950325    1.708850    0.000000
 ---------------------------------------------------------------------

 SCF Done:  E(RHF) =  -152.104300062     A.U. after   10 cycles
 E2 =    -0.5268342370D+00 EUMP2 =    -0.15263113429884D+03
 CCSD(T)
 CCSD(T)= -0.15265837495D+03

 The electronic state is 1-A'.
 Alpha  occ. eigenvalues --  -20.54522 -20.54109  -1.31808  -1.31372  -0.69234
 Alpha  occ. eigenvalues --   -0.68781  -0.55501  -0.54207  -0.48927  -0.48447
 Alpha virt. eigenvalues --    0.14042   0.16351   0.20435   0.21826   0.52963
 Alpha virt. eigenvalues --    0.56670   0.58012   0.58607   0.63607   0.76973
 Alpha virt. eigenvalues --    0.78466   0.78712   0.79703   0.81616   0.85182

 Mulliken charges:
               1
     1  O   -0.484442
     2  H    0.238696
     3  H    0.246627
     4  O   -0.484159
     5  H    0.236738
     6  H    0.246540
 Sum of Mulliken charges =   0.00000

 Dipole moment (field-independent basis, Debye):
    X=             -1.0531    Y=             -0.3581    Z=              0.0000  Tot=              1.1123
 Quadrupole moment (field-independent basis, Debye-Ang):
   XX=             -8.4862   YY=              0.5642   ZZ=            -14.7107
   XY=             -1.0477   XZ=              0.0000   YZ=              0.0000

 Normal termination of Gaussian 16 at Sat Aug 27 05:54:09 2022.
