 Gaussian 16, Revision A.03,
 Gaussian 16:  ES64L-G16RevA.03 25-Dec-2016

 ------------------
 #p CCSD(T)/cc-pVTZ
 ------------------

 ------------
 H2O_H2O_2389
 ------------
 Symbolic Z-matrix:
 Charge =  0 Multiplicity = 1

                         Standard orientation:
 ---------------------------------------------------------------------
 Center     Atomic      Atomic             Coordinates (Angstroms)
 Number     Number       Type             X           Y           Z
 ---------------------------------------------------------------------
      1          8           0        0.045353   -2.042531    0.000000
      2          1           0       -0.755295   -2.612152    0.000000
      3          1           0        0.843844   -2.615173    0.000000
      4          8           0        0.045353    2.087050    0.000000
      5          1           0        0.080847    3.069010    0.000000
      6          1           0       -0.895045    1.802166    0.000000
 ---------------------------------------------------------------------

 SCF Done:  E(RHF) =  -152.106530787     A.U. after   10 cycles
 E2 =    -0.5261676151D+00 EUMP2 =    -0.15263269840191D+03
 CCSD(T)
 CCSD(T)= -0.15265991665D+03

 The electronic state is 1-A'.
 Alpha  occ. eigenvalues --  -20.55197 -20.54547  -1.32482  -1.31830  -0.69895
 Alpha  occ. eigenvalues --   -0.69219  -0.55881  -0.55218  -0.49588  -0.48941
 Alpha virt. eigenvalues --    0.13687   0.15661   0.20267   0.21474   0.53840
 Alpha virt. eigenvalues --    0.55056   0.57536   0.58147   0.64969   0.74247
 Alpha virt. eigenvalues --    0.79186   0.80024   0.80089   0.81633   0.83372

 Mulliken charges:
               1
     1  O   -0.501424
     2  H    0.247741
     3  H    0.254329
     4  O   -0.501876
     5  H    0.245704
     6  H    0.255527
 Sum of Mulliken charges =   0.00000

 Dipole moment (field-independent basis, Debye):
    X=             -1.5357    Y=             -0.8051    Z=              0.0000  Tot=              1.7339
 Quadrupole moment (field-independent basis, Debye-Ang):
   XX=             -9.1055   YY=              2.4377   ZZ=            -14.7120
   XY=             -2.4575   XZ=              0.0000   YZ=              0.0000

 Normal termination of Gaussian 16 at Sat Aug 27 10:17:22 2022.
