 Gaussian 16, Revision A.03,
 Gaussian 16:  ES64L-G16RevA.03 25-Dec-2016

 ------------------
 #p CCSD(T)/cc-pVTZ
 ------------------

 ------------
 H2O_H2O_4244
 ------------
 Symbolic Z-matrix:
 Charge =  0 Multiplicity = 1

                         Standard orientation:
 ---------------------------------------------------------------------
 Center     Atomic      Atomic             Coordinates (Angstroms)
 Number     Number       Type             X           Y           Z
 ---------------------------------------------------------------------
      1          8           0        0.054141   -3.008603    0.000000
      2          1           0       -0.746301   -3.578513    0.000000
      3          1           0        0.852839   -3.580956    0.000000
      4          8           0        0.054141    3.085947    0.000000
      5          1           0       -0.228230    4.027102    0.000000
      6          1           0       -0.744570    2.513613    0.000000
 ---------------------------------------------------------------------

 SCF Done:  E(RHF) =  -152.107421943     A.U. after   10 cycles
 E2 =    -0.5258828068D+00 EUMP2 =    -0.15263330475032D+03
 CCSD(T)
 CCSD(T)= -0.15266052422D+03

 The electronic state is 1-A'.
 Alpha  occ. eigenvalues --  -20.55598 -20.55114  -1.32897  -1.32411  -0.70303
 Alpha  occ. eigenvalues --   -0.69810  -0.56345  -0.55857  -0.50008  -0.49525
 Alpha virt. eigenvalues --    0.14054   0.14581   0.20151   0.20677   0.54256
 Alpha virt. eigenvalues --    0.54765   0.57178   0.57662   0.67792   0.68392
 Alpha virt. eigenvalues --    0.78872   0.79347   0.80301   0.80802   0.82259

 Mulliken charges:
               1
     1  O   -0.508984
     2  H    0.253178
     3  H    0.255808
     4  O   -0.508665
     5  H    0.251858
     6  H    0.256804
 Sum of Mulliken charges =  -0.00000

 Dipole moment (field-independent basis, Debye):
    X=             -1.8599    Y=             -1.3534    Z=              0.0000  Tot=              2.3002
 Quadrupole moment (field-independent basis, Debye-Ang):
   XX=             -9.6485   YY=              5.8295   ZZ=            -14.7121
   XY=             -5.2936   XZ=              0.0000   YZ=              0.0000

 Normal termination of Gaussian 16 at Sat Aug 27 06:13:31 2022.
