 Gaussian 16, Revision A.03,
 Gaussian 16:  ES64L-G16RevA.03 25-Dec-2016

 ------------------
 #p CCSD(T)/cc-pVTZ
 ------------------

 ------------
 H2O_H2O_2460
 ------------
 Symbolic Z-matrix:
 Charge =  0 Multiplicity = 1

                         Standard orientation:
 ---------------------------------------------------------------------
 Center     Atomic      Atomic             Coordinates (Angstroms)
 Number     Number       Type             X           Y           Z
 ---------------------------------------------------------------------
      1          8           0        0.034785   -2.093831    0.000000
      2          1           0       -0.765597   -2.663826    0.000000
      3          1           0        0.833543   -2.666099    0.000000
      4          8           0        0.034785    2.117337    0.000000
      5          1           0        0.322781    3.056787    0.000000
      6          1           0       -0.947288    2.085094    0.000000
 ---------------------------------------------------------------------

 SCF Done:  E(RHF) =  -152.105992193     A.U. after   10 cycles
 E2 =    -0.5261639827D+00 EUMP2 =    -0.15263215617587D+03
 CCSD(T)
 CCSD(T)= -0.15265939146D+03

 The electronic state is 1-A'.
 Alpha  occ. eigenvalues --  -20.54942 -20.54622  -1.32229  -1.31906  -0.69643
 Alpha  occ. eigenvalues --   -0.69307  -0.55621  -0.55254  -0.49332  -0.49010
 Alpha virt. eigenvalues --    0.13983   0.15497   0.20442   0.21176   0.54155
 Alpha virt. eigenvalues --    0.55402   0.57716   0.58048   0.64596   0.73606
 Alpha virt. eigenvalues --    0.79427   0.79970   0.80672   0.81237   0.82605

 Mulliken charges:
               1
     1  O   -0.499582
     2  H    0.247478
     3  H    0.252319
     4  O   -0.499244
     5  H    0.246257
     6  H    0.252772
 Sum of Mulliken charges =  -0.00000

 Dipole moment (field-independent basis, Debye):
    X=             -1.1794    Y=             -0.4228    Z=              0.0000  Tot=              1.2529
 Quadrupole moment (field-independent basis, Debye-Ang):
   XX=             -8.5795   YY=              3.7352   ZZ=            -14.7106
   XY=             -1.7032   XZ=              0.0000   YZ=              0.0000

 Normal termination of Gaussian 16 at Sat Aug 27 10:40:54 2022.
