 Gaussian 16, Revision A.03,
 Gaussian 16:  ES64L-G16RevA.03 25-Dec-2016

 ------------------
 #p CCSD(T)/cc-pVTZ
 ------------------

 ------------
 H2O_H2O_1176
 ------------
 Symbolic Z-matrix:
 Charge =  0 Multiplicity = 1

                         Standard orientation:
 ---------------------------------------------------------------------
 Center     Atomic      Atomic             Coordinates (Angstroms)
 Number     Number       Type             X           Y           Z
 ---------------------------------------------------------------------
      1          8           0        0.003735   -1.428375    0.000000
      2          1           0       -0.795964   -1.999327    0.000000
      3          1           0        0.803178   -1.999687    0.000000
      4          8           0        0.003735    1.428617    0.000000
      5          1           0        0.764381    2.050650    0.000000
      6          1           0       -0.831361    1.946420    0.000000
 ---------------------------------------------------------------------

 SCF Done:  E(RHF) =  -152.099680330     A.U. after   10 cycles
 E2 =    -0.5277464881D+00 EUMP2 =    -0.15262742681770D+03
 CCSD(T)
 CCSD(T)= -0.15265474033D+03

 The electronic state is 1-A'.
 Alpha  occ. eigenvalues --  -20.53644 -20.53638  -1.31150  -1.30811  -0.68540
 Alpha  occ. eigenvalues --   -0.68296  -0.55869  -0.52282  -0.48376  -0.47719
 Alpha virt. eigenvalues --    0.14436   0.16935   0.20566   0.21984   0.51149
 Alpha virt. eigenvalues --    0.58447   0.58736   0.60920   0.68832   0.76277
 Alpha virt. eigenvalues --    0.77343   0.77966   0.79191   0.83155   0.86243

 Mulliken charges:
               1
     1  O   -0.468360
     2  H    0.233451
     3  H    0.234901
     4  O   -0.468192
     5  H    0.233509
     6  H    0.234690
 Sum of Mulliken charges =  -0.00000

 Dipole moment (field-independent basis, Debye):
    X=             -0.1211    Y=             -0.0046    Z=              0.0000  Tot=              0.1212
 Quadrupole moment (field-independent basis, Debye-Ang):
   XX=             -7.9263   YY=             -1.1041   ZZ=            -14.7126
   XY=             -0.0730   XZ=              0.0000   YZ=              0.0000

 Normal termination of Gaussian 16 at Sat Aug 27 02:45:02 2022.
