 Gaussian 16, Revision A.03,
 Gaussian 16:  ES64L-G16RevA.03 25-Dec-2016

 ------------------
 #p CCSD(T)/cc-pVTZ
 ------------------

 ------------
 H2O_H2O_3306
 ------------
 Symbolic Z-matrix:
 Charge =  0 Multiplicity = 1

                         Standard orientation:
 ---------------------------------------------------------------------
 Center     Atomic      Atomic             Coordinates (Angstroms)
 Number     Number       Type             X           Y           Z
 ---------------------------------------------------------------------
      1          8           0        0.021859   -2.553954    0.000000
      2          1           0       -0.778131   -3.124498    0.000000
      3          1           0        0.821010   -3.125674    0.000000
      4          8           0        0.021859    2.562617    0.000000
      5          1           0        0.542617    3.395874    0.000000
      6          1           0       -0.935247    2.784996    0.000000
 ---------------------------------------------------------------------

 SCF Done:  E(RHF) =  -152.106361401     A.U. after   10 cycles
 E2 =    -0.5260000442D+00 EUMP2 =    -0.15263236144562D+03
 CCSD(T)
 CCSD(T)= -0.15265960204D+03

 The electronic state is 1-A'.
 Alpha  occ. eigenvalues --  -20.55022 -20.54946  -1.32316  -1.32239  -0.69726
 Alpha  occ. eigenvalues --   -0.69646  -0.55714  -0.55635  -0.49420  -0.49343
 Alpha virt. eigenvalues --    0.14408   0.14797   0.20544   0.20712   0.54787
 Alpha virt. eigenvalues --    0.54983   0.57663   0.57763   0.67725   0.69483
 Alpha virt. eigenvalues --    0.79454   0.79534   0.80887   0.81017   0.82748

 Mulliken charges:
               1
     1  O   -0.502719
     2  H    0.250463
     3  H    0.252259
     4  O   -0.502581
     5  H    0.250079
     6  H    0.252500
 Sum of Mulliken charges =  -0.00000

 Dipole moment (field-independent basis, Debye):
    X=             -0.7475    Y=             -0.1526    Z=              0.0000  Tot=              0.7629
 Quadrupole moment (field-independent basis, Debye-Ang):
   XX=             -8.1117   YY=              7.9215   ZZ=            -14.7102
   XY=             -1.3014   XZ=              0.0000   YZ=              0.0000

 Normal termination of Gaussian 16 at Fri Aug 26 21:13:37 2022.
