 Gaussian 16, Revision A.03,
 Gaussian 16:  ES64L-G16RevA.03 25-Dec-2016

 ------------------
 #p CCSD(T)/cc-pVTZ
 ------------------

 -----------
 H2O_H2O_165
 -----------
 Symbolic Z-matrix:
 Charge =  0 Multiplicity = 1

                         Standard orientation:
 ---------------------------------------------------------------------
 Center     Atomic      Atomic             Coordinates (Angstroms)
 Number     Number       Type             X           Y           Z
 ---------------------------------------------------------------------
      1          8           0        0.047605   -0.856037    0.000000
      2          1           0       -0.754607   -1.423453    0.000000
      3          1           0        0.844518   -1.430872    0.000000
      4          8           0        0.047605    0.906361    0.000000
      5          1           0        0.021501    1.888616    0.000000
      6          1           0       -0.873094    0.563113    0.000000
 ---------------------------------------------------------------------

 SCF Done:  E(RHF) =  -151.992369270     A.U. after   11 cycles
 E2 =    -0.5432004396D+00 EUMP2 =    -0.15253556970977D+03
 CCSD(T)
 CCSD(T)= -0.15256145703D+03

 The electronic state is 1-A'.
 Alpha  occ. eigenvalues --  -20.53270 -20.51132  -1.36266  -1.27238  -0.73247
 Alpha  occ. eigenvalues --   -0.69465  -0.57364  -0.52268  -0.44015  -0.42049
 Alpha virt. eigenvalues --    0.13905   0.18884   0.19712   0.24141   0.52461
 Alpha virt. eigenvalues --    0.56666   0.59165   0.65232   0.73026   0.76950
 Alpha virt. eigenvalues --    0.81211   0.81822   0.82858   0.84118   0.88747

 Mulliken charges:
               1
     1  O   -0.371475
     2  H    0.173527
     3  H    0.208034
     4  O   -0.379882
     5  H    0.132759
     6  H    0.237038
 Sum of Mulliken charges =  -0.00000

 Dipole moment (field-independent basis, Debye):
    X=             -1.2920    Y=             -1.1096    Z=              0.0000  Tot=              1.7031
 Quadrupole moment (field-independent basis, Debye-Ang):
   XX=             -9.4228   YY=             -7.6681   ZZ=            -14.6577
   XY=             -0.8412   XZ=              0.0000   YZ=              0.0000

 Normal termination of Gaussian 16 at Fri Aug 26 13:32:09 2022.
