 Gaussian 16, Revision A.03,
 Gaussian 16:  ES64L-G16RevA.03 25-Dec-2016

 ------------------
 #p CCSD(T)/cc-pVTZ
 ------------------

 ------------
 H2O_H2O_3950
 ------------
 Symbolic Z-matrix:
 Charge =  0 Multiplicity = 1

                         Standard orientation:
 ---------------------------------------------------------------------
 Center     Atomic      Atomic             Coordinates (Angstroms)
 Number     Number       Type             X           Y           Z
 ---------------------------------------------------------------------
      1          8           0        0.000000   -0.000000    2.904353
      2          1           0        0.000000    0.799571    3.475485
      3          1           0       -0.000000   -0.799571    3.475485
      4          8           0        0.000000   -0.000000   -2.904353
      5          1           0       -0.000000   -0.799571   -3.475485
      6          1           0        0.000000    0.799571   -3.475485
 ---------------------------------------------------------------------

 SCF Done:  E(RHF) =  -152.106623065     A.U. after   10 cycles
 E2 =    -0.5259548830D+00 EUMP2 =    -0.15263257794757D+03
 CCSD(T)
 CCSD(T)= -0.15265981435D+03

 The electronic state is 1-AG.
 Alpha  occ. eigenvalues --  -20.55103 -20.55103  -1.32398  -1.32398  -0.69806
 Alpha  occ. eigenvalues --   -0.69806  -0.55810  -0.55808  -0.49504  -0.49504
 Alpha virt. eigenvalues --    0.14468   0.14549   0.20527   0.20559   0.54752
 Alpha virt. eigenvalues --    0.54777   0.57607   0.57622   0.68311   0.68576
 Alpha virt. eigenvalues --    0.79373   0.79375   0.80816   0.80827   0.82746

 Mulliken charges:
               1
     1  O   -0.504238
     2  H    0.252119
     3  H    0.252119
     4  O   -0.504238
     5  H    0.252119
     6  H    0.252119
 Sum of Mulliken charges =  -0.00000

 Dipole moment (field-independent basis, Debye):
    X=             -0.0000    Y=              0.0000    Z=             -0.0000  Tot=              0.0000
 Quadrupole moment (field-independent basis, Debye-Ang):
   XX=            -14.7104   YY=             -7.8063   ZZ=             11.1961
   XY=              0.0000   XZ=              0.0000   YZ=             -0.0000

 6\MP4DQ=-152.6417027\MP4SDQ=-152.6447646\CCSD=-152.6441756\CCSD(T)=-15
 Normal termination of Gaussian 16 at Sat Aug 27 04:30:52 2022.
