 Gaussian 16, Revision A.03,
 Gaussian 16:  ES64L-G16RevA.03 25-Dec-2016

 ------------------
 #p CCSD(T)/cc-pVTZ
 ------------------

 ------------
 H2O_H2O_4940
 ------------
 Symbolic Z-matrix:
 Charge =  0 Multiplicity = 1

                         Standard orientation:
 ---------------------------------------------------------------------
 Center     Atomic      Atomic             Coordinates (Angstroms)
 Number     Number       Type             X           Y           Z
 ---------------------------------------------------------------------
      1          8           0        0.047518   -3.395384    0.000000
      2          1           0       -0.752735   -3.965560    0.000000
      3          1           0        0.846406   -3.967472    0.000000
      4          8           0        0.047518    3.446036    0.000000
      5          1           0        0.018031    4.428195    0.000000
      6          1           0       -0.871993    3.099620    0.000000
 ---------------------------------------------------------------------

 SCF Done:  E(RHF) =  -152.107268737     A.U. after   10 cycles
 E2 =    -0.5258866277D+00 EUMP2 =    -0.15263315536473D+03
 CCSD(T)
 CCSD(T)= -0.15266037874D+03

 The electronic state is 1-A'.
 Alpha  occ. eigenvalues --  -20.55487 -20.55239  -1.32785  -1.32536  -0.70192
 Alpha  occ. eigenvalues --   -0.69938  -0.56226  -0.55976  -0.49896  -0.49647
 Alpha virt. eigenvalues --    0.14178   0.14427   0.20245   0.20506   0.54372
 Alpha virt. eigenvalues --    0.54634   0.57278   0.57527   0.67974   0.68228
 Alpha virt. eigenvalues --    0.78983   0.79229   0.80418   0.80684   0.82342

 Mulliken charges:
               1
     1  O   -0.508054
     2  H    0.253183
     3  H    0.254871
     4  O   -0.507908
     5  H    0.252514
     6  H    0.255394
 Sum of Mulliken charges =  -0.00000

 Dipole moment (field-independent basis, Debye):
    X=             -1.6347    Y=             -0.8826    Z=              0.0000  Tot=              1.8578
 Quadrupole moment (field-independent basis, Debye-Ang):
   XX=             -9.2243   YY=             10.6146   ZZ=            -14.7116
   XY=             -4.8525   XZ=              0.0000   YZ=              0.0000

 Normal termination of Gaussian 16 at Sat Aug 27 10:14:23 2022.
