 Gaussian 16, Revision A.03,
 Gaussian 16:  ES64L-G16RevA.03 25-Dec-2016

 ------------------
 #p CCSD(T)/cc-pVTZ
 ------------------

 -----------
 H2O_H2O_941
 -----------
 Symbolic Z-matrix:
 Charge =  0 Multiplicity = 1

                         Standard orientation:
 ---------------------------------------------------------------------
 Center     Atomic      Atomic             Coordinates (Angstroms)
 Number     Number       Type             X           Y           Z
 ---------------------------------------------------------------------
      1          8           0        0.049555   -1.264702    0.000000
      2          1           0       -0.751892   -1.833199    0.000000
      3          1           0        0.847241   -1.838464    0.000000
      4          8           0        0.049555    1.321490    0.000000
      5          1           0       -0.042053    2.299812    0.000000
      6          1           0       -0.846180    0.917554    0.000000
 ---------------------------------------------------------------------

 SCF Done:  E(RHF) =  -152.100453245     A.U. after   11 cycles
 E2 =    -0.5288577532D+00 EUMP2 =    -0.15262931099825D+03
 CCSD(T)
 CCSD(T)= -0.15265648053D+03

 The electronic state is 1-A'.
 Alpha  occ. eigenvalues --  -20.54984 -20.53003  -1.32548  -1.30245  -0.69951
 Alpha  occ. eigenvalues --   -0.67980  -0.56217  -0.52730  -0.49685  -0.47260
 Alpha virt. eigenvalues --    0.13737   0.17438   0.20009   0.23712   0.53159
 Alpha virt. eigenvalues --    0.57471   0.58580   0.59300   0.70710   0.75288
 Alpha virt. eigenvalues --    0.77061   0.79370   0.82990   0.83274   0.85067

 Mulliken charges:
               1
     1  O   -0.473130
     2  H    0.231083
     3  H    0.249195
     4  O   -0.474208
     5  H    0.217549
     6  H    0.249512
 Sum of Mulliken charges =  -0.00000

 Dipole moment (field-independent basis, Debye):
    X=             -1.5624    Y=             -1.1208    Z=              0.0000  Tot=              1.9228
 Quadrupole moment (field-independent basis, Debye-Ang):
   XX=             -9.4124   YY=             -3.3290   ZZ=            -14.7238
   XY=             -1.6177   XZ=              0.0000   YZ=              0.0000

 Normal termination of Gaussian 16 at Fri Aug 26 21:22:28 2022.
