 Gaussian 16, Revision A.03,
 Gaussian 16:  ES64L-G16RevA.03 25-Dec-2016

 ------------------
 #p CCSD(T)/cc-pVTZ
 ------------------

 ------------
 H2O_H2O_4016
 ------------
 Symbolic Z-matrix:
 Charge =  0 Multiplicity = 1

                         Standard orientation:
 ---------------------------------------------------------------------
 Center     Atomic      Atomic             Coordinates (Angstroms)
 Number     Number       Type             X           Y           Z
 ---------------------------------------------------------------------
      1          8           0        0.049503   -2.900004    0.000000
      2          1           0       -0.750898   -3.469973    0.000000
      3          1           0        0.848243   -3.472298    0.000000
      4          8           0        0.049503    2.956974    0.000000
      5          1           0       -0.043904    3.935127    0.000000
      6          1           0       -0.845488    2.551392    0.000000
 ---------------------------------------------------------------------

 SCF Done:  E(RHF) =  -152.107208857     A.U. after   10 cycles
 E2 =    -0.5259059729D+00 EUMP2 =    -0.15263311482957D+03
 CCSD(T)
 CCSD(T)= -0.15266033856D+03

 The electronic state is 1-A'.
 Alpha  occ. eigenvalues --  -20.55469 -20.55082  -1.32767  -1.32377  -0.70174
 Alpha  occ. eigenvalues --   -0.69777  -0.56205  -0.55815  -0.49877  -0.49489
 Alpha virt. eigenvalues --    0.14152   0.14608   0.20247   0.20677   0.54385
 Alpha virt. eigenvalues --    0.54803   0.57290   0.57679   0.67908   0.68492
 Alpha virt. eigenvalues --    0.79003   0.79384   0.80436   0.80839   0.82397

 Mulliken charges:
               1
     1  O   -0.507728
     2  H    0.252488
     3  H    0.255243
     4  O   -0.507429
     5  H    0.251355
     6  H    0.256071
 Sum of Mulliken charges =  -0.00000

 Dipole moment (field-independent basis, Debye):
    X=             -1.6992    Y=             -0.9981    Z=              0.0000  Tot=              1.9707
 Quadrupole moment (field-independent basis, Debye-Ang):
   XX=             -9.3455   YY=              7.0152   ZZ=            -14.7117
   XY=             -4.3219   XZ=              0.0000   YZ=              0.0000

 Normal termination of Gaussian 16 at Sat Aug 27 04:54:05 2022.
