 Gaussian 16, Revision A.03,
 Gaussian 16:  ES64L-G16RevA.03 25-Dec-2016

 ------------------
 #p CCSD(T)/cc-pVTZ
 ------------------

 ------------
 H2O_H2O_3470
 ------------
 Symbolic Z-matrix:
 Charge =  0 Multiplicity = 1

                         Standard orientation:
 ---------------------------------------------------------------------
 Center     Atomic      Atomic             Coordinates (Angstroms)
 Number     Number       Type             X           Y           Z
 ---------------------------------------------------------------------
      1          8           0        0.055243   -2.592563    0.000000
      2          1           0       -0.745356   -3.162253    0.000000
      3          1           0        0.853784   -3.165135    0.000000
      4          8           0        0.055243    2.677027    0.000000
      5          1           0       -0.287825    3.597792    0.000000
      6          1           0       -0.704496    2.053888    0.000000
 ---------------------------------------------------------------------

 SCF Done:  E(RHF) =  -152.107527229     A.U. after   10 cycles
 E2 =    -0.5259066730D+00 EUMP2 =    -0.15263343390234D+03
 CCSD(T)
 CCSD(T)= -0.15266064797D+03

 The electronic state is 1-A'.
 Alpha  occ. eigenvalues --  -20.55648 -20.54921  -1.32946  -1.32218  -0.70352
 Alpha  occ. eigenvalues --   -0.69611  -0.56398  -0.55665  -0.50058  -0.49333
 Alpha virt. eigenvalues --    0.13800   0.14920   0.20090   0.20971   0.54174
 Alpha virt. eigenvalues --    0.54913   0.57138   0.57809   0.67270   0.69171
 Alpha virt. eigenvalues --    0.78826   0.79532   0.80190   0.80647   0.82691

 Mulliken charges:
               1
     1  O   -0.509448
     2  H    0.252741
     3  H    0.256803
     4  O   -0.508959
     5  H    0.250554
     6  H    0.258310
 Sum of Mulliken charges =  -0.00000

 Dipole moment (field-independent basis, Debye):
    X=             -1.8921    Y=             -1.4907    Z=              0.0000  Tot=              2.4088
 Quadrupole moment (field-independent basis, Debye-Ang):
   XX=             -9.7229   YY=              3.0517   ZZ=            -14.7127
   XY=             -4.7491   XZ=              0.0000   YZ=              0.0000

 Normal termination of Gaussian 16 at Fri Aug 26 22:36:37 2022.
