 Gaussian 16, Revision A.03,
 Gaussian 16:  ES64L-G16RevA.03 25-Dec-2016

 ------------------
 #p CCSD(T)/cc-pVTZ
 ------------------

 -----------
 H2O_H2O_693
 -----------
 Symbolic Z-matrix:
 Charge =  0 Multiplicity = 1

                         Standard orientation:
 ---------------------------------------------------------------------
 Center     Atomic      Atomic             Coordinates (Angstroms)
 Number     Number       Type             X           Y           Z
 ---------------------------------------------------------------------
      1          8           0        0.052903   -1.124512    0.000000
      2          1           0       -0.748899   -1.692508    0.000000
      3          1           0        0.850231   -1.698772    0.000000
      4          8           0        0.052903    1.194612    0.000000
      5          1           0       -0.165019    2.152743    0.000000
      6          1           0       -0.782768    0.677737    0.000000
 ---------------------------------------------------------------------

 SCF Done:  E(RHF) =  -152.091140618     A.U. after   11 cycles
 E2 =    -0.5311288142D+00 EUMP2 =    -0.15262226943263D+03
 CCSD(T)
 CCSD(T)= -0.15264929220D+03

 The electronic state is 1-A'.
 Alpha  occ. eigenvalues --  -20.55206 -20.52203  -1.33349  -1.29468  -0.70721
 Alpha  occ. eigenvalues --   -0.68211  -0.55864  -0.51849  -0.50383  -0.46435
 Alpha virt. eigenvalues --    0.13573   0.18011   0.19796   0.24586   0.52040
 Alpha virt. eigenvalues --    0.56951   0.59876   0.61313   0.71520   0.74497
 Alpha virt. eigenvalues --    0.78259   0.82930   0.83777   0.84439   0.87521

 Mulliken charges:
               1
     1  O   -0.453503
     2  H    0.223338
     3  H    0.243351
     4  O   -0.469454
     5  H    0.204514
     6  H    0.251754
 Sum of Mulliken charges =  -0.00000

 Dipole moment (field-independent basis, Debye):
    X=             -1.6164    Y=             -1.4372    Z=              0.0000  Tot=              2.1629
 Quadrupole moment (field-independent basis, Debye-Ang):
   XX=             -9.6220   YY=             -4.7364   ZZ=            -14.7181
   XY=             -1.7166   XZ=              0.0000   YZ=              0.0000

 Normal termination of Gaussian 16 at Fri Aug 26 19:09:01 2022.
