 Gaussian 16, Revision A.03,
 Gaussian 16:  ES64L-G16RevA.03 25-Dec-2016

 ------------------
 #p CCSD(T)/cc-pVTZ
 ------------------

 ------------
 H2O_H2O_3660
 ------------
 Symbolic Z-matrix:
 Charge =  0 Multiplicity = 1

                         Standard orientation:
 ---------------------------------------------------------------------
 Center     Atomic      Atomic             Coordinates (Angstroms)
 Number     Number       Type             X           Y           Z
 ---------------------------------------------------------------------
      1          8           0        0.034781   -2.732023    0.000000
      2          1           0       -0.765412   -3.302282    0.000000
      3          1           0        0.833729   -3.304027    0.000000
      4          8           0        0.034781    2.755551    0.000000
      5          1           0        0.322466    3.695096    0.000000
      6          1           0       -0.947281    2.722985    0.000000
 ---------------------------------------------------------------------

 SCF Done:  E(RHF) =  -152.106743430     A.U. after   10 cycles
 E2 =    -0.5259541788D+00 EUMP2 =    -0.15263269760902D+03
 CCSD(T)
 CCSD(T)= -0.15265993086D+03

 The electronic state is 1-A'.
 Alpha  occ. eigenvalues --  -20.55207 -20.55026  -1.32503  -1.32320  -0.69911
 Alpha  occ. eigenvalues --   -0.69723  -0.55919  -0.55737  -0.49609  -0.49427
 Alpha virt. eigenvalues --    0.14342   0.14662   0.20436   0.20665   0.54644
 Alpha virt. eigenvalues --    0.54865   0.57516   0.57703   0.68041   0.68802
 Alpha virt. eigenvalues --    0.79269   0.79448   0.80710   0.80912   0.82662

 Mulliken charges:
               1
     1  O   -0.504975
     2  H    0.251312
     3  H    0.253666
     4  O   -0.504753
     5  H    0.250646
     6  H    0.254104
 Sum of Mulliken charges =  -0.00000

 Dipole moment (field-independent basis, Debye):
    X=             -1.1918    Y=             -0.4130    Z=              0.0000  Tot=              1.2614
 Quadrupole moment (field-independent basis, Debye-Ang):
   XX=             -8.5671   YY=              8.3759   ZZ=            -14.7108
   XY=             -2.4518   XZ=              0.0000   YZ=              0.0000

 Normal termination of Gaussian 16 at Sat Aug 27 02:17:01 2022.
