 Gaussian 16, Revision A.03,
 Gaussian 16:  ES64L-G16RevA.03 25-Dec-2016

 ------------------
 #p CCSD(T)/cc-pVTZ
 ------------------

 ------------
 H2O_H2O_1108
 ------------
 Symbolic Z-matrix:
 Charge =  0 Multiplicity = 1

                         Standard orientation:
 ---------------------------------------------------------------------
 Center     Atomic      Atomic             Coordinates (Angstroms)
 Number     Number       Type             X           Y           Z
 ---------------------------------------------------------------------
      1          8           0        0.028570   -1.380361    0.000000
      2          1           0       -0.772011   -1.950076    0.000000
      3          1           0        0.827128   -1.952909    0.000000
      4          8           0        0.028570    1.395563    0.000000
      5          1           0        0.437038    2.289242    0.000000
      6          1           0       -0.949275    1.492125    0.000000
 ---------------------------------------------------------------------

 SCF Done:  E(RHF) =  -152.099963111     A.U. after   11 cycles
 E2 =    -0.5279918592D+00 EUMP2 =    -0.15262795497066D+03
 CCSD(T)
 CCSD(T)= -0.15265523658D+03

 The electronic state is 1-A'.
 Alpha  occ. eigenvalues --  -20.53935 -20.53518  -1.31386  -1.30750  -0.68786
 Alpha  occ. eigenvalues --   -0.68224  -0.56050  -0.52323  -0.48597  -0.47683
 Alpha virt. eigenvalues --    0.14258   0.17000   0.20457   0.22341   0.52184
 Alpha virt. eigenvalues --    0.58356   0.58660   0.60287   0.69178   0.76574
 Alpha virt. eigenvalues --    0.76917   0.77917   0.81002   0.83252   0.86000

 Mulliken charges:
               1
     1  O   -0.472226
     2  H    0.230697
     3  H    0.241443
     4  O   -0.464446
     5  H    0.225644
     6  H    0.238888
 Sum of Mulliken charges =  -0.00000

 Dipole moment (field-independent basis, Debye):
    X=             -0.9182    Y=             -0.2907    Z=              0.0000  Tot=              0.9631
 Quadrupole moment (field-independent basis, Debye-Ang):
   XX=             -8.4226   YY=             -1.6881   ZZ=            -14.7159
   XY=             -0.6513   XZ=              0.0000   YZ=              0.0000

 Normal termination of Gaussian 16 at Sat Aug 27 02:11:48 2022.
