 Gaussian 16, Revision A.03,
 Gaussian 16:  ES64L-G16RevA.03 25-Dec-2016

 ------------------
 #p CCSD(T)/cc-pVTZ
 ------------------

 ------------
 H2O_H2O_1604
 ------------
 Symbolic Z-matrix:
 Charge =  0 Multiplicity = 1

                         Standard orientation:
 ---------------------------------------------------------------------
 Center     Atomic      Atomic             Coordinates (Angstroms)
 Number     Number       Type             X           Y           Z
 ---------------------------------------------------------------------
      1          8           0        0.014783   -1.652435    0.000000
      2          1           0       -0.785227   -2.222952    0.000000
      3          1           0        0.813915   -2.224182    0.000000
      4          8           0        0.014783    1.656305    0.000000
      5          1           0        0.639874    2.414440    0.000000
      6          1           0       -0.905098    2.001739    0.000000
 ---------------------------------------------------------------------

 SCF Done:  E(RHF) =  -152.103396354     A.U. after   10 cycles
 E2 =    -0.5268861751D+00 EUMP2 =    -0.15263028252909D+03
 CCSD(T)
 CCSD(T)= -0.15265754771D+03

 The electronic state is 1-A'.
 Alpha  occ. eigenvalues --  -20.54201 -20.54119  -1.31508  -1.31376  -0.68931
 Alpha  occ. eigenvalues --   -0.68808  -0.55397  -0.53922  -0.48660  -0.48402
 Alpha virt. eigenvalues --    0.14254   0.16337   0.20563   0.21622   0.52722
 Alpha virt. eigenvalues --    0.57984   0.58137   0.58562   0.62631   0.76300
 Alpha virt. eigenvalues --    0.78563   0.78696   0.79853   0.81777   0.85075

 Mulliken charges:
               1
     1  O   -0.480792
     2  H    0.238572
     3  H    0.242384
     4  O   -0.480532
     5  H    0.238192
     6  H    0.242176
 Sum of Mulliken charges =  -0.00000

 Dipole moment (field-independent basis, Debye):
    X=             -0.4905    Y=             -0.0724    Z=              0.0000  Tot=              0.4958
 Quadrupole moment (field-independent basis, Debye-Ang):
   XX=             -8.0050   YY=              0.8489   ZZ=            -14.7091
   XY=             -0.4120   XZ=              0.0000   YZ=              0.0000

 Normal termination of Gaussian 16 at Sat Aug 27 05:43:31 2022.
