 Gaussian 16, Revision A.03,
 Gaussian 16:  ES64L-G16RevA.03 25-Dec-2016

 ------------------
 #p CCSD(T)/cc-pVTZ
 ------------------

 -----------
 H2O_H2O_224
 -----------
 Symbolic Z-matrix:
 Charge =  0 Multiplicity = 1

                         Standard orientation:
 ---------------------------------------------------------------------
 Center     Atomic      Atomic             Coordinates (Angstroms)
 Number     Number       Type             X           Y           Z
 ---------------------------------------------------------------------
      1          8           0        0.057423   -0.848261    0.000000
      2          1           0       -0.745239   -1.415041    0.000000
      3          1           0        0.853879   -1.423728    0.000000
      4          8           0        0.057423    0.961865    0.000000
      5          1           0       -0.509358    1.764528    0.000000
      6          1           0       -0.518044    0.165408    0.000000
 ---------------------------------------------------------------------

 SCF Done:  E(RHF) =  -151.965727296     A.U. after   11 cycles
 E2 =    -0.5451495605D+00 EUMP2 =    -0.15251087685686D+03
 CCSD(T)
 CCSD(T)= -0.15253569791D+03

 The electronic state is 1-A'.
 Alpha  occ. eigenvalues --  -20.57959 -20.46204  -1.42056  -1.25310  -0.79746
 Alpha  occ. eigenvalues --   -0.73446  -0.56124  -0.49702  -0.45389  -0.42071
 Alpha virt. eigenvalues --    0.12218   0.17660   0.20706   0.27906   0.48113
 Alpha virt. eigenvalues --    0.52937   0.63789   0.70063   0.73896   0.74232
 Alpha virt. eigenvalues --    0.77327   0.78202   0.84280   0.85761   0.88746

 Mulliken charges:
               1
     1  O   -0.294093
     2  H    0.186120
     3  H    0.232539
     4  O   -0.563229
     5  H    0.159586
     6  H    0.279077
 Sum of Mulliken charges =  -0.00000

 Dipole moment (field-independent basis, Debye):
    X=             -1.5440    Y=             -3.1346    Z=              0.0000  Tot=              3.4942
 Quadrupole moment (field-independent basis, Debye-Ang):
   XX=             -9.7981   YY=             -8.4682   ZZ=            -14.5396
   XY=             -2.0960   XZ=              0.0000   YZ=              0.0000

 Normal termination of Gaussian 16 at Fri Aug 26 14:14:14 2022.
