 Gaussian 16, Revision A.03,
 Gaussian 16:  ES64L-G16RevA.03 25-Dec-2016

 ------------------
 #p CCSD(T)/cc-pVTZ
 ------------------

 ------------
 H2O_H2O_1173
 ------------
 Symbolic Z-matrix:
 Charge =  0 Multiplicity = 1

                         Standard orientation:
 ---------------------------------------------------------------------
 Center     Atomic      Atomic             Coordinates (Angstroms)
 Number     Number       Type             X           Y           Z
 ---------------------------------------------------------------------
      1          8           0        0.057176   -1.357445    0.000000
      2          1           0       -0.744376   -1.925793    0.000000
      3          1           0        0.854756   -1.931354    0.000000
      4          8           0        0.057176    1.463803    0.000000
      5          1           0       -0.457531    2.300812    0.000000
      6          1           0       -0.567669    0.705467    0.000000
 ---------------------------------------------------------------------

 SCF Done:  E(RHF) =  -152.108153245     A.U. after   10 cycles
 E2 =    -0.5282152098D+00 EUMP2 =    -0.15263636845516D+03
 CCSD(T)
 CCSD(T)= -0.15266339619D+03

 The electronic state is 1-A'.
 Alpha  occ. eigenvalues --  -20.56723 -20.52740  -1.34147  -1.30116  -0.71520
 Alpha  occ. eigenvalues --   -0.67994  -0.57196  -0.53640  -0.51239  -0.47233
 Alpha virt. eigenvalues --    0.12967   0.17663   0.19482   0.26096   0.51433
 Alpha virt. eigenvalues --    0.56224   0.57495   0.59605   0.70053   0.74287
 Alpha virt. eigenvalues --    0.74398   0.79070   0.82345   0.83871   0.84261

 Mulliken charges:
               1
     1  O   -0.485270
     2  H    0.243338
     3  H    0.259383
     4  O   -0.517109
     5  H    0.232109
     6  H    0.267549
 Sum of Mulliken charges =  -0.00000

 Dipole moment (field-independent basis, Debye):
    X=             -1.8459    Y=             -2.1604    Z=              0.0000  Tot=              2.8416
 Quadrupole moment (field-independent basis, Debye-Ang):
   XX=             -9.8525   YY=             -4.3480   ZZ=            -14.7270
   XY=             -2.9733   XZ=              0.0000   YZ=              0.0000

 Normal termination of Gaussian 16 at Sat Aug 27 02:43:35 2022.
