 Gaussian 16, Revision A.03,
 Gaussian 16:  ES64L-G16RevA.03 25-Dec-2016

 ------------------
 #p CCSD(T)/cc-pVTZ
 ------------------

 ------------
 H2O_H2O_2636
 ------------
 Symbolic Z-matrix:
 Charge =  0 Multiplicity = 1

                         Standard orientation:
 ---------------------------------------------------------------------
 Center     Atomic      Atomic             Coordinates (Angstroms)
 Number     Number       Type             X           Y           Z
 ---------------------------------------------------------------------
      1          8           0        0.037678   -2.184334    0.000000
      2          1           0       -0.762734   -2.754286    0.000000
      3          1           0        0.836406   -2.756644    0.000000
      4          8           0        0.037678    2.212569    0.000000
      5          1           0        0.263664    3.168831    0.000000
      6          1           0       -0.940189    2.116217    0.000000
 ---------------------------------------------------------------------

 SCF Done:  E(RHF) =  -152.106249103     A.U. after   10 cycles
 E2 =    -0.5260972091D+00 EUMP2 =    -0.15263234631253D+03
 CCSD(T)
 CCSD(T)= -0.15265958071D+03

 The electronic state is 1-A'.
 Alpha  occ. eigenvalues --  -20.55044 -20.54693  -1.32334  -1.31980  -0.69746
 Alpha  occ. eigenvalues --   -0.69379  -0.55726  -0.55361  -0.49437  -0.49086
 Alpha virt. eigenvalues --    0.13995   0.15350   0.20410   0.21104   0.54329
 Alpha virt. eigenvalues --    0.55250   0.57639   0.57979   0.65534   0.72533
 Alpha virt. eigenvalues --    0.79394   0.79826   0.80689   0.81391   0.82662

 Mulliken charges:
               1
     1  O   -0.501534
     2  H    0.248505
     3  H    0.253195
     4  O   -0.501134
     5  H    0.247217
     6  H    0.253752
 Sum of Mulliken charges =  -0.00000

 Dipole moment (field-independent basis, Debye):
    X=             -1.2807    Y=             -0.5050    Z=              0.0000  Tot=              1.3767
 Quadrupole moment (field-independent basis, Debye-Ang):
   XX=             -8.7067   YY=              4.1797   ZZ=            -14.7108
   XY=             -2.0182   XZ=              0.0000   YZ=              0.0000

 Normal termination of Gaussian 16 at Fri Aug 26 14:35:19 2022.
