 Gaussian 16, Revision A.03,
 Gaussian 16:  ES64L-G16RevA.03 25-Dec-2016

 ------------------
 #p CCSD(T)/cc-pVTZ
 ------------------

 ------------
 H2O_H2O_4289
 ------------
 Symbolic Z-matrix:
 Charge =  0 Multiplicity = 1

                         Standard orientation:
 ---------------------------------------------------------------------
 Center     Atomic      Atomic             Coordinates (Angstroms)
 Number     Number       Type             X           Y           Z
 ---------------------------------------------------------------------
      1          8           0        0.045339   -3.052991    0.000000
      2          1           0       -0.754955   -3.623109    0.000000
      3          1           0        0.844185   -3.625137    0.000000
      4          8           0        0.045339    3.097566    0.000000
      5          1           0        0.080224    4.079548    0.000000
      6          1           0       -0.894882    2.812099    0.000000
 ---------------------------------------------------------------------

 SCF Done:  E(RHF) =  -152.107136174     A.U. after   10 cycles
 E2 =    -0.5259062281D+00 EUMP2 =    -0.15263304240246D+03
 CCSD(T)
 CCSD(T)= -0.15266026810D+03

 The electronic state is 1-A'.
 Alpha  occ. eigenvalues --  -20.55415 -20.55142  -1.32712  -1.32438  -0.70119
 Alpha  occ. eigenvalues --   -0.69839  -0.56147  -0.55872  -0.49822  -0.49548
 Alpha virt. eigenvalues --    0.14228   0.14521   0.20297   0.20591   0.54445
 Alpha virt. eigenvalues --    0.54739   0.57340   0.57615   0.68038   0.68367
 Alpha virt. eigenvalues --    0.79058   0.79327   0.80494   0.80788   0.82424

 Mulliken charges:
               1
     1  O   -0.507284
     2  H    0.252540
     3  H    0.254744
     4  O   -0.507078
     5  H    0.251732
     6  H    0.255345
 Sum of Mulliken charges =   0.00000

 Dipole moment (field-independent basis, Debye):
    X=             -1.5575    Y=             -0.7792    Z=              0.0000  Tot=              1.7415
 Quadrupole moment (field-independent basis, Debye-Ang):
   XX=             -9.0969   YY=              9.0015   ZZ=            -14.7114
   XY=             -4.0080   XZ=              0.0000   YZ=              0.0000

 Normal termination of Gaussian 16 at Sat Aug 27 06:28:20 2022.
