 Gaussian 16, Revision A.03,
 Gaussian 16:  ES64L-G16RevA.03 25-Dec-2016

 ------------------
 #p CCSD(T)/cc-pVTZ
 ------------------

 ------------
 H2O_H2O_3614
 ------------
 Symbolic Z-matrix:
 Charge =  0 Multiplicity = 1

                         Standard orientation:
 ---------------------------------------------------------------------
 Center     Atomic      Atomic             Coordinates (Angstroms)
 Number     Number       Type             X           Y           Z
 ---------------------------------------------------------------------
      1          8           0        0.045343   -2.694009    0.000000
      2          1           0       -0.755047   -3.263993    0.000000
      3          1           0        0.844093   -3.266289    0.000000
      4          8           0        0.045343    2.738569    0.000000
      5          1           0        0.080392    3.720546    0.000000
      6          1           0       -0.894926    2.453259    0.000000
 ---------------------------------------------------------------------

 SCF Done:  E(RHF) =  -152.106986611     A.U. after   10 cycles
 E2 =    -0.5259372080D+00 EUMP2 =    -0.15263292381905D+03
 CCSD(T)
 CCSD(T)= -0.15266015149D+03

 The electronic state is 1-A'.
 Alpha  occ. eigenvalues --  -20.55353 -20.54999  -1.32649  -1.32293  -0.70057
 Alpha  occ. eigenvalues --   -0.69692  -0.56077  -0.55720  -0.49758  -0.49403
 Alpha virt. eigenvalues --    0.14184   0.14728   0.20318   0.20747   0.54490
 Alpha virt. eigenvalues --    0.54892   0.57388   0.57742   0.67824   0.68862
 Alpha virt. eigenvalues --    0.79122   0.79470   0.80552   0.80914   0.82569

 Mulliken charges:
               1
     1  O   -0.506419
     2  H    0.251639
     3  H    0.254792
     4  O   -0.506071
     5  H    0.250506
     6  H    0.255554
 Sum of Mulliken charges =  -0.00000

 Dipole moment (field-independent basis, Debye):
    X=             -1.5537    Y=             -0.7833    Z=              0.0000  Tot=              1.7400
 Quadrupole moment (field-independent basis, Debye-Ang):
   XX=             -9.0979   YY=              6.6833   ZZ=            -14.7113
   XY=             -3.4544   XZ=              0.0000   YZ=              0.0000

 Normal termination of Gaussian 16 at Sat Aug 27 01:54:34 2022.
