 Gaussian 16, Revision A.03,
 Gaussian 16:  ES64L-G16RevA.03 25-Dec-2016

 ------------------
 #p CCSD(T)/cc-pVTZ
 ------------------

 -----------
 H2O_H2O_700
 -----------
 Symbolic Z-matrix:
 Charge =  0 Multiplicity = 1

                         Standard orientation:
 ---------------------------------------------------------------------
 Center     Atomic      Atomic             Coordinates (Angstroms)
 Number     Number       Type             X           Y           Z
 ---------------------------------------------------------------------
      1          8           0        0.000000   -0.000000    1.175885
      2          1           0        0.000000    0.799571    1.747017
      3          1           0       -0.000000   -0.799571    1.747017
      4          8           0        0.000000   -0.000000   -1.175885
      5          1           0       -0.000000   -0.799571   -1.747017
      6          1           0        0.000000    0.799571   -1.747017
 ---------------------------------------------------------------------

 SCF Done:  E(RHF) =  -152.085524829     A.U. after   10 cycles
 E2 =    -0.5302855878D+00 EUMP2 =    -0.15261581041656D+03
 CCSD(T)
 CCSD(T)= -0.15264306168D+03

 The electronic state is 1-AG.
 Alpha  occ. eigenvalues --  -20.52726 -20.52725  -1.31051  -1.29729  -0.68223
 Alpha  occ. eigenvalues --   -0.67367  -0.57835  -0.48586  -0.48367  -0.46397
 Alpha virt. eigenvalues --    0.14553   0.17775   0.20579   0.22464   0.50184
 Alpha virt. eigenvalues --    0.58984   0.58985   0.64193   0.72771   0.76785
 Alpha virt. eigenvalues --    0.77618   0.80339   0.84229   0.86606   0.86748

 Mulliken charges:
               1
     1  O   -0.453679
     2  H    0.226840
     3  H    0.226840
     4  O   -0.453679
     5  H    0.226840
     6  H    0.226840
 Sum of Mulliken charges =  -0.00000

 Dipole moment (field-independent basis, Debye):
    X=             -0.0000    Y=              0.0000    Z=              0.0000  Tot=              0.0000
 Quadrupole moment (field-independent basis, Debye-Ang):
   XX=            -14.7334   YY=             -8.0213   ZZ=             -3.6349
   XY=              0.0000   XZ=             -0.0000   YZ=             -0.0000

 \MP4DQ=-152.6241713\MP4SDQ=-152.6274689\CCSD=-152.6267959\CCSD(T)=-152
 Normal termination of Gaussian 16 at Fri Aug 26 19:12:58 2022.
