 Gaussian 16, Revision A.03,
 Gaussian 16:  ES64L-G16RevA.03 25-Dec-2016

 ------------------
 #p CCSD(T)/cc-pVTZ
 ------------------

 ------------
 H2O_H2O_1193
 ------------
 Symbolic Z-matrix:
 Charge =  0 Multiplicity = 1

                         Standard orientation:
 ---------------------------------------------------------------------
 Center     Atomic      Atomic             Coordinates (Angstroms)
 Number     Number       Type             X           Y           Z
 ---------------------------------------------------------------------
      1          8           0        0.052878   -1.390390    0.000000
      2          1           0       -0.748509   -1.958971    0.000000
      3          1           0        0.850625   -1.964067    0.000000
      4          8           0        0.052878    1.460567    0.000000
      5          1           0       -0.165745    2.418540    0.000000
      6          1           0       -0.782416    0.943081    0.000000
 ---------------------------------------------------------------------

 SCF Done:  E(RHF) =  -152.105324395     A.U. after   10 cycles
 E2 =    -0.5278242795D+00 EUMP2 =    -0.15263314867481D+03
 CCSD(T)
 CCSD(T)= -0.15266029967D+03

 The electronic state is 1-A'.
 Alpha  occ. eigenvalues --  -20.55548 -20.53305  -1.32920  -1.30570  -0.70336
 Alpha  occ. eigenvalues --   -0.68108  -0.56264  -0.53795  -0.50037  -0.47664
 Alpha virt. eigenvalues --    0.13510   0.17210   0.19893   0.23877   0.53353
 Alpha virt. eigenvalues --    0.57019   0.57249   0.58576   0.69281   0.75419
 Alpha virt. eigenvalues --    0.75760   0.77786   0.81027   0.82461   0.84769

 Mulliken charges:
               1
     1  O   -0.481936
     2  H    0.237034
     3  H    0.253680
     4  O   -0.491665
     5  H    0.228129
     6  H    0.254756
 Sum of Mulliken charges =  -0.00000

 Dipole moment (field-independent basis, Debye):
    X=             -1.7057    Y=             -1.3741    Z=              0.0000  Tot=              2.1904
 Quadrupole moment (field-independent basis, Debye-Ang):
   XX=             -9.5910   YY=             -2.7863   ZZ=            -14.7229
   XY=             -2.1743   XZ=              0.0000   YZ=              0.0000

 Normal termination of Gaussian 16 at Sat Aug 27 02:52:40 2022.
