 Gaussian 16, Revision A.03,
 Gaussian 16:  ES64L-G16RevA.03 25-Dec-2016

 ------------------
 #p CCSD(T)/cc-pVTZ
 ------------------

 -----------
 H2O_H2O_556
 -----------
 Symbolic Z-matrix:
 Charge =  0 Multiplicity = 1

                         Standard orientation:
 ---------------------------------------------------------------------
 Center     Atomic      Atomic             Coordinates (Angstroms)
 Number     Number       Type             X           Y           Z
 ---------------------------------------------------------------------
      1          8           0        0.021864   -1.091426    0.000000
      2          1           0       -0.778687   -1.661184    0.000000
      3          1           0        0.820453   -1.663930    0.000000
      4          8           0        0.021864    1.100046    0.000000
      5          1           0        0.543439    1.932792    0.000000
      6          1           0       -0.935024    1.323364    0.000000
 ---------------------------------------------------------------------

 SCF Done:  E(RHF) =  -152.075792244     A.U. after   11 cycles
 E2 =    -0.5319756258D+00 EUMP2 =    -0.15260776786933D+03
 CCSD(T)
 CCSD(T)= -0.15263488084D+03

 The electronic state is 1-A'.
 Alpha  occ. eigenvalues --  -20.52639 -20.52366  -1.31462  -1.29307  -0.68504
 Alpha  occ. eigenvalues --   -0.67150  -0.58774  -0.48755  -0.47131  -0.45906
 Alpha virt. eigenvalues --    0.14523   0.17916   0.20481   0.22823   0.51242
 Alpha virt. eigenvalues --    0.58796   0.58845   0.64374   0.70640   0.76939
 Alpha virt. eigenvalues --    0.77814   0.81705   0.84127   0.86492   0.87260

 Mulliken charges:
               1
     1  O   -0.450868
     2  H    0.218470
     3  H    0.230550
     4  O   -0.435194
     5  H    0.204001
     6  H    0.233042
 Sum of Mulliken charges =  -0.00000

 Dipole moment (field-independent basis, Debye):
    X=             -0.6569    Y=             -0.1734    Z=              0.0000  Tot=              0.6794
 Quadrupole moment (field-independent basis, Debye-Ang):
   XX=             -8.3456   YY=             -4.5564   ZZ=            -14.7384
   XY=             -0.2745   XZ=              0.0000   YZ=              0.0000

 Normal termination of Gaussian 16 at Fri Aug 26 17:36:48 2022.
