 Gaussian 16, Revision A.03,
 Gaussian 16:  ES64L-G16RevA.03 25-Dec-2016

 ------------------
 #p CCSD(T)/cc-pVTZ
 ------------------

 -----------
 H2O_H2O_754
 -----------
 Symbolic Z-matrix:
 Charge =  0 Multiplicity = 1

                         Standard orientation:
 ---------------------------------------------------------------------
 Center     Atomic      Atomic             Coordinates (Angstroms)
 Number     Number       Type             X           Y           Z
 ---------------------------------------------------------------------
      1          8           0        0.014784   -1.200379    0.000000
      2          1           0       -0.785391   -1.770664    0.000000
      3          1           0        0.813750   -1.772357    0.000000
      4          8           0        0.014784    1.204240    0.000000
      5          1           0        0.640094    1.962194    0.000000
      6          1           0       -0.904998    1.549940    0.000000
 ---------------------------------------------------------------------

 SCF Done:  E(RHF) =  -152.088835066     A.U. after   11 cycles
 E2 =    -0.5298515308D+00 EUMP2 =    -0.15261868659717D+03
 CCSD(T)
 CCSD(T)= -0.15264595203D+03

 The electronic state is 1-A'.
 Alpha  occ. eigenvalues --  -20.52977 -20.52861  -1.31095  -1.29920  -0.68324
 Alpha  occ. eigenvalues --   -0.67544  -0.57452  -0.49313  -0.48402  -0.46632
 Alpha virt. eigenvalues --    0.14500   0.17620   0.20553   0.22492   0.50692
 Alpha virt. eigenvalues --    0.58846   0.58930   0.63487   0.72261   0.76650
 Alpha virt. eigenvalues --    0.77125   0.80212   0.84084   0.86510   0.86760

 Mulliken charges:
               1
     1  O   -0.458185
     2  H    0.225063
     3  H    0.232265
     4  O   -0.452358
     5  H    0.220739
     6  H    0.232477
 Sum of Mulliken charges =  -0.00000

 Dipole moment (field-independent basis, Debye):
    X=             -0.4580    Y=             -0.0754    Z=              0.0000  Tot=              0.4642
 Quadrupole moment (field-independent basis, Debye-Ang):
   XX=             -8.1352   YY=             -3.3646   ZZ=            -14.7294
   XY=             -0.2057   XZ=              0.0000   YZ=              0.0000

 50345\MP4DQ=-152.6271358\MP4SDQ=-152.630412\CCSD=-152.6297462\CCSD(T)=
 Normal termination of Gaussian 16 at Fri Aug 26 19:41:57 2022.
