 Gaussian 16, Revision A.03,
 Gaussian 16:  ES64L-G16RevA.03 25-Dec-2016

 ------------------
 #p CCSD(T)/cc-pVTZ
 ------------------

 ------------
 H2O_H2O_4402
 ------------
 Symbolic Z-matrix:
 Charge =  0 Multiplicity = 1

                         Standard orientation:
 ---------------------------------------------------------------------
 Center     Atomic      Atomic             Coordinates (Angstroms)
 Number     Number       Type             X           Y           Z
 ---------------------------------------------------------------------
      1          8           0        0.007455   -3.143150    0.000000
      2          1           0       -0.792233   -3.714119    0.000000
      3          1           0        0.806909   -3.714445    0.000000
      4          8           0        0.007455    3.144124    0.000000
      5          1           0        0.725775    3.814589    0.000000
      6          1           0       -0.859730    3.606182    0.000000
 ---------------------------------------------------------------------

 SCF Done:  E(RHF) =  -152.106811190     A.U. after   10 cycles
 E2 =    -0.5259312247D+00 EUMP2 =    -0.15263274241516D+03
 CCSD(T)
 CCSD(T)= -0.15265997525D+03

 The electronic state is 1-A'.
 Alpha  occ. eigenvalues --  -20.55188 -20.55182  -1.32484  -1.32478  -0.69891
 Alpha  occ. eigenvalues --   -0.69885  -0.55903  -0.55898  -0.49591  -0.49585
 Alpha virt. eigenvalues --    0.14429   0.14457   0.20480   0.20494   0.54677
 Alpha virt. eigenvalues --    0.54686   0.57542   0.57551   0.68305   0.68366
 Alpha virt. eigenvalues --    0.79288   0.79294   0.80732   0.80738   0.82660

 Mulliken charges:
               1
     1  O   -0.505344
     2  H    0.252500
     3  H    0.252843
     4  O   -0.505338
     5  H    0.252429
     6  H    0.252908
 Sum of Mulliken charges =  -0.00000

 Dipole moment (field-independent basis, Debye):
    X=             -0.2561    Y=             -0.0170    Z=              0.0000  Tot=              0.2567
 Quadrupole moment (field-independent basis, Debye-Ang):
   XX=             -7.8381   YY=             13.0411   ZZ=            -14.7106
   XY=             -0.5738   XZ=              0.0000   YZ=              0.0000

 Normal termination of Gaussian 16 at Sat Aug 27 07:07:30 2022.
