 Gaussian 16, Revision A.03,
 Gaussian 16:  ES64L-G16RevA.03 25-Dec-2016

 ------------------
 #p CCSD(T)/cc-pVTZ
 ------------------

 ------------
 H2O_H2O_4548
 ------------
 Symbolic Z-matrix:
 Charge =  0 Multiplicity = 1

                         Standard orientation:
 ---------------------------------------------------------------------
 Center     Atomic      Atomic             Coordinates (Angstroms)
 Number     Number       Type             X           Y           Z
 ---------------------------------------------------------------------
      1          8           0        0.057073   -3.152277    0.000000
      2          1           0       -0.743372   -3.722184    0.000000
      3          1           0        0.855769   -3.724632    0.000000
      4          8           0        0.057073    3.258858    0.000000
      5          1           0       -0.459264    4.094862    0.000000
      6          1           0       -0.566295    2.499305    0.000000
 ---------------------------------------------------------------------

 SCF Done:  E(RHF) =  -152.107647067     A.U. after   10 cycles
 E2 =    -0.5258573400D+00 EUMP2 =    -0.15263350440740D+03
 CCSD(T)
 CCSD(T)= -0.15266071949D+03

 The electronic state is 1-A'.
 Alpha  occ. eigenvalues --  -20.55746 -20.55152  -1.33046  -1.32452  -0.70452
 Alpha  occ. eigenvalues --   -0.69851  -0.56504  -0.55905  -0.50159  -0.49567
 Alpha virt. eigenvalues --    0.13937   0.14551   0.20036   0.20672   0.54107
 Alpha virt. eigenvalues --    0.54719   0.57047   0.57639   0.67642   0.68303
 Alpha virt. eigenvalues --    0.78721   0.79304   0.80147   0.80762   0.82093

 Mulliken charges:
               1
     1  O   -0.510308
     2  H    0.254024
     3  H    0.256286
     4  O   -0.509953
     5  H    0.252521
     6  H    0.257431
 Sum of Mulliken charges =   0.00000

 Dipole moment (field-independent basis, Debye):
    X=             -1.9622    Y=             -1.8619    Z=              0.0000  Tot=              2.7049
 Quadrupole moment (field-independent basis, Debye-Ang):
   XX=             -9.8552   YY=              3.5462   ZZ=            -14.7126
   XY=             -6.4140   XZ=              0.0000   YZ=              0.0000

 Normal termination of Gaussian 16 at Sat Aug 27 07:56:55 2022.
