 Gaussian 16, Revision A.03,
 Gaussian 16:  ES64L-G16RevA.03 25-Dec-2016

 ------------------
 #p CCSD(T)/cc-pVTZ
 ------------------

 ------------
 H2O_H2O_2377
 ------------
 Symbolic Z-matrix:
 Charge =  0 Multiplicity = 1

                         Standard orientation:
 ---------------------------------------------------------------------
 Center     Atomic      Atomic             Coordinates (Angstroms)
 Number     Number       Type             X           Y           Z
 ---------------------------------------------------------------------
      1          8           0        0.007455   -2.066182    0.000000
      2          1           0       -0.792293   -2.637066    0.000000
      3          1           0        0.806849   -2.637562    0.000000
      4          8           0        0.007455    2.067155    0.000000
      5          1           0        0.725846    2.737543    0.000000
      6          1           0       -0.859681    2.529304    0.000000
 ---------------------------------------------------------------------

 SCF Done:  E(RHF) =  -152.105309998     A.U. after   10 cycles
 E2 =    -0.5262286831D+00 EUMP2 =    -0.15263153868132D+03
 CCSD(T)
 CCSD(T)= -0.15265878839D+03

 The electronic state is 1-A'.
 Alpha  occ. eigenvalues --  -20.54632 -20.54619  -1.31919  -1.31903  -0.69336
 Alpha  occ. eigenvalues --   -0.69318  -0.55380  -0.55106  -0.49027  -0.48990
 Alpha virt. eigenvalues --    0.14242   0.15486   0.20633   0.21043   0.54526
 Alpha virt. eigenvalues --    0.55939   0.57873   0.58093   0.63216   0.74008
 Alpha virt. eigenvalues --    0.79586   0.80128   0.81010   0.81432   0.81775

 Mulliken charges:
               1
     1  O   -0.495734
     2  H    0.247329
     3  H    0.248414
     4  O   -0.495699
     5  H    0.247193
     6  H    0.248497
 Sum of Mulliken charges =  -0.00000

 Dipole moment (field-independent basis, Debye):
    X=             -0.2525    Y=             -0.0175    Z=              0.0000  Tot=              0.2531
 Quadrupole moment (field-independent basis, Debye-Ang):
   XX=             -7.8664   YY=              4.3683   ZZ=            -14.7094
   XY=             -0.3028   XZ=              0.0000   YZ=              0.0000

 2093\MP4DQ=-152.6406273\MP4SDQ=-152.6437069\CCSD=-152.64311\CCSD(T)=-1
 Normal termination of Gaussian 16 at Sat Aug 27 10:13:25 2022.
