 Gaussian 16, Revision A.03,
 Gaussian 16:  ES64L-G16RevA.03 25-Dec-2016

 ------------------
 #p CCSD(T)/cc-pVTZ
 ------------------

 ------------
 H2O_H2O_1531
 ------------
 Symbolic Z-matrix:
 Charge =  0 Multiplicity = 1

                         Standard orientation:
 ---------------------------------------------------------------------
 Center     Atomic      Atomic             Coordinates (Angstroms)
 Number     Number       Type             X           Y           Z
 ---------------------------------------------------------------------
      1          8           0        0.021861   -1.609954    0.000000
      2          1           0       -0.778375   -2.180154    0.000000
      3          1           0        0.820766   -2.182018    0.000000
      4          8           0        0.021861    1.618598    0.000000
      5          1           0        0.542978    2.451631    0.000000
      6          1           0       -0.935150    1.841389    0.000000
 ---------------------------------------------------------------------

 SCF Done:  E(RHF) =  -152.103279650     A.U. after   10 cycles
 E2 =    -0.5269924123D+00 EUMP2 =    -0.15263027206184D+03
 CCSD(T)
 CCSD(T)= -0.15265753564D+03

 The electronic state is 1-A'.
 Alpha  occ. eigenvalues --  -20.54233 -20.54041  -1.31538  -1.31301  -0.68963
 Alpha  occ. eigenvalues --   -0.68728  -0.55469  -0.53801  -0.48686  -0.48332
 Alpha virt. eigenvalues --    0.14213   0.16440   0.20520   0.21758   0.52594
 Alpha virt. eigenvalues --    0.57869   0.58165   0.58660   0.63725   0.76709
 Alpha virt. eigenvalues --    0.78312   0.78533   0.79562   0.81986   0.85622

 Mulliken charges:
               1
     1  O   -0.479948
     2  H    0.237147
     3  H    0.243169
     4  O   -0.479071
     5  H    0.236116
     6  H    0.242587
 Sum of Mulliken charges =  -0.00000

 Dipole moment (field-independent basis, Debye):
    X=             -0.7227    Y=             -0.1622    Z=              0.0000  Tot=              0.7406
 Quadrupole moment (field-independent basis, Debye-Ang):
   XX=             -8.1697   YY=              0.3979   ZZ=            -14.7098
   XY=             -0.6129   XZ=              0.0000   YZ=              0.0000

 Normal termination of Gaussian 16 at Sat Aug 27 05:18:44 2022.
