 Gaussian 16, Revision A.03,
 Gaussian 16:  ES64L-G16RevA.03 25-Dec-2016

 ------------------
 #p CCSD(T)/cc-pVTZ
 ------------------

 ------------
 H2O_H2O_4550
 ------------
 Symbolic Z-matrix:
 Charge =  0 Multiplicity = 1

                         Standard orientation:
 ---------------------------------------------------------------------
 Center     Atomic      Atomic             Coordinates (Angstroms)
 Number     Number       Type             X           Y           Z
 ---------------------------------------------------------------------
      1          8           0        0.000000   -0.000000    3.223455
      2          1           0        0.000000    0.799571    3.794587
      3          1           0       -0.000000   -0.799571    3.794587
      4          8           0        0.000000   -0.000000   -3.223455
      5          1           0       -0.000000   -0.799571   -3.794587
      6          1           0        0.000000    0.799571   -3.794587
 ---------------------------------------------------------------------

 SCF Done:  E(RHF) =  -152.106852930     A.U. after   10 cycles
 E2 =    -0.5259257444D+00 EUMP2 =    -0.15263277867475D+03
 CCSD(T)
 CCSD(T)= -0.15266001073D+03

 The electronic state is 1-AG.
 Alpha  occ. eigenvalues --  -20.55206 -20.55206  -1.32502  -1.32502  -0.69909
 Alpha  occ. eigenvalues --   -0.69909  -0.55923  -0.55923  -0.49609  -0.49609
 Alpha virt. eigenvalues --    0.14417   0.14435   0.20468   0.20476   0.54658
 Alpha virt. eigenvalues --    0.54663   0.57527   0.57532   0.68292   0.68328
 Alpha virt. eigenvalues --    0.79270   0.79270   0.80713   0.80714   0.82640

 Mulliken charges:
               1
     1  O   -0.505588
     2  H    0.252794
     3  H    0.252794
     4  O   -0.505588
     5  H    0.252794
     6  H    0.252794
 Sum of Mulliken charges =   0.00000

 Dipole moment (field-independent basis, Debye):
    X=             -0.0000    Y=              0.0000    Z=              0.0000  Tot=              0.0000
 Quadrupole moment (field-independent basis, Debye-Ang):
   XX=            -14.7107   YY=             -7.8023   ZZ=             13.7532
   XY=              0.0000   XZ=              0.0000   YZ=             -0.0000

 2\MP4DQ=-152.641905\MP4SDQ=-152.6449647\CCSD=-152.6443765\CCSD(T)=-152
 Normal termination of Gaussian 16 at Sat Aug 27 07:57:37 2022.
