 Gaussian 16, Revision A.03,
 Gaussian 16:  ES64L-G16RevA.03 25-Dec-2016

 ------------------
 #p CCSD(T)/cc-pVTZ
 ------------------

 ------------
 H2O_H2O_3555
 ------------
 Symbolic Z-matrix:
 Charge =  0 Multiplicity = 1

                         Standard orientation:
 ---------------------------------------------------------------------
 Center     Atomic      Atomic             Coordinates (Angstroms)
 Number     Number       Type             X           Y           Z
 ---------------------------------------------------------------------
      1          8           0        0.018360   -2.688337    0.000000
      2          1           0       -0.781546   -3.259000    0.000000
      3          1           0        0.817596   -3.259939    0.000000
      4          8           0        0.018360    2.694378    0.000000
      5          1           0        0.592383    3.491877    0.000000
      6          1           0       -0.922195    2.978739    0.000000
 ---------------------------------------------------------------------

 SCF Done:  E(RHF) =  -152.106481572     A.U. after   10 cycles
 E2 =    -0.5259785141D+00 EUMP2 =    -0.15263246008633D+03
 CCSD(T)
 CCSD(T)= -0.15265969885D+03

 The electronic state is 1-A'.
 Alpha  occ. eigenvalues --  -20.55061 -20.55013  -1.32355  -1.32307  -0.69764
 Alpha  occ. eigenvalues --   -0.69714  -0.55759  -0.55710  -0.49460  -0.49412
 Alpha virt. eigenvalues --    0.14447   0.14677   0.20540   0.20642   0.54782
 Alpha virt. eigenvalues --    0.54886   0.57639   0.57702   0.68082   0.68980
 Alpha virt. eigenvalues --    0.79417   0.79465   0.80859   0.80930   0.82771

 Mulliken charges:
               1
     1  O   -0.503418
     2  H    0.251055
     3  H    0.252364
     4  O   -0.503340
     5  H    0.250781
     6  H    0.252558
 Sum of Mulliken charges =  -0.00000

 Dipole moment (field-independent basis, Debye):
    X=             -0.6287    Y=             -0.1061    Z=              0.0000  Tot=              0.6376
 Quadrupole moment (field-independent basis, Debye-Ang):
   XX=             -8.0211   YY=              9.1172   ZZ=            -14.7103
   XY=             -1.1605   XZ=              0.0000   YZ=              0.0000

 Normal termination of Gaussian 16 at Sat Aug 27 01:27:37 2022.
