 Gaussian 16, Revision A.03,
 Gaussian 16:  ES64L-G16RevA.03 25-Dec-2016

 ------------------
 #p CCSD(T)/cc-pVTZ
 ------------------

 -----------
 H2O_H2O_716
 -----------
 Symbolic Z-matrix:
 Charge =  0 Multiplicity = 1

                         Standard orientation:
 ---------------------------------------------------------------------
 Center     Atomic      Atomic             Coordinates (Angstroms)
 Number     Number       Type             X           Y           Z
 ---------------------------------------------------------------------
      1          8           0        0.049565   -1.145057    0.000000
      2          1           0       -0.752073   -1.713284    0.000000
      3          1           0        0.847058   -1.719086    0.000000
      4          8           0        0.049565    1.201811    0.000000
      5          1           0       -0.041715    2.180163    0.000000
      6          1           0       -0.846306    0.798176    0.000000
 ---------------------------------------------------------------------

 SCF Done:  E(RHF) =  -152.092100051     A.U. after   11 cycles
 E2 =    -0.5305677986D+00 EUMP2 =    -0.15262266784920D+03
 CCSD(T)
 CCSD(T)= -0.15264977267D+03

 The electronic state is 1-A'.
 Alpha  occ. eigenvalues --  -20.54712 -20.52513  -1.32732  -1.29715  -0.70091
 Alpha  occ. eigenvalues --   -0.67993  -0.56366  -0.51407  -0.49846  -0.46644
 Alpha virt. eigenvalues --    0.13783   0.17789   0.19975   0.23990   0.52736
 Alpha virt. eigenvalues --    0.57384   0.59007   0.60997   0.71267   0.74950
 Alpha virt. eigenvalues --    0.78430   0.82255   0.83110   0.84944   0.87606

 Mulliken charges:
               1
     1  O   -0.460659
     2  H    0.224417
     3  H    0.243631
     4  O   -0.459985
     5  H    0.204493
     6  H    0.248102
 Sum of Mulliken charges =  -0.00000

 Dipole moment (field-independent basis, Debye):
    X=             -1.5193    Y=             -1.1387    Z=              0.0000  Tot=              1.8987
 Quadrupole moment (field-independent basis, Debye-Ang):
   XX=             -9.4346   YY=             -4.3095   ZZ=            -14.7231
   XY=             -1.4268   XZ=              0.0000   YZ=              0.0000

 Normal termination of Gaussian 16 at Fri Aug 26 19:22:30 2022.
