 Gaussian 16, Revision A.03,
 Gaussian 16:  ES64L-G16RevA.03 25-Dec-2016

 ------------------
 #p CCSD(T)/cc-pVTZ
 ------------------

 ------------
 H2O_H2O_2962
 ------------
 Symbolic Z-matrix:
 Charge =  0 Multiplicity = 1

                         Standard orientation:
 ---------------------------------------------------------------------
 Center     Atomic      Atomic             Coordinates (Angstroms)
 Number     Number       Type             X           Y           Z
 ---------------------------------------------------------------------
      1          8           0        0.040410   -2.354410    0.000000
      2          1           0       -0.759998   -2.924369    0.000000
      3          1           0        0.839142   -2.926714    0.000000
      4          8           0        0.040410    2.387748    0.000000
      5          1           0        0.203362    3.356743    0.000000
      6          1           0       -0.929060    2.227638    0.000000
 ---------------------------------------------------------------------

 SCF Done:  E(RHF) =  -152.106556580     A.U. after   10 cycles
 E2 =    -0.5260181975D+00 EUMP2 =    -0.15263257477776D+03
 CCSD(T)
 CCSD(T)= -0.15265980793D+03

 The electronic state is 1-A'.
 Alpha  occ. eigenvalues --  -20.55165 -20.54814  -1.32459  -1.32104  -0.69869
 Alpha  occ. eigenvalues --   -0.69502  -0.55864  -0.55510  -0.49564  -0.49212
 Alpha virt. eigenvalues --    0.14081   0.15093   0.20382   0.20955   0.54515
 Alpha virt. eigenvalues --    0.55091   0.57541   0.57878   0.66780   0.70710
 Alpha virt. eigenvalues --    0.79308   0.79664   0.80655   0.81256   0.82787

 Mulliken charges:
               1
     1  O   -0.503747
     2  H    0.249854
     3  H    0.253968
     4  O   -0.503308
     5  H    0.248603
     6  H    0.254630
 Sum of Mulliken charges =  -0.00000

 Dipole moment (field-independent basis, Debye):
    X=             -1.3785    Y=             -0.5915    Z=              0.0000  Tot=              1.5001
 Quadrupole moment (field-independent basis, Debye-Ang):
   XX=             -8.8361   YY=              5.1154   ZZ=            -14.7109
   XY=             -2.4641   XZ=              0.0000   YZ=              0.0000

 Normal termination of Gaussian 16 at Fri Aug 26 17:50:57 2022.
