 Gaussian 16, Revision A.03,
 Gaussian 16:  ES64L-G16RevA.03 25-Dec-2016

 ------------------
 #p CCSD(T)/cc-pVTZ
 ------------------

 ------------
 H2O_H2O_3257
 ------------
 Symbolic Z-matrix:
 Charge =  0 Multiplicity = 1

                         Standard orientation:
 ---------------------------------------------------------------------
 Center     Atomic      Atomic             Coordinates (Angstroms)
 Number     Number       Type             X           Y           Z
 ---------------------------------------------------------------------
      1          8           0        0.025266   -2.525693    0.000000
      2          1           0       -0.774796   -3.096138    0.000000
      3          1           0        0.824346   -3.097511    0.000000
      4          8           0        0.025266    2.537429    0.000000
      5          1           0        0.490517    3.402904    0.000000
      6          1           0       -0.944317    2.696853    0.000000
 ---------------------------------------------------------------------

 SCF Done:  E(RHF) =  -152.106373236     A.U. after   10 cycles
 E2 =    -0.5260022947D+00 EUMP2 =    -0.15263237553061D+03
 CCSD(T)
 CCSD(T)= -0.15265961563D+03

 The electronic state is 1-A'.
 Alpha  occ. eigenvalues --  -20.55036 -20.54930  -1.32329  -1.32222  -0.69739
 Alpha  occ. eigenvalues --   -0.69628  -0.55728  -0.55619  -0.49433  -0.49327
 Alpha virt. eigenvalues --    0.14377   0.14829   0.20528   0.20736   0.54765
 Alpha virt. eigenvalues --    0.55004   0.57651   0.57779   0.67612   0.69609
 Alpha virt. eigenvalues --    0.79441   0.79550   0.80871   0.81040   0.82737

 Mulliken charges:
               1
     1  O   -0.502792
     2  H    0.250329
     3  H    0.252468
     4  O   -0.502604
     5  H    0.249844
     6  H    0.252755
 Sum of Mulliken charges =  -0.00000

 Dipole moment (field-independent basis, Debye):
    X=             -0.8637    Y=             -0.2069    Z=              0.0000  Tot=              0.8882
 Quadrupole moment (field-independent basis, Debye-Ang):
   XX=             -8.2125   YY=              7.5385   ZZ=            -14.7102
   XY=             -1.5058   XZ=              0.0000   YZ=              0.0000

 Normal termination of Gaussian 16 at Fri Aug 26 20:47:34 2022.
