 Gaussian 16, Revision A.03,
 Gaussian 16:  ES64L-G16RevA.03 25-Dec-2016

 ------------------
 #p CCSD(T)/cc-pVTZ
 ------------------

 ------------
 H2O_H2O_2093
 ------------
 Symbolic Z-matrix:
 Charge =  0 Multiplicity = 1

                         Standard orientation:
 ---------------------------------------------------------------------
 Center     Atomic      Atomic             Coordinates (Angstroms)
 Number     Number       Type             X           Y           Z
 ---------------------------------------------------------------------
      1          8           0        0.052850   -1.868999    0.000000
      2          1           0       -0.748082   -2.438222    0.000000
      3          1           0        0.851056   -2.442037    0.000000
      4          8           0        0.052850    1.939261    0.000000
      5          1           0       -0.166540    2.897057    0.000000
      6          1           0       -0.782029    1.421106    0.000000
 ---------------------------------------------------------------------

 SCF Done:  E(RHF) =  -152.107358812     A.U. after   10 cycles
 E2 =    -0.5263075869D+00 EUMP2 =    -0.15263366639923D+03
 CCSD(T)
 CCSD(T)= -0.15266084950D+03

 The electronic state is 1-A'.
 Alpha  occ. eigenvalues --  -20.55565 -20.54291  -1.32841  -1.31572  -0.70253
 Alpha  occ. eigenvalues --   -0.68945  -0.56259  -0.54993  -0.49953  -0.48693
 Alpha virt. eigenvalues --    0.13339   0.16097   0.20038   0.22380   0.54043
 Alpha virt. eigenvalues --    0.54399   0.57246   0.58518   0.65017   0.75349
 Alpha virt. eigenvalues --    0.78647   0.79003   0.80399   0.80646   0.84680

 Mulliken charges:
               1
     1  O   -0.500420
     2  H    0.246928
     3  H    0.255949
     4  O   -0.505199
     5  H    0.243761
     6  H    0.258981
 Sum of Mulliken charges =  -0.00000

 Dipole moment (field-independent basis, Debye):
    X=             -1.7778    Y=             -1.2945    Z=              0.0000  Tot=              2.1992
 Quadrupole moment (field-independent basis, Debye-Ang):
   XX=             -9.5639   YY=              0.1152   ZZ=            -14.7150
   XY=             -3.0067   XZ=              0.0000   YZ=              0.0000

 Normal termination of Gaussian 16 at Sat Aug 27 08:32:49 2022.
