 Gaussian 16, Revision A.03,
 Gaussian 16:  ES64L-G16RevA.03 25-Dec-2016

 ------------------
 #p CCSD(T)/cc-pVTZ
 ------------------

 ------------
 H2O_H2O_1476
 ------------
 Symbolic Z-matrix:
 Charge =  0 Multiplicity = 1

                         Standard orientation:
 ---------------------------------------------------------------------
 Center     Atomic      Atomic             Coordinates (Angstroms)
 Number     Number       Type             X           Y           Z
 ---------------------------------------------------------------------
      1          8           0        0.003735   -1.587926    0.000000
      2          1           0       -0.795951   -2.158896    0.000000
      3          1           0        0.803191   -2.159219    0.000000
      4          8           0        0.003735    1.588169    0.000000
      5          1           0        0.764367    2.210219    0.000000
      6          1           0       -0.831373    2.105953    0.000000
 ---------------------------------------------------------------------

 SCF Done:  E(RHF) =  -152.102493761     A.U. after   10 cycles
 E2 =    -0.5270810338D+00 EUMP2 =    -0.15262957479524D+03
 CCSD(T)
 CCSD(T)= -0.15265685732D+03

 The electronic state is 1-A'.
 Alpha  occ. eigenvalues --  -20.54009 -20.54004  -1.31369  -1.31227  -0.68786
 Alpha  occ. eigenvalues --   -0.68675  -0.55455  -0.53499  -0.48545  -0.48218
 Alpha virt. eigenvalues --    0.14348   0.16494   0.20581   0.21693   0.52243
 Alpha virt. eigenvalues --    0.58193   0.58580   0.59154   0.63505   0.76078
 Alpha virt. eigenvalues --    0.78259   0.78285   0.79566   0.82196   0.86028

 Mulliken charges:
               1
     1  O   -0.476557
     2  H    0.237739
     3  H    0.238826
     4  O   -0.476513
     5  H    0.237755
     6  H    0.238749
 Sum of Mulliken charges =  -0.00000

 Dipole moment (field-independent basis, Debye):
    X=             -0.1233    Y=             -0.0046    Z=              0.0000  Tot=              0.1234
 Quadrupole moment (field-independent basis, Debye-Ang):
   XX=             -7.8905   YY=              0.3468   ZZ=            -14.7092
   XY=             -0.0919   XZ=              0.0000   YZ=              0.0000

 Normal termination of Gaussian 16 at Sat Aug 27 04:58:38 2022.
