 Gaussian 16, Revision A.03,
 Gaussian 16:  ES64L-G16RevA.03 25-Dec-2016

 ------------------
 #p CCSD(T)/cc-pVTZ
 ------------------

 ------------
 H2O_H2O_4765
 ------------
 Symbolic Z-matrix:
 Charge =  0 Multiplicity = 1

                         Standard orientation:
 ---------------------------------------------------------------------
 Center     Atomic      Atomic             Coordinates (Angstroms)
 Number     Number       Type             X           Y           Z
 ---------------------------------------------------------------------
      1          8           0        0.047519   -3.302315    0.000000
      2          1           0       -0.752753   -3.872464    0.000000
      3          1           0        0.846388   -3.874429    0.000000
      4          8           0        0.047519    3.352964    0.000000
      5          1           0        0.018065    4.335124    0.000000
      6          1           0       -0.872004    3.006577    0.000000
 ---------------------------------------------------------------------

 SCF Done:  E(RHF) =  -152.107250172     A.U. after   10 cycles
 E2 =    -0.5258899583D+00 EUMP2 =    -0.15263314013065D+03
 CCSD(T)
 CCSD(T)= -0.15266036379D+03

 The electronic state is 1-A'.
 Alpha  occ. eigenvalues --  -20.55478 -20.55215  -1.32776  -1.32512  -0.70182
 Alpha  occ. eigenvalues --   -0.69914  -0.56216  -0.55951  -0.49886  -0.49623
 Alpha virt. eigenvalues --    0.14185   0.14450   0.20252   0.20529   0.54381
 Alpha virt. eigenvalues --    0.54660   0.57286   0.57550   0.67984   0.68256
 Alpha virt. eigenvalues --    0.78993   0.79253   0.80428   0.80710   0.82352

 Mulliken charges:
               1
     1  O   -0.507947
     2  H    0.253059
     3  H    0.254889
     4  O   -0.507785
     5  H    0.252338
     6  H    0.255447
 Sum of Mulliken charges =  -0.00000

 Dipole moment (field-independent basis, Debye):
    X=             -1.6342    Y=             -0.8832    Z=              0.0000  Tot=              1.8576
 Quadrupole moment (field-independent basis, Debye-Ang):
   XX=             -9.2243   YY=             10.0369   ZZ=            -14.7116
   XY=             -4.7012   XZ=              0.0000   YZ=              0.0000

 Normal termination of Gaussian 16 at Sat Aug 27 09:12:56 2022.
