 Gaussian 16, Revision A.03,
 Gaussian 16:  ES64L-G16RevA.03 25-Dec-2016

 ------------------
 #p CCSD(T)/cc-pVTZ
 ------------------

 ------------
 H2O_H2O_1111
 ------------
 Symbolic Z-matrix:
 Charge =  0 Multiplicity = 1

                         Standard orientation:
 ---------------------------------------------------------------------
 Center     Atomic      Atomic             Coordinates (Angstroms)
 Number     Number       Type             X           Y           Z
 ---------------------------------------------------------------------
      1          8           0        0.037690   -1.373318    0.000000
      2          1           0       -0.763213   -1.942580    0.000000
      3          1           0        0.835925   -1.946316    0.000000
      4          8           0        0.037690    1.401488    0.000000
      5          1           0        0.264501    2.357554    0.000000
      6          1           0       -0.940259    1.305978    0.000000
 ---------------------------------------------------------------------

 SCF Done:  E(RHF) =  -152.101096613     A.U. after   11 cycles
 E2 =    -0.5279962365D+00 EUMP2 =    -0.15262909284926D+03
 CCSD(T)
 CCSD(T)= -0.15265634408D+03

 The electronic state is 1-A'.
 Alpha  occ. eigenvalues --  -20.54292 -20.53484  -1.31710  -1.30723  -0.69122
 Alpha  occ. eigenvalues --   -0.68195  -0.56052  -0.52695  -0.48885  -0.47711
 Alpha virt. eigenvalues --    0.14095   0.17013   0.20329   0.22644   0.53050
 Alpha virt. eigenvalues --    0.58100   0.58376   0.59467   0.68821   0.76521
 Alpha virt. eigenvalues --    0.76677   0.77170   0.81638   0.83108   0.85724

 Mulliken charges:
               1
     1  O   -0.474861
     2  H    0.231330
     3  H    0.244758
     4  O   -0.467340
     5  H    0.223476
     6  H    0.242637
 Sum of Mulliken charges =  -0.00000

 Dipole moment (field-independent basis, Debye):
    X=             -1.2095    Y=             -0.5415    Z=              0.0000  Tot=              1.3252
 Quadrupole moment (field-independent basis, Debye-Ang):
   XX=             -8.7854   YY=             -1.9242   ZZ=            -14.7175
   XY=             -1.0080   XZ=              0.0000   YZ=              0.0000

 Normal termination of Gaussian 16 at Sat Aug 27 02:13:09 2022.
