 Gaussian 16, Revision A.03,
 Gaussian 16:  ES64L-G16RevA.03 25-Dec-2016

 ------------------
 #p CCSD(T)/cc-pVTZ
 ------------------

 ------------
 H2O_H2O_1766
 ------------
 Symbolic Z-matrix:
 Charge =  0 Multiplicity = 1

                         Standard orientation:
 ---------------------------------------------------------------------
 Center     Atomic      Atomic             Coordinates (Angstroms)
 Number     Number       Type             X           Y           Z
 ---------------------------------------------------------------------
      1          8           0        0.049532   -1.703425    0.000000
      2          1           0       -0.751441   -2.272589    0.000000
      3          1           0        0.847696   -2.276521    0.000000
      4          8           0        0.049532    1.760295    0.000000
      5          1           0       -0.042893    2.738540    0.000000
      6          1           0       -0.845866    1.355611    0.000000
 ---------------------------------------------------------------------

 SCF Done:  E(RHF) =  -152.106546763     A.U. after   10 cycles
 E2 =    -0.5266255418D+00 EUMP2 =    -0.15263317230451D+03
 CCSD(T)
 CCSD(T)= -0.15266035931D+03

 The electronic state is 1-A'.
 Alpha  occ. eigenvalues --  -20.55316 -20.54084  -1.32591  -1.31351  -0.70010
 Alpha  occ. eigenvalues --   -0.68729  -0.56007  -0.54681  -0.49703  -0.48466
 Alpha virt. eigenvalues --    0.13551   0.16388   0.20104   0.22540   0.53945
 Alpha virt. eigenvalues --    0.54694   0.57431   0.58557   0.64590   0.76509
 Alpha virt. eigenvalues --    0.78271   0.78409   0.79092   0.81098   0.85013

 Mulliken charges:
               1
     1  O   -0.492880
     2  H    0.242622
     3  H    0.253306
     4  O   -0.497798
     5  H    0.239087
     6  H    0.255663
 Sum of Mulliken charges =  -0.00000

 Dipole moment (field-independent basis, Debye):
    X=             -1.6489    Y=             -1.0639    Z=              0.0000  Tot=              1.9624
 Quadrupole moment (field-independent basis, Debye-Ang):
   XX=             -9.3627   YY=             -0.2935   ZZ=            -14.7150
   XY=             -2.3250   XZ=              0.0000   YZ=              0.0000

 Normal termination of Gaussian 16 at Sat Aug 27 06:40:11 2022.
