 Gaussian 16, Revision A.03,
 Gaussian 16:  ES64L-G16RevA.03 25-Dec-2016

 ------------------
 #p CCSD(T)/cc-pVTZ
 ------------------

 -----------
 H2O_H2O_670
 -----------
 Symbolic Z-matrix:
 Charge =  0 Multiplicity = 1

                         Standard orientation:
 ---------------------------------------------------------------------
 Center     Atomic      Atomic             Coordinates (Angstroms)
 Number     Number       Type             X           Y           Z
 ---------------------------------------------------------------------
      1          8           0        0.055342   -1.103556    0.000000
      2          1           0       -0.746589   -1.671369    0.000000
      3          1           0        0.852539   -1.677998    0.000000
      4          8           0        0.055342    1.187760    0.000000
      5          1           0       -0.285568    2.109329    0.000000
      6          1           0       -0.705855    0.566403    0.000000
 ---------------------------------------------------------------------

 SCF Done:  E(RHF) =  -152.089395626     A.U. after   11 cycles
 E2 =    -0.5318717349D+00 EUMP2 =    -0.15262126736114D+03
 CCSD(T)
 CCSD(T)= -0.15264816449D+03

 The electronic state is 1-A'.
 Alpha  occ. eigenvalues --  -20.55808 -20.51728  -1.34127  -1.29117  -0.71504
 Alpha  occ. eigenvalues --   -0.68567  -0.55226  -0.52243  -0.51056  -0.46111
 Alpha virt. eigenvalues --    0.13333   0.18288   0.19573   0.25401   0.51209
 Alpha virt. eigenvalues --    0.56384   0.60657   0.62164   0.71742   0.74129
 Alpha virt. eigenvalues --    0.77859   0.82666   0.83950   0.84356   0.87337

 Mulliken charges:
               1
     1  O   -0.443750
     2  H    0.222017
     3  H    0.244122
     4  O   -0.483904
     5  H    0.205113
     6  H    0.256402
 Sum of Mulliken charges =   0.00000

 Dipole moment (field-independent basis, Debye):
    X=             -1.6855    Y=             -1.7832    Z=              0.0000  Tot=              2.4537
 Quadrupole moment (field-independent basis, Debye-Ang):
   XX=             -9.7574   YY=             -5.2381   ZZ=            -14.7091
   XY=             -2.0116   XZ=              0.0000   YZ=              0.0000

 Normal termination of Gaussian 16 at Fri Aug 26 18:52:49 2022.
