 Gaussian 16, Revision A.03,
 Gaussian 16:  ES64L-G16RevA.03 25-Dec-2016

 ------------------
 #p CCSD(T)/cc-pVTZ
 ------------------

 ------------
 H2O_H2O_3800
 ------------
 Symbolic Z-matrix:
 Charge =  0 Multiplicity = 1

                         Standard orientation:
 ---------------------------------------------------------------------
 Center     Atomic      Atomic             Coordinates (Angstroms)
 Number     Number       Type             X           Y           Z
 ---------------------------------------------------------------------
      1          8           0        0.000000   -0.000000    2.824577
      2          1           0        0.000000    0.799571    3.395709
      3          1           0       -0.000000   -0.799571    3.395709
      4          8           0        0.000000   -0.000000   -2.824577
      5          1           0       -0.000000   -0.799571   -3.395709
      6          1           0        0.000000    0.799571   -3.395709
 ---------------------------------------------------------------------

 SCF Done:  E(RHF) =  -152.106549342     A.U. after   10 cycles
 E2 =    -0.5259646845D+00 EUMP2 =    -0.15263251402683D+03
 CCSD(T)
 CCSD(T)= -0.15265975181D+03

 The electronic state is 1-AG.
 Alpha  occ. eigenvalues --  -20.55073 -20.55073  -1.32368  -1.32368  -0.69776
 Alpha  occ. eigenvalues --   -0.69776  -0.55776  -0.55773  -0.49473  -0.49473
 Alpha virt. eigenvalues --    0.14475   0.14590   0.20542   0.20585   0.54777
 Alpha virt. eigenvalues --    0.54815   0.57630   0.57650   0.68273   0.68695
 Alpha virt. eigenvalues --    0.79403   0.79407   0.80844   0.80864   0.82768

 Mulliken charges:
               1
     1  O   -0.503805
     2  H    0.251903
     3  H    0.251903
     4  O   -0.503805
     5  H    0.251903
     6  H    0.251903
 Sum of Mulliken charges =   0.00000

 Dipole moment (field-independent basis, Debye):
    X=             -0.0000    Y=              0.0000    Z=             -0.0000  Tot=              0.0000
 Quadrupole moment (field-independent basis, Debye-Ang):
   XX=            -14.7103   YY=             -7.8075   ZZ=             10.5548
   XY=              0.0000   XZ=              0.0000   YZ=             -0.0000

 4DQ=-152.6416382\MP4SDQ=-152.6447008\CCSD=-152.6441115\CCSD(T)=-152.65
 Normal termination of Gaussian 16 at Sat Aug 27 03:25:47 2022.
