 Gaussian 16, Revision A.03,
 Gaussian 16:  ES64L-G16RevA.03 25-Dec-2016

 ------------------
 #p CCSD(T)/cc-pVTZ
 ------------------

 ------------
 H2O_H2O_1161
 ------------
 Symbolic Z-matrix:
 Charge =  0 Multiplicity = 1

                         Standard orientation:
 ---------------------------------------------------------------------
 Center     Atomic      Atomic             Coordinates (Angstroms)
 Number     Number       Type             X           Y           Z
 ---------------------------------------------------------------------
      1          8           0        0.037690   -1.399907    0.000000
      2          1           0       -0.763188   -1.969205    0.000000
      3          1           0        0.835949   -1.972871    0.000000
      4          8           0        0.037690    1.428081    0.000000
      5          1           0        0.264458    2.384158    0.000000
      6          1           0       -0.940256    1.332529    0.000000
 ---------------------------------------------------------------------

 SCF Done:  E(RHF) =  -152.101725527     A.U. after   11 cycles
 E2 =    -0.5278294064D+00 EUMP2 =    -0.15262955493374D+03
 CCSD(T)
 CCSD(T)= -0.15265680486D+03

 The electronic state is 1-A'.
 Alpha  occ. eigenvalues --  -20.54345 -20.53556  -1.31733  -1.30799  -0.69151
 Alpha  occ. eigenvalues --   -0.68254  -0.55968  -0.52917  -0.48899  -0.47803
 Alpha virt. eigenvalues --    0.14080   0.16949   0.20330   0.22581   0.53086
 Alpha virt. eigenvalues --    0.58080   0.58324   0.59214   0.68286   0.76379
 Alpha virt. eigenvalues --    0.76838   0.77240   0.81183   0.82990   0.85700

 Mulliken charges:
               1
     1  O   -0.475902
     2  H    0.232135
     3  H    0.245098
     4  O   -0.469504
     5  H    0.225020
     6  H    0.243154
 Sum of Mulliken charges =  -0.00000

 Dipole moment (field-independent basis, Debye):
    X=             -1.2145    Y=             -0.5401    Z=              0.0000  Tot=              1.3292
 Quadrupole moment (field-independent basis, Debye-Ang):
   XX=             -8.7793   YY=             -1.7027   ZZ=            -14.7165
   XY=             -1.0400   XZ=              0.0000   YZ=              0.0000

 Normal termination of Gaussian 16 at Sat Aug 27 02:37:40 2022.
