 Gaussian 16, Revision A.03,
 Gaussian 16:  ES64L-G16RevA.03 25-Dec-2016

 ------------------
 #p CCSD(T)/cc-pVTZ
 ------------------

 ------------
 H2O_H2O_1054
 ------------
 Symbolic Z-matrix:
 Charge =  0 Multiplicity = 1

                         Standard orientation:
 ---------------------------------------------------------------------
 Center     Atomic      Atomic             Coordinates (Angstroms)
 Number     Number       Type             X           Y           Z
 ---------------------------------------------------------------------
      1          8           0        0.014784   -1.359928    0.000000
      2          1           0       -0.785320   -1.930313    0.000000
      3          1           0        0.813821   -1.931807    0.000000
      4          8           0        0.014784    1.363792    0.000000
      5          1           0        0.639999    2.121824    0.000000
      6          1           0       -0.905041    1.709379    0.000000
 ---------------------------------------------------------------------

 SCF Done:  E(RHF) =  -152.098059796     A.U. after   11 cycles
 E2 =    -0.5281666904D+00 EUMP2 =    -0.15262622648612D+03
 CCSD(T)
 CCSD(T)= -0.15265353760D+03

 The electronic state is 1-A'.
 Alpha  occ. eigenvalues --  -20.53552 -20.53447  -1.31128  -1.30622  -0.68497
 Alpha  occ. eigenvalues --   -0.68128  -0.56179  -0.51694  -0.48378  -0.47489
 Alpha virt. eigenvalues --    0.14416   0.17114   0.20547   0.22171   0.51134
 Alpha virt. eigenvalues --    0.58566   0.58785   0.61421   0.70875   0.76496
 Alpha virt. eigenvalues --    0.76958   0.78546   0.80123   0.83484   0.86273

 Mulliken charges:
               1
     1  O   -0.466968
     2  H    0.230271
     3  H    0.236410
     4  O   -0.463588
     5  H    0.228904
     6  H    0.234971
 Sum of Mulliken charges =  -0.00000

 Dipole moment (field-independent basis, Debye):
    X=             -0.4738    Y=             -0.0737    Z=              0.0000  Tot=              0.4795
 Quadrupole moment (field-independent basis, Debye-Ang):
   XX=             -8.0702   YY=             -1.7749   ZZ=            -14.7161
   XY=             -0.2746   XZ=              0.0000   YZ=              0.0000

 Normal termination of Gaussian 16 at Sat Aug 27 01:42:38 2022.
