 Gaussian 16, Revision A.03,
 Gaussian 16:  ES64L-G16RevA.03 25-Dec-2016

 ------------------
 #p CCSD(T)/cc-pVTZ
 ------------------

 ------------
 H2O_H2O_4022
 ------------
 Symbolic Z-matrix:
 Charge =  0 Multiplicity = 1

                         Standard orientation:
 ---------------------------------------------------------------------
 Center     Atomic      Atomic             Coordinates (Angstroms)
 Number     Number       Type             X           Y           Z
 ---------------------------------------------------------------------
      1          8           0        0.056707   -2.877110    0.000000
      2          1           0       -0.743814   -3.446909    0.000000
      3          1           0        0.855326   -3.449572    0.000000
      4          8           0        0.056707    2.976238    0.000000
      5          1           0       -0.403729    3.844285    0.000000
      6          1           0       -0.615099    2.259173    0.000000
 ---------------------------------------------------------------------

 SCF Done:  E(RHF) =  -152.107642392     A.U. after   10 cycles
 E2 =    -0.5258697724D+00 EUMP2 =    -0.15263351216409D+03
 CCSD(T)
 CCSD(T)= -0.15266072640D+03

 The electronic state is 1-A'.
 Alpha  occ. eigenvalues --  -20.55727 -20.55052  -1.33027  -1.32351  -0.70433
 Alpha  occ. eigenvalues --   -0.69748  -0.56485  -0.55803  -0.50140  -0.49467
 Alpha virt. eigenvalues --    0.13894   0.14689   0.20048   0.20797   0.54121
 Alpha virt. eigenvalues --    0.54817   0.57064   0.57728   0.67537   0.68534
 Alpha virt. eigenvalues --    0.78742   0.79401   0.80163   0.80755   0.82297

 Mulliken charges:
               1
     1  O   -0.510284
     2  H    0.253655
     3  H    0.256645
     4  O   -0.509813
     5  H    0.251785
     6  H    0.258012
 Sum of Mulliken charges =   0.00000

 Dipole moment (field-independent basis, Debye):
    X=             -1.9469    Y=             -1.7385    Z=              0.0000  Tot=              2.6101
 Quadrupole moment (field-independent basis, Debye-Ang):
   XX=             -9.8276   YY=              3.1060   ZZ=            -14.7127
   XY=             -5.6995   XZ=              0.0000   YZ=              0.0000

 Normal termination of Gaussian 16 at Sat Aug 27 04:56:00 2022.
