 Gaussian 16, Revision A.03,
 Gaussian 16:  ES64L-G16RevA.03 25-Dec-2016

 ------------------
 #p CCSD(T)/cc-pVTZ
 ------------------

 ------------
 H2O_H2O_1648
 ------------
 Symbolic Z-matrix:
 Charge =  0 Multiplicity = 1

                         Standard orientation:
 ---------------------------------------------------------------------
 Center     Atomic      Atomic             Coordinates (Angstroms)
 Number     Number       Type             X           Y           Z
 ---------------------------------------------------------------------
      1          8           0        0.057148   -1.610036    0.000000
      2          1           0       -0.744104   -2.178807    0.000000
      3          1           0        0.855031   -2.183524    0.000000
      4          8           0        0.057148    1.716455    0.000000
      5          1           0       -0.458001    2.553191    0.000000
      6          1           0       -0.567296    0.957787    0.000000
 ---------------------------------------------------------------------

 SCF Done:  E(RHF) =  -152.109515637     A.U. after   10 cycles
 E2 =    -0.5267926989D+00 EUMP2 =    -0.15263630833572D+03
 CCSD(T)
 CCSD(T)= -0.15266341466D+03

 The electronic state is 1-A'.
 Alpha  occ. eigenvalues --  -20.56411 -20.53638  -1.33685  -1.30951  -0.71086
 Alpha  occ. eigenvalues --   -0.68360  -0.57150  -0.54439  -0.50808  -0.48086
 Alpha virt. eigenvalues --    0.12966   0.16893   0.19639   0.24890   0.52704
 Alpha virt. eigenvalues --    0.55601   0.56630   0.58129   0.67511   0.75377
 Alpha virt. eigenvalues --    0.76644   0.76658   0.80171   0.81258   0.84175

 Mulliken charges:
               1
     1  O   -0.496584
     2  H    0.247008
     3  H    0.259382
     4  O   -0.515386
     5  H    0.240978
     6  H    0.264602
 Sum of Mulliken charges =  -0.00000

 Dipole moment (field-independent basis, Debye):
    X=             -1.8968    Y=             -2.0463    Z=              0.0000  Tot=              2.7902
 Quadrupole moment (field-independent basis, Debye-Ang):
   XX=             -9.8525   YY=             -3.0945   ZZ=            -14.7235
   XY=             -3.4436   XZ=              0.0000   YZ=              0.0000

 Normal termination of Gaussian 16 at Sat Aug 27 05:58:59 2022.
