 Gaussian 16, Revision A.03,
 Gaussian 16:  ES64L-G16RevA.03 25-Dec-2016

 ------------------
 #p CCSD(T)/cc-pVTZ
 ------------------

 ------------
 H2O_H2O_3793
 ------------
 Symbolic Z-matrix:
 Charge =  0 Multiplicity = 1

                         Standard orientation:
 ---------------------------------------------------------------------
 Center     Atomic      Atomic             Coordinates (Angstroms)
 Number     Number       Type             X           Y           Z
 ---------------------------------------------------------------------
      1          8           0        0.052823   -2.773078    0.000000
      2          1           0       -0.747671   -3.342916    0.000000
      3          1           0        0.851469   -3.345503    0.000000
      4          8           0        0.052823    2.843421    0.000000
      5          1           0       -0.167303    3.801049    0.000000
      6          1           0       -0.781658    2.324625    0.000000
 ---------------------------------------------------------------------

 SCF Done:  E(RHF) =  -152.107333406     A.U. after   10 cycles
 E2 =    -0.5259029874D+00 EUMP2 =    -0.15263323639322D+03
 CCSD(T)
 CCSD(T)= -0.15266045680D+03

 The electronic state is 1-A'.
 Alpha  occ. eigenvalues --  -20.55546 -20.55022  -1.32844  -1.32318  -0.70251
 Alpha  occ. eigenvalues --   -0.69714  -0.56288  -0.55759  -0.49955  -0.49431
 Alpha virt. eigenvalues --    0.14030   0.14715   0.20179   0.20781   0.54299
 Alpha virt. eigenvalues --    0.54858   0.57222   0.57739   0.67690   0.68683
 Alpha virt. eigenvalues --    0.78926   0.79439   0.80350   0.80829   0.82441

 Mulliken charges:
               1
     1  O   -0.508463
     2  H    0.252597
     3  H    0.255882
     4  O   -0.508061
     5  H    0.251058
     6  H    0.256987
 Sum of Mulliken charges =  -0.00000

 Dipole moment (field-independent basis, Debye):
    X=             -1.8118    Y=             -1.2355    Z=              0.0000  Tot=              2.1930
 Quadrupole moment (field-independent basis, Debye-Ang):
   XX=             -9.5590   YY=              5.1716   ZZ=            -14.7120
   XY=             -4.6179   XZ=              0.0000   YZ=              0.0000

 Normal termination of Gaussian 16 at Sat Aug 27 03:22:18 2022.
