 Gaussian 16, Revision A.03,
 Gaussian 16:  ES64L-G16RevA.03 25-Dec-2016

 ------------------
 #p CCSD(T)/cc-pVTZ
 ------------------

 ------------
 H2O_H2O_4534
 ------------
 Symbolic Z-matrix:
 Charge =  0 Multiplicity = 1

                         Standard orientation:
 ---------------------------------------------------------------------
 Center     Atomic      Atomic             Coordinates (Angstroms)
 Number     Number       Type             X           Y           Z
 ---------------------------------------------------------------------
      1          8           0        0.031739   -3.199733    0.000000
      2          1           0       -0.768318   -3.770184    0.000000
      3          1           0        0.830823   -3.771545    0.000000
      4          8           0        0.031739    3.218929    0.000000
      5          1           0        0.380036    4.137730    0.000000
      6          1           0       -0.950358    3.250426    0.000000
 ---------------------------------------------------------------------

 SCF Done:  E(RHF) =  -152.106986313     A.U. after   10 cycles
 E2 =    -0.5259150227D+00 EUMP2 =    -0.15263290133577D+03
 CCSD(T)
 CCSD(T)= -0.15266013051D+03

 The electronic state is 1-A'.
 Alpha  occ. eigenvalues --  -20.55302 -20.55195  -1.32598  -1.32490  -0.70005
 Alpha  occ. eigenvalues --   -0.69895  -0.56026  -0.55919  -0.49707  -0.49599
 Alpha virt. eigenvalues --    0.14338   0.14450   0.20393   0.20506   0.54562
 Alpha virt. eigenvalues --    0.54678   0.57443   0.57551   0.68190   0.68311
 Alpha virt. eigenvalues --    0.79172   0.79279   0.80612   0.80730   0.82539

 Mulliken charges:
               1
     1  O   -0.506383
     2  H    0.252504
     3  H    0.253879
     4  O   -0.506291
     5  H    0.252114
     6  H    0.254177
 Sum of Mulliken charges =  -0.00000

 Dipole moment (field-independent basis, Debye):
    X=             -1.0908    Y=             -0.3349    Z=              0.0000  Tot=              1.1411
 Quadrupole moment (field-independent basis, Debye-Ang):
   XX=             -8.4365   YY=             12.0916   ZZ=            -14.7110
   XY=             -2.6967   XZ=              0.0000   YZ=              0.0000

 Normal termination of Gaussian 16 at Sat Aug 27 07:52:11 2022.
