 Gaussian 16, Revision A.03,
 Gaussian 16:  ES64L-G16RevA.03 25-Dec-2016

 ------------------
 #p CCSD(T)/cc-pVTZ
 ------------------

 -----------
 H2O_H2O_557
 -----------
 Symbolic Z-matrix:
 Charge =  0 Multiplicity = 1

                         Standard orientation:
 ---------------------------------------------------------------------
 Center     Atomic      Atomic             Coordinates (Angstroms)
 Number     Number       Type             X           Y           Z
 ---------------------------------------------------------------------
      1          8           0        0.025272   -1.089764    0.000000
      2          1           0       -0.775431   -1.659308    0.000000
      3          1           0        0.823708   -1.662482    0.000000
      4          8           0        0.025272    1.101444    0.000000
      5          1           0        0.491498    1.966394    0.000000
      6          1           0       -0.944130    1.261959    0.000000
 ---------------------------------------------------------------------

 SCF Done:  E(RHF) =  -152.076389137     A.U. after   11 cycles
 E2 =    -0.5319652185D+00 EUMP2 =    -0.15260835435601D+03
 CCSD(T)
 CCSD(T)= -0.15263546268D+03

 The electronic state is 1-A'.
 Alpha  occ. eigenvalues --  -20.52752 -20.52379  -1.31539  -1.29330  -0.68603
 Alpha  occ. eigenvalues --   -0.67216  -0.58658  -0.48823  -0.47316  -0.45944
 Alpha virt. eigenvalues --    0.14486   0.17878   0.20450   0.22896   0.51600
 Alpha virt. eigenvalues --    0.58647   0.58735   0.64072   0.70536   0.76837
 Alpha virt. eigenvalues --    0.77812   0.81642   0.84036   0.86399   0.87369

 Mulliken charges:
               1
     1  O   -0.452416
     2  H    0.218210
     3  H    0.232123
     4  O   -0.433074
     5  H    0.200887
     6  H    0.234270
 Sum of Mulliken charges =  -0.00000

 Dipole moment (field-independent basis, Debye):
    X=             -0.7588    Y=             -0.2344    Z=              0.0000  Tot=              0.7942
 Quadrupole moment (field-independent basis, Debye-Ang):
   XX=             -8.4369   YY=             -4.5652   ZZ=            -14.7369
   XY=             -0.3378   XZ=              0.0000   YZ=              0.0000

 Normal termination of Gaussian 16 at Fri Aug 26 17:37:22 2022.
