 Gaussian 16, Revision A.03,
 Gaussian 16:  ES64L-G16RevA.03 25-Dec-2016

 ------------------
 #p CCSD(T)/cc-pVTZ
 ------------------

 ------------
 H2O_H2O_3499
 ------------
 Symbolic Z-matrix:
 Charge =  0 Multiplicity = 1

                         Standard orientation:
 ---------------------------------------------------------------------
 Center     Atomic      Atomic             Coordinates (Angstroms)
 Number     Number       Type             X           Y           Z
 ---------------------------------------------------------------------
      1          8           0        0.057219   -2.589811    0.000000
      2          1           0       -0.743411   -3.159457    0.000000
      3          1           0        0.855728   -3.162427    0.000000
      4          8           0        0.057219    2.703825    0.000000
      5          1           0       -0.512427    3.504457    0.000000
      6          1           0       -0.515397    1.905316    0.000000
 ---------------------------------------------------------------------

 SCF Done:  E(RHF) =  -152.107956978     A.U. after   10 cycles
 E2 =    -0.5258759313D+00 EUMP2 =    -0.15263383290894D+03
 CCSD(T)
 CCSD(T)= -0.15266103661D+03

 The electronic state is 1-A'.
 Alpha  occ. eigenvalues --  -20.55869 -20.54897  -1.33167  -1.32198  -0.70572
 Alpha  occ. eigenvalues --   -0.69590  -0.56638  -0.55657  -0.50282  -0.49317
 Alpha virt. eigenvalues --    0.13559   0.14992   0.19940   0.21091   0.53964
 Alpha virt. eigenvalues --    0.54885   0.56953   0.57823   0.66994   0.69151
 Alpha virt. eigenvalues --    0.78604   0.79543   0.79934   0.80300   0.82744

 Mulliken charges:
               1
     1  O   -0.511740
     2  H    0.254021
     3  H    0.257906
     4  O   -0.511171
     5  H    0.251145
     6  H    0.259838
 Sum of Mulliken charges =  -0.00000

 Dipole moment (field-independent basis, Debye):
    X=             -1.9603    Y=             -2.0138    Z=              0.0000  Tot=              2.8104
 Quadrupole moment (field-independent basis, Debye-Ang):
   XX=             -9.8631   YY=              0.4758   ZZ=            -14.7138
   XY=             -5.4722   XZ=              0.0000   YZ=              0.0000

 Normal termination of Gaussian 16 at Fri Aug 26 22:50:31 2022.
