 Gaussian 16, Revision A.03,
 Gaussian 16:  ES64L-G16RevA.03 25-Dec-2016

 ------------------
 #p CCSD(T)/cc-pVTZ
 ------------------

 ------------
 H2O_H2O_4526
 ------------
 Symbolic Z-matrix:
 Charge =  0 Multiplicity = 1

                         Standard orientation:
 ---------------------------------------------------------------------
 Center     Atomic      Atomic             Coordinates (Angstroms)
 Number     Number       Type             X           Y           Z
 ---------------------------------------------------------------------
      1          8           0        0.003735   -3.210026    0.000000
      2          1           0       -0.795893   -3.781078    0.000000
      3          1           0        0.803249   -3.781238    0.000000
      4          8           0        0.003735    3.210270    0.000000
      5          1           0        0.764304    3.832398    0.000000
      6          1           0       -0.831426    3.727969    0.000000
 ---------------------------------------------------------------------

 SCF Done:  E(RHF) =  -152.106846739     A.U. after   10 cycles
 E2 =    -0.5259266029D+00 EUMP2 =    -0.15263277334163D+03
 CCSD(T)
 CCSD(T)= -0.15266000551D+03

 The electronic state is 1-A'.
 Alpha  occ. eigenvalues --  -20.55203 -20.55202  -1.32499  -1.32498  -0.69906
 Alpha  occ. eigenvalues --   -0.69905  -0.55921  -0.55919  -0.49606  -0.49605
 Alpha virt. eigenvalues --    0.14419   0.14438   0.20470   0.20479   0.54661
 Alpha virt. eigenvalues --    0.54666   0.57530   0.57535   0.68294   0.68333
 Alpha virt. eigenvalues --    0.79273   0.79274   0.80716   0.80718   0.82643

 Mulliken charges:
               1
     1  O   -0.505552
     2  H    0.252695
     3  H    0.252857
     4  O   -0.505551
     5  H    0.252662
     6  H    0.252889
 Sum of Mulliken charges =  -0.00000

 Dipole moment (field-independent basis, Debye):
    X=             -0.1284    Y=             -0.0043    Z=              0.0000  Tot=              0.1284
 Quadrupole moment (field-independent basis, Debye-Ang):
   XX=             -7.8112   YY=             13.6279   ZZ=            -14.7107
   XY=             -0.2951   XZ=              0.0000   YZ=              0.0000

 Normal termination of Gaussian 16 at Sat Aug 27 07:49:25 2022.
