 Gaussian 16, Revision A.03,
 Gaussian 16:  ES64L-G16RevA.03 25-Dec-2016

 ------------------
 #p CCSD(T)/cc-pVTZ
 ------------------

 -----------
 H2O_H2O_861
 -----------
 Symbolic Z-matrix:
 Charge =  0 Multiplicity = 1

                         Standard orientation:
 ---------------------------------------------------------------------
 Center     Atomic      Atomic             Coordinates (Angstroms)
 Number     Number       Type             X           Y           Z
 ---------------------------------------------------------------------
      1          8           0        0.037694   -1.240368    0.000000
      2          1           0       -0.763350   -1.809432    0.000000
      3          1           0        0.835786   -1.813564    0.000000
      4          8           0        0.037694    1.268520    0.000000
      5          1           0        0.264741    2.224530    0.000000
      6          1           0       -0.940280    1.173252    0.000000
 ---------------------------------------------------------------------

 SCF Done:  E(RHF) =  -152.095825206     A.U. after   11 cycles
 E2 =    -0.5291618606D+00 EUMP2 =    -0.15262498706616D+03
 CCSD(T)
 CCSD(T)= -0.15265222345D+03

 The electronic state is 1-A'.
 Alpha  occ. eigenvalues --  -20.53961 -20.53063  -1.31659  -1.30258  -0.69015
 Alpha  occ. eigenvalues --   -0.67886  -0.56665  -0.51243  -0.48885  -0.47135
 Alpha virt. eigenvalues --    0.14170   0.17351   0.20319   0.22955   0.52903
 Alpha virt. eigenvalues --    0.58168   0.58288   0.60981   0.70425   0.76084
 Alpha virt. eigenvalues --    0.77153   0.78956   0.83513   0.85300   0.85840

 Mulliken charges:
               1
     1  O   -0.469051
     2  H    0.226774
     3  H    0.242782
     4  O   -0.455009
     5  H    0.213585
     6  H    0.240918
 Sum of Mulliken charges =  -0.00000

 Dipole moment (field-independent basis, Debye):
    X=             -1.1794    Y=             -0.5485    Z=              0.0000  Tot=              1.3007
 Quadrupole moment (field-independent basis, Debye-Ang):
   XX=             -8.8214   YY=             -3.0837   ZZ=            -14.7237
   XY=             -0.8509   XZ=              0.0000   YZ=              0.0000

 Normal termination of Gaussian 16 at Fri Aug 26 20:39:24 2022.
