 Gaussian 16, Revision A.03,
 Gaussian 16:  ES64L-G16RevA.03 25-Dec-2016

 ------------------
 #p CCSD(T)/cc-pVTZ
 ------------------

 ------------
 H2O_H2O_1530
 ------------
 Symbolic Z-matrix:
 Charge =  0 Multiplicity = 1

                         Standard orientation:
 ---------------------------------------------------------------------
 Center     Atomic      Atomic             Coordinates (Angstroms)
 Number     Number       Type             X           Y           Z
 ---------------------------------------------------------------------
      1          8           0        0.018361   -1.611376    0.000000
      2          1           0       -0.781768   -2.181725    0.000000
      3          1           0        0.817373   -2.183291    0.000000
      4          8           0        0.018361    1.617402    0.000000
      5          1           0        0.592696    2.414676    0.000000
      6          1           0       -0.922082    1.902131    0.000000
 ---------------------------------------------------------------------

 SCF Done:  E(RHF) =  -152.103130510     A.U. after   10 cycles
 E2 =    -0.5269948470D+00 EUMP2 =    -0.15263012535709D+03
 CCSD(T)
 CCSD(T)= -0.15265739328D+03

 The electronic state is 1-A'.
 Alpha  occ. eigenvalues --  -20.54179 -20.54046  -1.31490  -1.31302  -0.68913
 Alpha  occ. eigenvalues --   -0.68735  -0.55452  -0.53756  -0.48646  -0.48323
 Alpha virt. eigenvalues --    0.14249   0.16435   0.20541   0.21720   0.52536
 Alpha virt. eigenvalues --    0.58098   0.58182   0.58658   0.63523   0.76544
 Alpha virt. eigenvalues --    0.78340   0.78492   0.79617   0.82001   0.85612

 Mulliken charges:
               1
     1  O   -0.479341
     2  H    0.237260
     3  H    0.242331
     4  O   -0.478666
     5  H    0.236581
     6  H    0.241835
 Sum of Mulliken charges =  -0.00000

 Dipole moment (field-independent basis, Debye):
    X=             -0.6071    Y=             -0.1130    Z=              0.0000  Tot=              0.6176
 Quadrupole moment (field-independent basis, Debye-Ang):
   XX=             -8.0836   YY=              0.4575   ZZ=            -14.7095
   XY=             -0.5001   XZ=              0.0000   YZ=              0.0000

 Normal termination of Gaussian 16 at Sat Aug 27 05:18:23 2022.
