 Gaussian 16, Revision A.03,
 Gaussian 16:  ES64L-G16RevA.03 25-Dec-2016

 ------------------
 #p CCSD(T)/cc-pVTZ
 ------------------

 ------------
 H2O_H2O_4256
 ------------
 Symbolic Z-matrix:
 Charge =  0 Multiplicity = 1

                         Standard orientation:
 ---------------------------------------------------------------------
 Center     Atomic      Atomic             Coordinates (Angstroms)
 Number     Number       Type             X           Y           Z
 ---------------------------------------------------------------------
      1          8           0        0.021859   -3.059196    0.000000
      2          1           0       -0.778063   -3.629836    0.000000
      3          1           0        0.821079   -3.630819    0.000000
      4          8           0        0.021859    3.067864    0.000000
      5          1           0        0.542516    3.901184    0.000000
      6          1           0       -0.935275    3.290126    0.000000
 ---------------------------------------------------------------------

 SCF Done:  E(RHF) =  -152.106822206     A.U. after   10 cycles
 E2 =    -0.5259326926D+00 EUMP2 =    -0.15263275489869D+03
 CCSD(T)
 CCSD(T)= -0.15265998736D+03

 The electronic state is 1-A'.
 Alpha  occ. eigenvalues --  -20.55208 -20.55155  -1.32504  -1.32450  -0.69911
 Alpha  occ. eigenvalues --   -0.69856  -0.55924  -0.55870  -0.49611  -0.49557
 Alpha virt. eigenvalues --    0.14411   0.14484   0.20463   0.20523   0.54657
 Alpha virt. eigenvalues --    0.54717   0.57524   0.57579   0.68278   0.68400
 Alpha virt. eigenvalues --    0.79268   0.79321   0.80712   0.80770   0.82641

 Mulliken charges:
               1
     1  O   -0.505414
     2  H    0.252166
     3  H    0.253248
     4  O   -0.505356
     5  H    0.251907
     6  H    0.253450
 Sum of Mulliken charges =  -0.00000

 Dipole moment (field-independent basis, Debye):
    X=             -0.7506    Y=             -0.1514    Z=              0.0000  Tot=              0.7658
 Quadrupole moment (field-independent basis, Debye-Ang):
   XX=             -8.1044   YY=             11.8326   ZZ=            -14.7107
   XY=             -1.6760   XZ=              0.0000   YZ=              0.0000

 Normal termination of Gaussian 16 at Sat Aug 27 06:17:21 2022.
