 Gaussian 16, Revision A.03,
 Gaussian 16:  ES64L-G16RevA.03 25-Dec-2016

 ------------------
 #p CCSD(T)/cc-pVTZ
 ------------------

 -----------
 H2O_H2O_171
 -----------
 Symbolic Z-matrix:
 Charge =  0 Multiplicity = 1

                         Standard orientation:
 ---------------------------------------------------------------------
 Center     Atomic      Atomic             Coordinates (Angstroms)
 Number     Number       Type             X           Y           Z
 ---------------------------------------------------------------------
      1          8           0        0.056267   -0.833767    0.000000
      2          1           0       -0.746424   -1.400506    0.000000
      3          1           0        0.852694   -1.409275    0.000000
      4          8           0        0.056267    0.925093    0.000000
      5          1           0       -0.342985    1.822926    0.000000
      6          1           0       -0.663558    0.256244    0.000000
 ---------------------------------------------------------------------

 SCF Done:  E(RHF) =  -151.963139698     A.U. after   11 cycles
 E2 =    -0.5462756059D+00 EUMP2 =    -0.15250941530344D+03
 CCSD(T)
 CCSD(T)= -0.15253456108D+03

 The electronic state is 1-A'.
 Alpha  occ. eigenvalues --  -20.55841 -20.48559  -1.39932  -1.26195  -0.77481
 Alpha  occ. eigenvalues --   -0.71952  -0.54543  -0.51559  -0.44491  -0.43149
 Alpha virt. eigenvalues --    0.13017   0.18488   0.20081   0.26061   0.49773
 Alpha virt. eigenvalues --    0.54177   0.62369   0.68230   0.73122   0.76082
 Alpha virt. eigenvalues --    0.78478   0.79796   0.84233   0.85106   0.88546

 Mulliken charges:
               1
     1  O   -0.316177
     2  H    0.169236
     3  H    0.216361
     4  O   -0.473790
     5  H    0.142509
     6  H    0.261861
 Sum of Mulliken charges =  -0.00000

 Dipole moment (field-independent basis, Debye):
    X=             -1.5036    Y=             -2.2641    Z=              0.0000  Tot=              2.7179
 Quadrupole moment (field-independent basis, Debye-Ang):
   XX=             -9.8156   YY=             -8.2635   ZZ=            -14.5748
   XY=             -1.5857   XZ=              0.0000   YZ=              0.0000

 Normal termination of Gaussian 16 at Fri Aug 26 13:36:08 2022.
