 Gaussian 16, Revision A.03,
 Gaussian 16:  ES64L-G16RevA.03 25-Dec-2016

 ------------------
 #p CCSD(T)/cc-pVTZ
 ------------------

 ------------
 H2O_H2O_1674
 ------------
 Symbolic Z-matrix:
 Charge =  0 Multiplicity = 1

                         Standard orientation:
 ---------------------------------------------------------------------
 Center     Atomic      Atomic             Coordinates (Angstroms)
 Number     Number       Type             X           Y           Z
 ---------------------------------------------------------------------
      1          8           0        0.057280   -1.619274    0.000000
      2          1           0       -0.743962   -2.188059    0.000000
      3          1           0        0.855173   -2.192749    0.000000
      4          8           0        0.057280    1.733165    0.000000
      5          1           0       -0.511504    2.534408    0.000000
      6          1           0       -0.516194    0.935272    0.000000
 ---------------------------------------------------------------------

 SCF Done:  E(RHF) =  -152.110014787     A.U. after   10 cycles
 E2 =    -0.5267612658D+00 EUMP2 =    -0.15263677605329D+03
 CCSD(T)
 CCSD(T)= -0.15266387236D+03

 The electronic state is 1-A'.
 Alpha  occ. eigenvalues --  -20.56567 -20.53613  -1.33837  -1.30936  -0.71234
 Alpha  occ. eigenvalues --   -0.68350  -0.57332  -0.54428  -0.50962  -0.48074
 Alpha virt. eigenvalues --    0.12868   0.16915   0.19580   0.25260   0.52445
 Alpha virt. eigenvalues --    0.55745   0.56603   0.58028   0.67808   0.75145
 Alpha virt. eigenvalues --    0.76532   0.76746   0.80415   0.81195   0.84060

 Mulliken charges:
               1
     1  O   -0.497931
     2  H    0.248288
     3  H    0.260203
     4  O   -0.518264
     5  H    0.241867
     6  H    0.265837
 Sum of Mulliken charges =  -0.00000

 Dipole moment (field-independent basis, Debye):
    X=             -1.9045    Y=             -2.1919    Z=              0.0000  Tot=              2.9037
 Quadrupole moment (field-independent basis, Debye-Ang):
   XX=             -9.8600   YY=             -3.4632   ZZ=            -14.7244
   XY=             -3.6090   XZ=              0.0000   YZ=              0.0000

 Normal termination of Gaussian 16 at Sat Aug 27 06:09:10 2022.
