 Gaussian 16, Revision A.03,
 Gaussian 16:  ES64L-G16RevA.03 25-Dec-2016

 ------------------
 #p CCSD(T)/cc-pVTZ
 ------------------

 ----------
 H2O_H2O_21
 ----------
 Symbolic Z-matrix:
 Charge =  0 Multiplicity = 1

                         Standard orientation:
 ---------------------------------------------------------------------
 Center     Atomic      Atomic             Coordinates (Angstroms)
 Number     Number       Type             X           Y           Z
 ---------------------------------------------------------------------
      1          8           0        0.056292   -0.754024    0.000000
      2          1           0       -0.746708   -1.320324    0.000000
      3          1           0        0.852404   -1.329967    0.000000
      4          8           0        0.056292    0.845288    0.000000
      5          1           0       -0.342469    1.743339    0.000000
      6          1           0       -0.663899    0.176834    0.000000
 ---------------------------------------------------------------------

 SCF Done:  E(RHF) =  -151.854044463     A.U. after   12 cycles
 E2 =    -0.5560905873D+00 EUMP2 =    -0.15241013505070D+03
 CCSD(T)
 CCSD(T)= -0.15243373734D+03

 The electronic state is 1-A'.
 Alpha  occ. eigenvalues --  -20.56409 -20.47852  -1.44859  -1.25239  -0.80979
 Alpha  occ. eigenvalues --   -0.74170  -0.57256  -0.51159  -0.42268  -0.38450
 Alpha virt. eigenvalues --    0.12865   0.17880   0.20799   0.25796   0.49340
 Alpha virt. eigenvalues --    0.53320   0.62190   0.70050   0.73408   0.75472
 Alpha virt. eigenvalues --    0.76823   0.79853   0.84507   0.84742   0.89324

 Mulliken charges:
               1
     1  O   -0.241002
     2  H    0.137729
     3  H    0.197021
     4  O   -0.457542
     5  H    0.097815
     6  H    0.265979
 Sum of Mulliken charges =  -0.00000

 Dipole moment (field-independent basis, Debye):
    X=             -1.3874    Y=             -2.3861    Z=              0.0000  Tot=              2.7602
 Quadrupole moment (field-independent basis, Debye-Ang):
   XX=             -9.8784   YY=             -9.7710   ZZ=            -14.5073
   XY=             -1.3539   XZ=              0.0000   YZ=              0.0000

 Normal termination of Gaussian 16 at Fri Aug 26 11:57:36 2022.
