 Gaussian 16, Revision A.03,
 Gaussian 16:  ES64L-G16RevA.03 25-Dec-2016

 ------------------
 #p CCSD(T)/cc-pVTZ
 ------------------

 -----------
 H2O_H2O_433
 -----------
 Symbolic Z-matrix:
 Charge =  0 Multiplicity = 1

                         Standard orientation:
 ---------------------------------------------------------------------
 Center     Atomic      Atomic             Coordinates (Angstroms)
 Number     Number       Type             X           Y           Z
 ---------------------------------------------------------------------
      1          8           0        0.028575   -1.021390    0.000000
      2          1           0       -0.772359   -1.590610    0.000000
      3          1           0        0.826779   -1.594431    0.000000
      4          8           0        0.028575    1.036557    0.000000
      5          1           0        0.437595    1.929983    0.000000
      6          1           0       -0.949211    1.133722    0.000000
 ---------------------------------------------------------------------

 SCF Done:  E(RHF) =  -152.062160091     A.U. after   11 cycles
 E2 =    -0.5340454152D+00 EUMP2 =    -0.15259620550658D+03
 CCSD(T)
 CCSD(T)= -0.15262312438D+03

 The electronic state is 1-A'.
 Alpha  occ. eigenvalues --  -20.52528 -20.52038  -1.32065  -1.28836  -0.68964
 Alpha  occ. eigenvalues --   -0.67088  -0.59555  -0.49268  -0.45545  -0.45388
 Alpha virt. eigenvalues --    0.14474   0.18091   0.20355   0.23117   0.52126
 Alpha virt. eigenvalues --    0.58221   0.58682   0.64437   0.70347   0.77179
 Alpha virt. eigenvalues --    0.78471   0.82192   0.83912   0.86244   0.87776

 Mulliken charges:
               1
     1  O   -0.444041
     2  H    0.212493
     3  H    0.229116
     4  O   -0.417336
     5  H    0.186354
     6  H    0.233415
 Sum of Mulliken charges =  -0.00000

 Dipole moment (field-independent basis, Debye):
    X=             -0.8386    Y=             -0.3118    Z=              0.0000  Tot=              0.8947
 Quadrupole moment (field-independent basis, Debye-Ang):
   XX=             -8.5783   YY=             -5.3751   ZZ=            -14.7376
   XY=             -0.3676   XZ=              0.0000   YZ=              0.0000

 118654\MP4DQ=-152.60371\MP4SDQ=-152.6071853\CCSD=-152.6064298\CCSD(T)=
 Normal termination of Gaussian 16 at Fri Aug 26 16:25:11 2022.
