 Gaussian 16, Revision A.03,
 Gaussian 16:  ES64L-G16RevA.03 25-Dec-2016

 ------------------
 #p CCSD(T)/cc-pVTZ
 ------------------

 ------------
 H2O_H2O_3724
 ------------
 Symbolic Z-matrix:
 Charge =  0 Multiplicity = 1

                         Standard orientation:
 ---------------------------------------------------------------------
 Center     Atomic      Atomic             Coordinates (Angstroms)
 Number     Number       Type             X           Y           Z
 ---------------------------------------------------------------------
      1          8           0        0.057215   -2.709470    0.000000
      2          1           0       -0.743370   -3.279180    0.000000
      3          1           0        0.855769   -3.282022    0.000000
      4          8           0        0.057215    2.823493    0.000000
      5          1           0       -0.512496    3.624078    0.000000
      6          1           0       -0.515337    2.024938    0.000000
 ---------------------------------------------------------------------

 SCF Done:  E(RHF) =  -152.107873173     A.U. after   10 cycles
 E2 =    -0.5258647305D+00 EUMP2 =    -0.15263373790389D+03
 CCSD(T)
 CCSD(T)= -0.15266094558D+03

 The electronic state is 1-A'.
 Alpha  occ. eigenvalues --  -20.55842 -20.54964  -1.33141  -1.32266  -0.70546
 Alpha  occ. eigenvalues --   -0.69659  -0.56610  -0.55723  -0.50256  -0.49383
 Alpha virt. eigenvalues --    0.13686   0.14858   0.19961   0.20964   0.53998
 Alpha virt. eigenvalues --    0.54865   0.56969   0.57790   0.67191   0.68838
 Alpha virt. eigenvalues --    0.78628   0.79480   0.80024   0.80479   0.82625

 Mulliken charges:
               1
     1  O   -0.511519
     2  H    0.254089
     3  H    0.257512
     4  O   -0.510896
     5  H    0.251553
     6  H    0.259260
 Sum of Mulliken charges =  -0.00000

 Dipole moment (field-independent basis, Debye):
    X=             -1.9622    Y=             -2.0071    Z=              0.0000  Tot=              2.8069
 Quadrupole moment (field-independent basis, Debye-Ang):
   XX=             -9.8634   YY=              0.9528   ZZ=            -14.7134
   XY=             -5.7051   XZ=              0.0000   YZ=              0.0000

 Normal termination of Gaussian 16 at Sat Aug 27 02:47:15 2022.
