 Gaussian 16, Revision A.03,
 Gaussian 16:  ES64L-G16RevA.03 25-Dec-2016

 ------------------
 #p CCSD(T)/cc-pVTZ
 ------------------

 ------------
 H2O_H2O_2130
 ------------
 Symbolic Z-matrix:
 Charge =  0 Multiplicity = 1

                         Standard orientation:
 ---------------------------------------------------------------------
 Center     Atomic      Atomic             Coordinates (Angstroms)
 Number     Number       Type             X           Y           Z
 ---------------------------------------------------------------------
      1          8           0        0.018361   -1.930475    0.000000
      2          1           0       -0.781677   -2.500953    0.000000
      3          1           0        0.817465   -2.502261    0.000000
      4          8           0        0.018361    1.936507    0.000000
      5          1           0        0.592567    2.733873    0.000000
      6          1           0       -0.922129    2.221084    0.000000
 ---------------------------------------------------------------------

 SCF Done:  E(RHF) =  -152.105062119     A.U. after   10 cycles
 E2 =    -0.5263624883D+00 EUMP2 =    -0.15263142460770D+03
 CCSD(T)
 CCSD(T)= -0.15265866961D+03

 The electronic state is 1-A'.
 Alpha  occ. eigenvalues --  -20.54583 -20.54485  -1.31865  -1.31764  -0.69284
 Alpha  occ. eigenvalues --   -0.69178  -0.55366  -0.54885  -0.48971  -0.48852
 Alpha virt. eigenvalues --    0.14136   0.15754   0.20582   0.21229   0.53973
 Alpha virt. eigenvalues --    0.56229   0.57912   0.58212   0.62110   0.75143
 Alpha virt. eigenvalues --    0.79413   0.80324   0.80468   0.81120   0.82444

 Mulliken charges:
               1
     1  O   -0.492948
     2  H    0.244951
     3  H    0.248113
     4  O   -0.492844
     5  H    0.244436
     6  H    0.248292
 Sum of Mulliken charges =  -0.00000

 Dipole moment (field-independent basis, Debye):
    X=             -0.6188    Y=             -0.1100    Z=              0.0000  Tot=              0.6286
 Quadrupole moment (field-independent basis, Debye-Ang):
   XX=             -8.0489   YY=              3.1056   ZZ=            -14.7096
   XY=             -0.6931   XZ=              0.0000   YZ=              0.0000

 Normal termination of Gaussian 16 at Sat Aug 27 08:45:27 2022.
