 Gaussian 16, Revision A.03,
 Gaussian 16:  ES64L-G16RevA.03 25-Dec-2016

 ------------------
 #p CCSD(T)/cc-pVTZ
 ------------------

 ------------
 H2O_H2O_1152
 ------------
 Symbolic Z-matrix:
 Charge =  0 Multiplicity = 1

                         Standard orientation:
 ---------------------------------------------------------------------
 Center     Atomic      Atomic             Coordinates (Angstroms)
 Number     Number       Type             X           Y           Z
 ---------------------------------------------------------------------
      1          8           0        0.007455   -1.414683    0.000000
      2          1           0       -0.792375   -1.985453    0.000000
      3          1           0        0.806767   -1.986178    0.000000
      4          8           0        0.007455    1.415654    0.000000
      5          1           0        0.725942    2.085939    0.000000
      6          1           0       -0.859615    1.877928    0.000000
 ---------------------------------------------------------------------

 SCF Done:  E(RHF) =  -152.099401142     A.U. after   10 cycles
 E2 =    -0.5278214570D+00 EUMP2 =    -0.15262722259866D+03
 CCSD(T)
 CCSD(T)= -0.15265453633D+03

 The electronic state is 1-A'.
 Alpha  occ. eigenvalues --  -20.53626 -20.53601  -1.31142  -1.30777  -0.68529
 Alpha  occ. eigenvalues --   -0.68265  -0.55924  -0.52173  -0.48374  -0.47676
 Alpha virt. eigenvalues --    0.14431   0.16972   0.20562   0.22020   0.51132
 Alpha virt. eigenvalues --    0.58475   0.58745   0.61010   0.69321   0.76340
 Alpha virt. eigenvalues --    0.77261   0.78122   0.79214   0.83225   0.86251

 Mulliken charges:
               1
     1  O   -0.468059
     2  H    0.232540
     3  H    0.235480
     4  O   -0.467347
     5  H    0.232456
     6  H    0.234930
 Sum of Mulliken charges =  -0.00000

 Dipole moment (field-independent basis, Debye):
    X=             -0.2411    Y=             -0.0184    Z=              0.0000  Tot=              0.2418
 Quadrupole moment (field-independent basis, Debye-Ang):
   XX=             -7.9553   YY=             -1.2381   ZZ=            -14.7132
   XY=             -0.1443   XZ=              0.0000   YZ=              0.0000

 Normal termination of Gaussian 16 at Sat Aug 27 02:32:41 2022.
