 Gaussian 16, Revision A.03,
 Gaussian 16:  ES64L-G16RevA.03 25-Dec-2016

 ------------------
 #p CCSD(T)/cc-pVTZ
 ------------------

 -----------
 H2O_H2O_869
 -----------
 Symbolic Z-matrix:
 Charge =  0 Multiplicity = 1

                         Standard orientation:
 ---------------------------------------------------------------------
 Center     Atomic      Atomic             Coordinates (Angstroms)
 Number     Number       Type             X           Y           Z
 ---------------------------------------------------------------------
      1          8           0        0.054226   -1.213779    0.000000
      2          1           0       -0.747463   -1.781934    0.000000
      3          1           0        0.851668   -1.787879    0.000000
      4          8           0        0.054226    1.290886    0.000000
      5          1           0       -0.226084    2.232657    0.000000
      6          1           0       -0.745737    0.720301    0.000000
 ---------------------------------------------------------------------

 SCF Done:  E(RHF) =  -152.099818054     A.U. after   11 cycles
 E2 =    -0.5296218001D+00 EUMP2 =    -0.15262943985395D+03
 CCSD(T)
 CCSD(T)= -0.15265650935D+03

 The electronic state is 1-A'.
 Alpha  occ. eigenvalues --  -20.55655 -20.52537  -1.33372  -1.29841  -0.70762
 Alpha  occ. eigenvalues --   -0.68054  -0.56057  -0.52953  -0.50448  -0.46881
 Alpha virt. eigenvalues --    0.13437   0.17804   0.19758   0.24700   0.52089
 Alpha virt. eigenvalues --    0.56887   0.59610   0.59974   0.71245   0.74353
 Alpha virt. eigenvalues --    0.76911   0.82855   0.83247   0.84128   0.84416

 Mulliken charges:
               1
     1  O   -0.467477
     2  H    0.231447
     3  H    0.249916
     4  O   -0.486289
     5  H    0.216600
     6  H    0.255803
 Sum of Mulliken charges =  -0.00000

 Dipole moment (field-independent basis, Debye):
    X=             -1.6965    Y=             -1.5675    Z=              0.0000  Tot=              2.3098
 Quadrupole moment (field-independent basis, Debye-Ang):
   XX=             -9.6873   YY=             -4.2082   ZZ=            -14.7229
   XY=             -2.0443   XZ=              0.0000   YZ=              0.0000

 4564\MP4DQ=-152.637802\MP4SDQ=-152.6410285\CCSD=-152.6403733\CCSD(T)=-
 Normal termination of Gaussian 16 at Fri Aug 26 20:43:26 2022.
