 Gaussian 16, Revision A.03,
 Gaussian 16:  ES64L-G16RevA.03 25-Dec-2016

 ------------------
 #p CCSD(T)/cc-pVTZ
 ------------------

 ------------
 H2O_H2O_1380
 ------------
 Symbolic Z-matrix:
 Charge =  0 Multiplicity = 1

                         Standard orientation:
 ---------------------------------------------------------------------
 Center     Atomic      Atomic             Coordinates (Angstroms)
 Number     Number       Type             X           Y           Z
 ---------------------------------------------------------------------
      1          8           0        0.018362   -1.531602    0.000000
      2          1           0       -0.781797   -2.101910    0.000000
      3          1           0        0.817344   -2.103557    0.000000
      4          8           0        0.018362    1.537626    0.000000
      5          1           0        0.592737    2.334871    0.000000
      6          1           0       -0.922068    1.822403    0.000000
 ---------------------------------------------------------------------

 SCF Done:  E(RHF) =  -152.102158758     A.U. after   11 cycles
 E2 =    -0.5272611018D+00 EUMP2 =    -0.15262941985985D+03
 CCSD(T)
 CCSD(T)= -0.15265670176D+03

 The electronic state is 1-A'.
 Alpha  occ. eigenvalues --  -20.54031 -20.53889  -1.31380  -1.31133  -0.68797
 Alpha  occ. eigenvalues --   -0.68578  -0.55579  -0.53278  -0.48560  -0.48118
 Alpha virt. eigenvalues --    0.14298   0.16630   0.20533   0.21868   0.52127
 Alpha virt. eigenvalues --    0.58277   0.58542   0.59187   0.65338   0.76593
 Alpha virt. eigenvalues --    0.77893   0.78363   0.79188   0.82489   0.85995

 Mulliken charges:
               1
     1  O   -0.475597
     2  H    0.234971
     3  H    0.240802
     4  O   -0.473977
     5  H    0.234058
     6  H    0.239742
 Sum of Mulliken charges =  -0.00000

 Dipole moment (field-independent basis, Debye):
    X=             -0.6025    Y=             -0.1136    Z=              0.0000  Tot=              0.6131
 Quadrupole moment (field-independent basis, Debye-Ang):
   XX=             -8.0978   YY=             -0.2346   ZZ=            -14.7104
   XY=             -0.4528   XZ=              0.0000   YZ=              0.0000

 Normal termination of Gaussian 16 at Sat Aug 27 04:22:42 2022.
