 Gaussian 16, Revision A.03,
 Gaussian 16:  ES64L-G16RevA.03 25-Dec-2016

 ------------------
 #p CCSD(T)/cc-pVTZ
 ------------------

 ------------
 H2O_H2O_2645
 ------------
 Symbolic Z-matrix:
 Charge =  0 Multiplicity = 1

                         Standard orientation:
 ---------------------------------------------------------------------
 Center     Atomic      Atomic             Coordinates (Angstroms)
 Number     Number       Type             X           Y           Z
 ---------------------------------------------------------------------
      1          8           0        0.055259   -2.153818    0.000000
      2          1           0       -0.745546   -2.723220    0.000000
      3          1           0        0.853593   -2.726678    0.000000
      4          8           0        0.055259    2.238242    0.000000
      5          1           0       -0.287478    3.159132    0.000000
      6          1           0       -0.704705    1.615378    0.000000
 ---------------------------------------------------------------------

 SCF Done:  E(RHF) =  -152.107717082     A.U. after   10 cycles
 E2 =    -0.5260362724D+00 EUMP2 =    -0.15263375335402D+03
 CCSD(T)
 CCSD(T)= -0.15266094784D+03

 The electronic state is 1-A'.
 Alpha  occ. eigenvalues --  -20.55708 -20.54592  -1.32995  -1.31886  -0.70403
 Alpha  occ. eigenvalues --   -0.69266  -0.56443  -0.55333  -0.50109  -0.49006
 Alpha virt. eigenvalues --    0.13308   0.15585   0.20008   0.21731   0.54042
 Alpha virt. eigenvalues --    0.54732   0.57131   0.58157   0.66275   0.72288
 Alpha virt. eigenvalues --    0.78769   0.79668   0.79863   0.81277   0.82553

 Mulliken charges:
               1
     1  O   -0.507355
     2  H    0.250948
     3  H    0.257529
     4  O   -0.509078
     5  H    0.247901
     6  H    0.260055
 Sum of Mulliken charges =  -0.00000

 Dipole moment (field-independent basis, Debye):
    X=             -1.8787    Y=             -1.5213    Z=              0.0000  Tot=              2.4175
 Quadrupole moment (field-independent basis, Debye-Ang):
   XX=             -9.7228   YY=              0.8327   ZZ=            -14.7143
   XY=             -3.9304   XZ=              0.0000   YZ=              0.0000

 Normal termination of Gaussian 16 at Fri Aug 26 14:41:14 2022.
