 Gaussian 16, Revision A.03,
 Gaussian 16:  ES64L-G16RevA.03 25-Dec-2016

 ------------------
 #p CCSD(T)/cc-pVTZ
 ------------------

 ------------
 H2O_H2O_3111
 ------------
 Symbolic Z-matrix:
 Charge =  0 Multiplicity = 1

                         Standard orientation:
 ---------------------------------------------------------------------
 Center     Atomic      Atomic             Coordinates (Angstroms)
 Number     Number       Type             X           Y           Z
 ---------------------------------------------------------------------
      1          8           0        0.037676   -2.436950    0.000000
      2          1           0       -0.762650   -3.007024    0.000000
      3          1           0        0.836491   -3.009139    0.000000
      4          8           0        0.037676    2.465197    0.000000
      5          1           0        0.263517    3.421493    0.000000
      6          1           0       -0.940176    2.368696    0.000000
 ---------------------------------------------------------------------

 SCF Done:  E(RHF) =  -152.106545122     A.U. after   10 cycles
 E2 =    -0.5260019525D+00 EUMP2 =    -0.15263254707494D+03
 CCSD(T)
 CCSD(T)= -0.15265978218D+03

 The electronic state is 1-A'.
 Alpha  occ. eigenvalues --  -20.55146 -20.54870  -1.32440  -1.32161  -0.69850
 Alpha  occ. eigenvalues --   -0.69562  -0.55846  -0.55567  -0.49545  -0.49268
 Alpha virt. eigenvalues --    0.14192   0.14966   0.20421   0.20859   0.54609
 Alpha virt. eigenvalues --    0.55051   0.57557   0.57836   0.67197   0.70072
 Alpha virt. eigenvalues --    0.79330   0.79606   0.80723   0.81136   0.82751

 Mulliken charges:
               1
     1  O   -0.503780
     2  H    0.250156
     3  H    0.253657
     4  O   -0.503388
     5  H    0.249143
     6  H    0.254211
 Sum of Mulliken charges =  -0.00000

 Dipole moment (field-independent basis, Debye):
    X=             -1.2868    Y=             -0.4995    Z=              0.0000  Tot=              1.3804
 Quadrupole moment (field-independent basis, Debye-Ang):
   XX=             -8.7018   YY=              5.9769   ZZ=            -14.7107
   XY=             -2.3387   XZ=              0.0000   YZ=              0.0000

 Normal termination of Gaussian 16 at Fri Aug 26 19:31:31 2022.
