 Gaussian 16, Revision A.03,
 Gaussian 16:  ES64L-G16RevA.03 25-Dec-2016

 ------------------
 #p CCSD(T)/cc-pVTZ
 ------------------

 ------------
 H2O_H2O_2171
 ------------
 Symbolic Z-matrix:
 Charge =  0 Multiplicity = 1

                         Standard orientation:
 ---------------------------------------------------------------------
 Center     Atomic      Atomic             Coordinates (Angstroms)
 Number     Number       Type             X           Y           Z
 ---------------------------------------------------------------------
      1          8           0        0.056130   -1.897264    0.000000
      2          1           0       -0.744856   -2.466410    0.000000
      3          1           0        0.854281   -2.470378    0.000000
      4          8           0        0.056130    1.988927    0.000000
      5          1           0       -0.345815    2.885558    0.000000
      6          1           0       -0.661685    1.317921    0.000000
 ---------------------------------------------------------------------

 SCF Done:  E(RHF) =  -152.108239504     A.U. after   10 cycles
 E2 =    -0.5262376910D+00 EUMP2 =    -0.15263447719505D+03
 CCSD(T)
 CCSD(T)= -0.15266164142D+03

 The electronic state is 1-A'.
 Alpha  occ. eigenvalues --  -20.55902 -20.54268  -1.33175  -1.31561  -0.70584
 Alpha  occ. eigenvalues --   -0.68930  -0.56629  -0.55017  -0.50294  -0.48687
 Alpha virt. eigenvalues --    0.13104   0.16123   0.19887   0.22822   0.53997
 Alpha virt. eigenvalues --    0.54688   0.56969   0.58556   0.65851   0.74271
 Alpha virt. eigenvalues --    0.78404   0.79149   0.80296   0.80597   0.83670

 Mulliken charges:
               1
     1  O   -0.503395
     2  H    0.249034
     3  H    0.257722
     4  O   -0.510603
     5  H    0.245318
     6  H    0.261923
 Sum of Mulliken charges =  -0.00000

 Dipole moment (field-independent basis, Debye):
    X=             -1.8925    Y=             -1.6900    Z=              0.0000  Tot=              2.5373
 Quadrupole moment (field-independent basis, Debye-Ang):
   XX=             -9.7829   YY=             -0.8973   ZZ=            -14.7167
   XY=             -3.6439   XZ=              0.0000   YZ=              0.0000

 Normal termination of Gaussian 16 at Sat Aug 27 08:59:32 2022.
