 Gaussian 16, Revision A.03,
 Gaussian 16:  ES64L-G16RevA.03 25-Dec-2016

 ------------------
 #p CCSD(T)/cc-pVTZ
 ------------------

 ------------
 H2O_H2O_2366
 ------------
 Symbolic Z-matrix:
 Charge =  0 Multiplicity = 1

                         Standard orientation:
 ---------------------------------------------------------------------
 Center     Atomic      Atomic             Coordinates (Angstroms)
 Number     Number       Type             X           Y           Z
 ---------------------------------------------------------------------
      1          8           0        0.049521   -2.022507    0.000000
      2          1           0       -0.751234   -2.591977    0.000000
      3          1           0        0.847904   -2.595297    0.000000
      4          8           0        0.049521    2.079414    0.000000
      5          1           0       -0.043278    3.057624    0.000000
      6          1           0       -0.845722    1.674389    0.000000
 ---------------------------------------------------------------------

 SCF Done:  E(RHF) =  -152.106905957     A.U. after   10 cycles
 E2 =    -0.5261639799D+00 EUMP2 =    -0.15263306993665D+03
 CCSD(T)
 CCSD(T)= -0.15266027718D+03

 The electronic state is 1-A'.
 Alpha  occ. eigenvalues --  -20.55362 -20.54506  -1.32646  -1.31790  -0.70058
 Alpha  occ. eigenvalues --   -0.69173  -0.56056  -0.55199  -0.49755  -0.48905
 Alpha virt. eigenvalues --    0.13525   0.15741   0.20171   0.21684   0.53847
 Alpha virt. eigenvalues --    0.54833   0.57409   0.58230   0.65226   0.74370
 Alpha virt. eigenvalues --    0.79031   0.79788   0.80048   0.81821   0.83611

 Mulliken charges:
               1
     1  O   -0.502538
     2  H    0.248156
     3  H    0.255396
     4  O   -0.503912
     5  H    0.245704
     6  H    0.257195
 Sum of Mulliken charges =  -0.00000

 Dipole moment (field-independent basis, Debye):
    X=             -1.6760    Y=             -1.0321    Z=              0.0000  Tot=              1.9683
 Quadrupole moment (field-independent basis, Debye-Ang):
   XX=             -9.3507   YY=              1.7002   ZZ=            -14.7129
   XY=             -2.8531   XZ=              0.0000   YZ=              0.0000

 Normal termination of Gaussian 16 at Sat Aug 27 10:09:42 2022.
