 Gaussian 16, Revision A.03,
 Gaussian 16:  ES64L-G16RevA.03 25-Dec-2016

 ------------------
 #p CCSD(T)/cc-pVTZ
 ------------------

 ------------
 H2O_H2O_1368
 ------------
 Symbolic Z-matrix:
 Charge =  0 Multiplicity = 1

                         Standard orientation:
 ---------------------------------------------------------------------
 Center     Atomic      Atomic             Coordinates (Angstroms)
 Number     Number       Type             X           Y           Z
 ---------------------------------------------------------------------
      1          8           0        0.052871   -1.483451    0.000000
      2          1           0       -0.748405   -2.052188    0.000000
      3          1           0        0.850730   -2.056972    0.000000
      4          8           0        0.052871    1.553649    0.000000
      5          1           0       -0.165939    2.511578    0.000000
      6          1           0       -0.782321    1.036000    0.000000
 ---------------------------------------------------------------------

 SCF Done:  E(RHF) =  -152.106433188     A.U. after   10 cycles
 E2 =    -0.5273088039D+00 EUMP2 =    -0.15263374199192D+03
 CCSD(T)
 CCSD(T)= -0.15266089979D+03

 The electronic state is 1-A'.
 Alpha  occ. eigenvalues --  -20.55577 -20.53566  -1.32890  -1.30831  -0.70308
 Alpha  occ. eigenvalues --   -0.68268  -0.56277  -0.54142  -0.50006  -0.47942
 Alpha virt. eigenvalues --    0.13488   0.16967   0.19916   0.23614   0.53860
 Alpha virt. eigenvalues --    0.55848   0.57207   0.58337   0.67544   0.75605
 Alpha virt. eigenvalues --    0.76564   0.76919   0.79946   0.82073   0.84787

 Mulliken charges:
               1
     1  O   -0.485944
     2  H    0.239173
     3  H    0.254033
     4  O   -0.495684
     5  H    0.232635
     6  H    0.255788
 Sum of Mulliken charges =  -0.00000

 Dipole moment (field-independent basis, Debye):
    X=             -1.7262    Y=             -1.3560    Z=              0.0000  Tot=              2.1951
 Quadrupole moment (field-independent basis, Debye-Ang):
   XX=             -9.5827   YY=             -2.1855   ZZ=            -14.7207
   XY=             -2.3336   XZ=              0.0000   YZ=              0.0000

 Normal termination of Gaussian 16 at Sat Aug 27 04:17:17 2022.
