 Gaussian 16, Revision A.03,
 Gaussian 16:  ES64L-G16RevA.03 25-Dec-2016

 ------------------
 #p CCSD(T)/cc-pVTZ
 ------------------

 -----------
 H2O_H2O_863
 -----------
 Symbolic Z-matrix:
 Charge =  0 Multiplicity = 1

                         Standard orientation:
 ---------------------------------------------------------------------
 Center     Atomic      Atomic             Coordinates (Angstroms)
 Number     Number       Type             X           Y           Z
 ---------------------------------------------------------------------
      1          8           0        0.042997   -1.234661    0.000000
      2          1           0       -0.758254   -1.803434    0.000000
      3          1           0        0.840881   -1.808148    0.000000
      4          8           0        0.042997    1.273320    0.000000
      5          1           0        0.143673    2.250750    0.000000
      6          1           0       -0.914255    1.051564    0.000000
 ---------------------------------------------------------------------

 SCF Done:  E(RHF) =  -152.096869089     A.U. after   11 cycles
 E2 =    -0.5291919412D+00 EUMP2 =    -0.15262606103037D+03
 CCSD(T)
 CCSD(T)= -0.15265327156D+03

 The electronic state is 1-A'.
 Alpha  occ. eigenvalues --  -20.54299 -20.53013  -1.31974  -1.30219  -0.69348
 Alpha  occ. eigenvalues --   -0.67911  -0.56525  -0.51666  -0.49165  -0.47144
 Alpha virt. eigenvalues --    0.14021   0.17397   0.20203   0.23236   0.53268
 Alpha virt. eigenvalues --    0.57897   0.58177   0.60417   0.70595   0.75756
 Alpha virt. eigenvalues --    0.77483   0.78955   0.83327   0.85085   0.85561

 Mulliken charges:
               1
     1  O   -0.470057
     2  H    0.227623
     3  H    0.245109
     4  O   -0.459452
     5  H    0.212856
     6  H    0.243922
 Sum of Mulliken charges =   0.00000

 Dipole moment (field-independent basis, Debye):
    X=             -1.3446    Y=             -0.7568    Z=              0.0000  Tot=              1.5429
 Quadrupole moment (field-independent basis, Debye-Ang):
   XX=             -9.0710   YY=             -3.2576   ZZ=            -14.7240
   XY=             -1.1080   XZ=              0.0000   YZ=              0.0000

 4169\MP4DQ=-152.6345991\MP4SDQ=-152.6378334\CCSD=-152.6371786\CCSD(T)=
 Normal termination of Gaussian 16 at Fri Aug 26 20:40:20 2022.
