 Gaussian 16, Revision A.03,
 Gaussian 16:  ES64L-G16RevA.03 25-Dec-2016

 ------------------
 #p CCSD(T)/cc-pVTZ
 ------------------

 ------------
 H2O_H2O_4808
 ------------
 Symbolic Z-matrix:
 Charge =  0 Multiplicity = 1

                         Standard orientation:
 ---------------------------------------------------------------------
 Center     Atomic      Atomic             Coordinates (Angstroms)
 Number     Number       Type             X           Y           Z
 ---------------------------------------------------------------------
      1          8           0        0.028562   -3.348125    0.000000
      2          1           0       -0.771427   -3.918671    0.000000
      3          1           0        0.827715   -3.919843    0.000000
      4          8           0        0.028562    3.363387    0.000000
      5          1           0        0.436101    4.257488    0.000000
      6          1           0       -0.949383    3.458932    0.000000
 ---------------------------------------------------------------------

 SCF Done:  E(RHF) =  -152.107023358     A.U. after   10 cycles
 E2 =    -0.5259087988D+00 EUMP2 =    -0.15263293215653D+03
 CCSD(T)
 CCSD(T)= -0.15266016072D+03

 The electronic state is 1-A'.
 Alpha  occ. eigenvalues --  -20.55313 -20.55235  -1.32610  -1.32531  -0.70016
 Alpha  occ. eigenvalues --   -0.69937  -0.56039  -0.55961  -0.49718  -0.49640
 Alpha virt. eigenvalues --    0.14332   0.14411   0.20387   0.20468   0.54551
 Alpha virt. eigenvalues --    0.54634   0.57434   0.57512   0.68179   0.68260
 Alpha virt. eigenvalues --    0.79161   0.79238   0.80600   0.80685   0.82526

 Mulliken charges:
               1
     1  O   -0.506598
     2  H    0.252754
     3  H    0.253844
     4  O   -0.506536
     5  H    0.252454
     6  H    0.254082
 Sum of Mulliken charges =  -0.00000

 Dipole moment (field-independent basis, Debye):
    X=             -0.9822    Y=             -0.2659    Z=              0.0000  Tot=              1.0176
 Quadrupole moment (field-independent basis, Debye-Ang):
   XX=             -8.3150   YY=             13.5104   ZZ=            -14.7110
   XY=             -2.5341   XZ=              0.0000   YZ=              0.0000

 Normal termination of Gaussian 16 at Sat Aug 27 09:26:52 2022.
