 Gaussian 16, Revision A.03,
 Gaussian 16:  ES64L-G16RevA.03 25-Dec-2016

 ------------------
 #p CCSD(T)/cc-pVTZ
 ------------------

 ------------
 H2O_H2O_1966
 ------------
 Symbolic Z-matrix:
 Charge =  0 Multiplicity = 1

                         Standard orientation:
 ---------------------------------------------------------------------
 Center     Atomic      Atomic             Coordinates (Angstroms)
 Number     Number       Type             X           Y           Z
 ---------------------------------------------------------------------
      1          8           0        0.049527   -1.809784    0.000000
      2          1           0       -0.751364   -2.379063    0.000000
      3          1           0        0.847773   -2.382767    0.000000
      4          8           0        0.049527    1.866668    0.000000
      5          1           0       -0.043036    2.844900    0.000000
      6          1           0       -0.845813    1.461858    0.000000
 ---------------------------------------------------------------------

 SCF Done:  E(RHF) =  -152.106740501     A.U. after   10 cycles
 E2 =    -0.5264223302D+00 EUMP2 =    -0.15263316283099D+03
 CCSD(T)
 CCSD(T)= -0.15266035529D+03

 The electronic state is 1-A'.
 Alpha  occ. eigenvalues --  -20.55337 -20.54246  -1.32613  -1.31520  -0.70029
 Alpha  occ. eigenvalues --   -0.68897  -0.56018  -0.54891  -0.49723  -0.48636
 Alpha virt. eigenvalues --    0.13504   0.16166   0.20130   0.22239   0.53707
 Alpha virt. eigenvalues --    0.54679   0.57425   0.58528   0.64448   0.76099
 Alpha virt. eigenvalues --    0.78668   0.78751   0.80317   0.80638   0.84996

 Mulliken charges:
               1
     1  O   -0.496856
     2  H    0.244846
     3  H    0.254219
     4  O   -0.500616
     5  H    0.241865
     6  H    0.256541
 Sum of Mulliken charges =  -0.00000

 Dipole moment (field-independent basis, Debye):
    X=             -1.6601    Y=             -1.0521    Z=              0.0000  Tot=              1.9654
 Quadrupole moment (field-independent basis, Debye-Ang):
   XX=             -9.3572   YY=              0.3818   ZZ=            -14.7141
   XY=             -2.5002   XZ=              0.0000   YZ=              0.0000

 Normal termination of Gaussian 16 at Sat Aug 27 07:49:26 2022.
