 Gaussian 16, Revision A.03,
 Gaussian 16:  ES64L-G16RevA.03 25-Dec-2016

 ------------------
 #p CCSD(T)/cc-pVTZ
 ------------------

 ------------
 H2O_H2O_2944
 ------------
 Symbolic Z-matrix:
 Charge =  0 Multiplicity = 1

                         Standard orientation:
 ---------------------------------------------------------------------
 Center     Atomic      Atomic             Coordinates (Angstroms)
 Number     Number       Type             X           Y           Z
 ---------------------------------------------------------------------
      1          8           0        0.054159   -2.317241    0.000000
      2          1           0       -0.746539   -2.886792    0.000000
      3          1           0        0.852600   -2.889952    0.000000
      4          8           0        0.054159    2.394537    0.000000
      5          1           0       -0.227791    3.335818    0.000000
      6          1           0       -0.744809    1.822560    0.000000
 ---------------------------------------------------------------------

 SCF Done:  E(RHF) =  -152.107461716     A.U. after   10 cycles
 E2 =    -0.5259743133D+00 EUMP2 =    -0.15263343602975D+03
 CCSD(T)
 CCSD(T)= -0.15266064482D+03

 The electronic state is 1-A'.
 Alpha  occ. eigenvalues --  -20.55604 -20.54745  -1.32897  -1.32039  -0.70304
 Alpha  occ. eigenvalues --   -0.69426  -0.56341  -0.55480  -0.50008  -0.49155
 Alpha virt. eigenvalues --    0.13564   0.15281   0.20086   0.21295   0.54122
 Alpha virt. eigenvalues --    0.54899   0.57197   0.57934   0.66675   0.70817
 Alpha virt. eigenvalues --    0.78877   0.79708   0.79981   0.80877   0.82785

 Mulliken charges:
               1
     1  O   -0.508076
     2  H    0.251518
     3  H    0.256987
     4  O   -0.508165
     5  H    0.248939
     6  H    0.258797
 Sum of Mulliken charges =  -0.00000

 Dipole moment (field-independent basis, Debye):
    X=             -1.8477    Y=             -1.3785    Z=              0.0000  Tot=              2.3053
 Quadrupole moment (field-independent basis, Debye-Ang):
   XX=             -9.6478   YY=              2.1628   ZZ=            -14.7131
   XY=             -4.0227   XZ=              0.0000   YZ=              0.0000

 Normal termination of Gaussian 16 at Fri Aug 26 17:41:14 2022.
