 Gaussian 16, Revision A.03,
 Gaussian 16:  ES64L-G16RevA.03 25-Dec-2016

 ------------------
 #p CCSD(T)/cc-pVTZ
 ------------------

 ------------
 H2O_H2O_1455
 ------------
 Symbolic Z-matrix:
 Charge =  0 Multiplicity = 1

                         Standard orientation:
 ---------------------------------------------------------------------
 Center     Atomic      Atomic             Coordinates (Angstroms)
 Number     Number       Type             X           Y           Z
 ---------------------------------------------------------------------
      1          8           0        0.018361   -1.571489    0.000000
      2          1           0       -0.781782   -2.141818    0.000000
      3          1           0        0.817359   -2.143423    0.000000
      4          8           0        0.018361    1.577514    0.000000
      5          1           0        0.592716    2.374774    0.000000
      6          1           0       -0.922075    1.862267    0.000000
 ---------------------------------------------------------------------

 SCF Done:  E(RHF) =  -152.102685259     A.U. after   10 cycles
 E2 =    -0.5271196761D+00 EUMP2 =    -0.15262980493504D+03
 CCSD(T)
 CCSD(T)= -0.15265707963D+03

 The electronic state is 1-A'.
 Alpha  occ. eigenvalues --  -20.54108 -20.53970  -1.31435  -1.31222  -0.68856
 Alpha  occ. eigenvalues --   -0.68659  -0.55507  -0.53531  -0.48602  -0.48225
 Alpha virt. eigenvalues --    0.14274   0.16531   0.20536   0.21793   0.52332
 Alpha virt. eigenvalues --    0.58223   0.58391   0.58842   0.64349   0.76595
 Alpha virt. eigenvalues --    0.78123   0.78374   0.79394   0.82244   0.85947

 Mulliken charges:
               1
     1  O   -0.477451
     2  H    0.236119
     3  H    0.241558
     4  O   -0.476362
     5  H    0.235344
     6  H    0.240793
 Sum of Mulliken charges =   0.00000

 Dipole moment (field-independent basis, Debye):
    X=             -0.6049    Y=             -0.1133    Z=              0.0000  Tot=              0.6154
 Quadrupole moment (field-independent basis, Debye-Ang):
   XX=             -8.0903   YY=              0.1134   ZZ=            -14.7099
   XY=             -0.4764   XZ=              0.0000   YZ=              0.0000

 Normal termination of Gaussian 16 at Sat Aug 27 04:51:40 2022.
