 Gaussian 16, Revision A.03,
 Gaussian 16:  ES64L-G16RevA.03 25-Dec-2016

 ------------------
 #p CCSD(T)/cc-pVTZ
 ------------------

 -----------
 H2O_H2O_538
 -----------
 Symbolic Z-matrix:
 Charge =  0 Multiplicity = 1

                         Standard orientation:
 ---------------------------------------------------------------------
 Center     Atomic      Atomic             Coordinates (Angstroms)
 Number     Number       Type             X           Y           Z
 ---------------------------------------------------------------------
      1          8           0        0.043006   -1.061835    0.000000
      2          1           0       -0.758513   -1.630230    0.000000
      3          1           0        0.840620   -1.635698    0.000000
      4          8           0        0.043006    1.100453    0.000000
      5          1           0        0.144143    2.077836    0.000000
      6          1           0       -0.914350    0.879149    0.000000
 ---------------------------------------------------------------------

 SCF Done:  E(RHF) =  -152.077652065     A.U. after   11 cycles
 E2 =    -0.5324349258D+00 EUMP2 =    -0.15261008699088D+03
 CCSD(T)
 CCSD(T)= -0.15263712247D+03

 The electronic state is 1-A'.
 Alpha  occ. eigenvalues --  -20.53682 -20.52273  -1.32434  -1.29276  -0.69652
 Alpha  occ. eigenvalues --   -0.67777  -0.57554  -0.49575  -0.48638  -0.46030
 Alpha virt. eigenvalues --    0.14113   0.17907   0.20138   0.23587   0.53153
 Alpha virt. eigenvalues --    0.57648   0.58340   0.62522   0.71306   0.75870
 Alpha virt. eigenvalues --    0.79236   0.81599   0.83370   0.85419   0.87931

 Mulliken charges:
               1
     1  O   -0.451677
     2  H    0.216620
     3  H    0.235986
     4  O   -0.430741
     5  H    0.188695
     6  H    0.241117
 Sum of Mulliken charges =  -0.00000

 Dipole moment (field-independent basis, Debye):
    X=             -1.2810    Y=             -0.7750    Z=              0.0000  Tot=              1.4972
 Quadrupole moment (field-independent basis, Debye-Ang):
   XX=             -9.1234   YY=             -4.9113   ZZ=            -14.7248
   XY=             -0.8807   XZ=              0.0000   YZ=              0.0000

 260167\MP4DQ=-152.6179742\MP4SDQ=-152.6213504\CCSD=-152.62064\CCSD(T)=
 Normal termination of Gaussian 16 at Fri Aug 26 17:26:59 2022.
