 Gaussian 16, Revision A.03,
 Gaussian 16:  ES64L-G16RevA.03 25-Dec-2016

 ------------------
 #p CCSD(T)/cc-pVTZ
 ------------------

 ------------
 H2O_H2O_3450
 ------------
 Symbolic Z-matrix:
 Charge =  0 Multiplicity = 1

                         Standard orientation:
 ---------------------------------------------------------------------
 Center     Atomic      Atomic             Coordinates (Angstroms)
 Number     Number       Type             X           Y           Z
 ---------------------------------------------------------------------
      1          8           0        0.000000   -0.000000    2.638435
      2          1           0        0.000000    0.799571    3.209567
      3          1           0       -0.000000   -0.799571    3.209567
      4          8           0        0.000000   -0.000000   -2.638435
      5          1           0       -0.000000   -0.799571   -3.209567
      6          1           0        0.000000    0.799571   -3.209567
 ---------------------------------------------------------------------

 SCF Done:  E(RHF) =  -152.106343447     A.U. after   10 cycles
 E2 =    -0.5259935336D+00 EUMP2 =    -0.15263233698057D+03
 CCSD(T)
 CCSD(T)= -0.15265957850D+03

 The electronic state is 1-AG.
 Alpha  occ. eigenvalues --  -20.54992 -20.54992  -1.32285  -1.32285  -0.69695
 Alpha  occ. eigenvalues --   -0.69694  -0.55688  -0.55676  -0.49390  -0.49389
 Alpha virt. eigenvalues --    0.14475   0.14717   0.20576   0.20657   0.54828
 Alpha virt. eigenvalues --    0.54929   0.57686   0.57724   0.68005   0.69179
 Alpha virt. eigenvalues --    0.79480   0.79495   0.80912   0.80969   0.82781

 Mulliken charges:
               1
     1  O   -0.502599
     2  H    0.251300
     3  H    0.251300
     4  O   -0.502599
     5  H    0.251300
     6  H    0.251300
 Sum of Mulliken charges =  -0.00000

 Dipole moment (field-independent basis, Debye):
    X=             -0.0000    Y=              0.0000    Z=             -0.0000  Tot=              0.0000
 Quadrupole moment (field-independent basis, Debye-Ang):
   XX=            -14.7100   YY=             -7.8111   ZZ=              9.0546
   XY=              0.0000   XZ=              0.0000   YZ=             -0.0000

 \MP4DQ=-152.6414592\MP4SDQ=-152.6445238\CCSD=-152.6439338\CCSD(T)=-152
 Normal termination of Gaussian 16 at Fri Aug 26 22:26:32 2022.
