 Gaussian 16, Revision A.03,
 Gaussian 16:  ES64L-G16RevA.03 25-Dec-2016

 ------------------
 #p CCSD(T)/cc-pVTZ
 ------------------

 ------------
 H2O_H2O_1029
 ------------
 Symbolic Z-matrix:
 Charge =  0 Multiplicity = 1

                         Standard orientation:
 ---------------------------------------------------------------------
 Center     Atomic      Atomic             Coordinates (Angstroms)
 Number     Number       Type             X           Y           Z
 ---------------------------------------------------------------------
      1          8           0        0.014784   -1.346632    0.000000
      2          1           0       -0.785326   -1.917009    0.000000
      3          1           0        0.813816   -1.918518    0.000000
      4          8           0        0.014784    1.350496    0.000000
      5          1           0        0.640006    2.108523    0.000000
      6          1           0       -0.905037    1.696091    0.000000
 ---------------------------------------------------------------------

 SCF Done:  E(RHF) =  -152.097581329     A.U. after   11 cycles
 E2 =    -0.5282652181D+00 EUMP2 =    -0.15262584654702D+03
 CCSD(T)
 CCSD(T)= -0.15265315784D+03

 The electronic state is 1-A'.
 Alpha  occ. eigenvalues --  -20.53511 -20.53406  -1.31116  -1.30574  -0.68478
 Alpha  occ. eigenvalues --   -0.68086  -0.56253  -0.51539  -0.48372  -0.47430
 Alpha virt. eigenvalues --    0.14422   0.17154   0.20547   0.22198   0.51081
 Alpha virt. eigenvalues --    0.58591   0.58797   0.61590   0.71236   0.76525
 Alpha virt. eigenvalues --    0.76900   0.78606   0.80446   0.83548   0.86293

 Mulliken charges:
               1
     1  O   -0.466354
     2  H    0.229893
     3  H    0.236128
     4  O   -0.462778
     5  H    0.228394
     6  H    0.234717
 Sum of Mulliken charges =   0.00000

 Dipole moment (field-independent basis, Debye):
    X=             -0.4727    Y=             -0.0738    Z=              0.0000  Tot=              0.4784
 Quadrupole moment (field-independent basis, Debye-Ang):
   XX=             -8.0746   YY=             -1.9015   ZZ=            -14.7169
   XY=             -0.2686   XZ=              0.0000   YZ=              0.0000

 Normal termination of Gaussian 16 at Sat Aug 27 01:31:32 2022.
