 Gaussian 16, Revision A.03,
 Gaussian 16:  ES64L-G16RevA.03 25-Dec-2016

 ------------------
 #p CCSD(T)/cc-pVTZ
 ------------------

 ------------
 H2O_H2O_1769
 ------------
 Symbolic Z-matrix:
 Charge =  0 Multiplicity = 1

                         Standard orientation:
 ---------------------------------------------------------------------
 Center     Atomic      Atomic             Coordinates (Angstroms)
 Number     Number       Type             X           Y           Z
 ---------------------------------------------------------------------
      1          8           0        0.054186   -1.692374    0.000000
      2          1           0       -0.746918   -2.261353    0.000000
      3          1           0        0.852218   -2.265654    0.000000
      4          8           0        0.054186    1.769592    0.000000
      5          1           0       -0.227092    2.711074    0.000000
      6          1           0       -0.745189    1.198186    0.000000
 ---------------------------------------------------------------------

 SCF Done:  E(RHF) =  -152.107649514     A.U. after   10 cycles
 E2 =    -0.5266061238D+00 EUMP2 =    -0.15263425563752D+03
 CCSD(T)
 CCSD(T)= -0.15266141517D+03

 The electronic state is 1-A'.
 Alpha  occ. eigenvalues --  -20.55726 -20.53983  -1.32999  -1.31261  -0.70413
 Alpha  occ. eigenvalues --   -0.68634  -0.56414  -0.54684  -0.50115  -0.48386
 Alpha virt. eigenvalues --    0.13313   0.16512   0.19925   0.23215   0.53963
 Alpha virt. eigenvalues --    0.54697   0.57081   0.58425   0.65439   0.75860
 Alpha virt. eigenvalues --    0.77893   0.78116   0.78719   0.81037   0.84692

 Mulliken charges:
               1
     1  O   -0.495298
     2  H    0.244442
     3  H    0.255709
     4  O   -0.504697
     5  H    0.240356
     6  H    0.259489
 Sum of Mulliken charges =  -0.00000

 Dipole moment (field-independent basis, Debye):
    X=             -1.8044    Y=             -1.4535    Z=              0.0000  Tot=              2.3171
 Quadrupole moment (field-independent basis, Debye-Ang):
   XX=             -9.6556   YY=             -1.2224   ZZ=            -14.7177
   XY=             -2.8892   XZ=              0.0000   YZ=              0.0000

 Normal termination of Gaussian 16 at Sat Aug 27 06:41:11 2022.
