 Gaussian 16, Revision A.03,
 Gaussian 16:  ES64L-G16RevA.03 25-Dec-2016

 ------------------
 #p CCSD(T)/cc-pVTZ
 ------------------

 -----------
 H2O_H2O_597
 -----------
 Symbolic Z-matrix:
 Charge =  0 Multiplicity = 1

                         Standard orientation:
 ---------------------------------------------------------------------
 Center     Atomic      Atomic             Coordinates (Angstroms)
 Number     Number       Type             X           Y           Z
 ---------------------------------------------------------------------
      1          8           0        0.056843   -1.055733    0.000000
      2          1           0       -0.745239   -1.623332    0.000000
      3          1           0        0.853887   -1.630386    0.000000
      4          8           0        0.056843    1.154549    0.000000
      5          1           0       -0.401208    2.023857    0.000000
      6          1           0       -0.616929    0.439331    0.000000
 ---------------------------------------------------------------------

 SCF Done:  E(RHF) =  -152.081237430     A.U. after   11 cycles
 E2 =    -0.5335963070D+00 EUMP2 =    -0.15261483373723D+03
 CCSD(T)
 CCSD(T)= -0.15264146390D+03

 The electronic state is 1-A'.
 Alpha  occ. eigenvalues --  -20.56537 -20.50763  -1.35368  -1.28409  -0.72747
 Alpha  occ. eigenvalues --   -0.69407  -0.54118  -0.52108  -0.52066  -0.45397
 Alpha virt. eigenvalues --    0.13025   0.18693   0.19284   0.26560   0.50144
 Alpha virt. eigenvalues --    0.55550   0.61547   0.64220   0.71887   0.74017
 Alpha virt. eigenvalues --    0.77481   0.81887   0.83656   0.84609   0.87220

 Mulliken charges:
               1
     1  O   -0.422177
     2  H    0.217764
     3  H    0.244541
     4  O   -0.503590
     5  H    0.202006
     6  H    0.261457
 Sum of Mulliken charges =   0.00000

 Dipole moment (field-independent basis, Debye):
    X=             -1.7097    Y=             -2.2154    Z=              0.0000  Tot=              2.7984
 Quadrupole moment (field-independent basis, Debye-Ang):
   XX=             -9.8292   YY=             -6.0267   ZZ=            -14.6873
   XY=             -2.2435   XZ=              0.0000   YZ=              0.0000

 Normal termination of Gaussian 16 at Fri Aug 26 17:59:51 2022.
