 Gaussian 16, Revision A.03,
 Gaussian 16:  ES64L-G16RevA.03 25-Dec-2016

 ------------------
 #p CCSD(T)/cc-pVTZ
 ------------------

 ------------
 H2O_H2O_2798
 ------------
 Symbolic Z-matrix:
 Charge =  0 Multiplicity = 1

                         Standard orientation:
 ---------------------------------------------------------------------
 Center     Atomic      Atomic             Coordinates (Angstroms)
 Number     Number       Type             X           Y           Z
 ---------------------------------------------------------------------
      1          8           0        0.057106   -2.221600    0.000000
      2          1           0       -0.743695   -2.791007    0.000000
      3          1           0        0.855443   -2.794456    0.000000
      4          8           0        0.057106    2.328110    0.000000
      5          1           0       -0.458707    3.164437    0.000000
      6          1           0       -0.566737    1.568948    0.000000
 ---------------------------------------------------------------------

 SCF Done:  E(RHF) =  -152.108228013     A.U. after   10 cycles
 E2 =    -0.5259788129D+00 EUMP2 =    -0.15263420682577D+03
 CCSD(T)
 CCSD(T)= -0.15266139093D+03

 The electronic state is 1-A'.
 Alpha  occ. eigenvalues --  -20.55934 -20.54623  -1.33221  -1.31924  -0.70626
 Alpha  occ. eigenvalues --   -0.69304  -0.56694  -0.55385  -0.50338  -0.49046
 Alpha virt. eigenvalues --    0.13149   0.15531   0.19892   0.21789   0.53923
 Alpha virt. eigenvalues --    0.54826   0.56944   0.58143   0.66599   0.71071
 Alpha virt. eigenvalues --    0.78555   0.79476   0.79807   0.80423   0.82728

 Mulliken charges:
               1
     1  O   -0.510012
     2  H    0.252673
     3  H    0.258588
     4  O   -0.511778
     5  H    0.249095
     6  H    0.261434
 Sum of Mulliken charges =  -0.00000

 Dipole moment (field-independent basis, Debye):
    X=             -1.9456    Y=             -1.9142    Z=              0.0000  Tot=              2.7294
 Quadrupole moment (field-independent basis, Debye-Ang):
   XX=             -9.8525   YY=             -0.4126   ZZ=            -14.7153
   XY=             -4.6078   XZ=              0.0000   YZ=              0.0000

 Normal termination of Gaussian 16 at Fri Aug 26 16:16:47 2022.
