 Gaussian 16, Revision A.03,
 Gaussian 16:  ES64L-G16RevA.03 25-Dec-2016

 ------------------
 #p CCSD(T)/cc-pVTZ
 ------------------

 ------------
 H2O_H2O_2367
 ------------
 Symbolic Z-matrix:
 Charge =  0 Multiplicity = 1

                         Standard orientation:
 ---------------------------------------------------------------------
 Center     Atomic      Atomic             Coordinates (Angstroms)
 Number     Number       Type             X           Y           Z
 ---------------------------------------------------------------------
      1          8           0        0.051292   -2.018935    0.000000
      2          1           0       -0.749506   -2.588346    0.000000
      3          1           0        0.849633   -2.591785    0.000000
      4          8           0        0.051292    2.082420    0.000000
      5          1           0       -0.105214    3.052477    0.000000
      6          1           0       -0.815579    1.619774    0.000000
 ---------------------------------------------------------------------

 SCF Done:  E(RHF) =  -152.107119796     A.U. after   10 cycles
 E2 =    -0.5261566974D+00 EUMP2 =    -0.15263327649389D+03
 CCSD(T)
 CCSD(T)= -0.15266047803D+03

 The electronic state is 1-A'.
 Alpha  occ. eigenvalues --  -20.55454 -20.54490  -1.32737  -1.31775  -0.70148
 Alpha  occ. eigenvalues --   -0.69156  -0.56154  -0.55195  -0.49847  -0.48892
 Alpha virt. eigenvalues --    0.13446   0.15771   0.20122   0.21795   0.53908
 Alpha virt. eigenvalues --    0.54723   0.57338   0.58270   0.65385   0.74292
 Alpha virt. eigenvalues --    0.78949   0.79671   0.80050   0.81885   0.83430

 Mulliken charges:
               1
     1  O   -0.503214
     2  H    0.248495
     3  H    0.255939
     4  O   -0.505134
     5  H    0.245844
     6  H    0.258070
 Sum of Mulliken charges =  -0.00000

 Dipole moment (field-independent basis, Debye):
    X=             -1.7359    Y=             -1.1527    Z=              0.0000  Tot=              2.0838
 Quadrupole moment (field-independent basis, Debye-Ang):
   XX=             -9.4612   YY=              1.3360   ZZ=            -14.7134
   XY=             -3.0606   XZ=              0.0000   YZ=              0.0000

 Normal termination of Gaussian 16 at Sat Aug 27 10:10:02 2022.
