 Gaussian 16, Revision A.03,
 Gaussian 16:  ES64L-G16RevA.03 25-Dec-2016

 ------------------
 #p CCSD(T)/cc-pVTZ
 ------------------

 ------------
 H2O_H2O_3386
 ------------
 Symbolic Z-matrix:
 Charge =  0 Multiplicity = 1

                         Standard orientation:
 ---------------------------------------------------------------------
 Center     Atomic      Atomic             Coordinates (Angstroms)
 Number     Number       Type             X           Y           Z
 ---------------------------------------------------------------------
      1          8           0        0.037675   -2.583202    0.000000
      2          1           0       -0.762608   -3.153336    0.000000
      3          1           0        0.836533   -3.155332    0.000000
      4          8           0        0.037675    2.611455    0.000000
      5          1           0        0.263445    3.567768    0.000000
      6          1           0       -0.940170    2.514881    0.000000
 ---------------------------------------------------------------------

 SCF Done:  E(RHF) =  -152.106684020     A.U. after   10 cycles
 E2 =    -0.5259714361D+00 EUMP2 =    -0.15263265545634D+03
 CCSD(T)
 CCSD(T)= -0.15265988912D+03

 The electronic state is 1-A'.
 Alpha  occ. eigenvalues --  -20.55197 -20.54952  -1.32492  -1.32245  -0.69900
 Alpha  occ. eigenvalues --   -0.69646  -0.55905  -0.55659  -0.49598  -0.49353
 Alpha virt. eigenvalues --    0.14268   0.14798   0.20419   0.20757   0.54628
 Alpha virt. eigenvalues --    0.54952   0.57519   0.57770   0.67724   0.69265
 Alpha virt. eigenvalues --    0.79280   0.79521   0.80707   0.80998   0.82712

 Mulliken charges:
               1
     1  O   -0.504632
     2  H    0.250832
     3  H    0.253811
     4  O   -0.504311
     5  H    0.249953
     6  H    0.254347
 Sum of Mulliken charges =  -0.00000

 Dipole moment (field-independent basis, Debye):
    X=             -1.2892    Y=             -0.4976    Z=              0.0000  Tot=              1.3819
 Quadrupole moment (field-independent basis, Debye-Ang):
   XX=             -8.6999   YY=              7.0130   ZZ=            -14.7108
   XY=             -2.5249   XZ=              0.0000   YZ=              0.0000

 Normal termination of Gaussian 16 at Fri Aug 26 21:54:00 2022.
