 Gaussian 16, Revision A.03,
 Gaussian 16:  ES64L-G16RevA.03 25-Dec-2016

 ------------------
 #p CCSD(T)/cc-pVTZ
 ------------------

 -----------
 H2O_H2O_352
 -----------
 Symbolic Z-matrix:
 Charge =  0 Multiplicity = 1

                         Standard orientation:
 ---------------------------------------------------------------------
 Center     Atomic      Atomic             Coordinates (Angstroms)
 Number     Number       Type             X           Y           Z
 ---------------------------------------------------------------------
      1          8           0        0.007455   -0.989216    0.000000
      2          1           0       -0.792486   -1.559830    0.000000
      3          1           0        0.806656   -1.560866    0.000000
      4          8           0        0.007455    0.990183    0.000000
      5          1           0        0.726073    1.660329    0.000000
      6          1           0       -0.859524    1.452627    0.000000
 ---------------------------------------------------------------------

 SCF Done:  E(RHF) =  -152.045206118     A.U. after   11 cycles
 E2 =    -0.5358993723D+00 EUMP2 =    -0.15258110549065D+03
 CCSD(T)
 CCSD(T)= -0.15260784810D+03

 The electronic state is 1-A'.
 Alpha  occ. eigenvalues --  -20.51722 -20.51692  -1.32066  -1.28380  -0.68563
 Alpha  occ. eigenvalues --   -0.66361  -0.61443  -0.49259  -0.44785  -0.42975
 Alpha virt. eigenvalues --    0.14664   0.18521   0.20444   0.22849   0.50346
 Alpha virt. eigenvalues --    0.59148   0.59238   0.66404   0.69640   0.78169
 Alpha virt. eigenvalues --    0.79335   0.83039   0.84461   0.86661   0.87338

 Mulliken charges:
               1
     1  O   -0.425771
     2  H    0.210383
     3  H    0.215107
     4  O   -0.422832
     5  H    0.203586
     6  H    0.219526
 Sum of Mulliken charges =   0.00000

 Dipole moment (field-independent basis, Debye):
    X=             -0.2173    Y=             -0.0210    Z=              0.0000  Tot=              0.2183
 Quadrupole moment (field-independent basis, Debye-Ang):
   XX=             -8.2020   YY=             -5.9186   ZZ=            -14.7530
   XY=             -0.0688   XZ=              0.0000   YZ=              0.0000

 6418\MP4DQ=-152.5881377\MP4SDQ=-152.5917175\CCSD=-152.5909147\CCSD(T)=
 Normal termination of Gaussian 16 at Fri Aug 26 15:34:32 2022.
