 Gaussian 16, Revision A.03,
 Gaussian 16:  ES64L-G16RevA.03 25-Dec-2016

 ------------------
 #p CCSD(T)/cc-pVTZ
 ------------------

 ------------
 H2O_H2O_2431
 ------------
 Symbolic Z-matrix:
 Charge =  0 Multiplicity = 1

                         Standard orientation:
 ---------------------------------------------------------------------
 Center     Atomic      Atomic             Coordinates (Angstroms)
 Number     Number       Type             X           Y           Z
 ---------------------------------------------------------------------
      1          8           0        0.021860   -2.088601    0.000000
      2          1           0       -0.778224   -2.659014    0.000000
      3          1           0        0.820917   -2.660452    0.000000
      4          8           0        0.021860    2.097257    0.000000
      5          1           0        0.542754    2.930429    0.000000
      6          1           0       -0.935210    2.319791    0.000000
 ---------------------------------------------------------------------

 SCF Done:  E(RHF) =  -152.105577454     A.U. after   10 cycles
 E2 =    -0.5261955009D+00 EUMP2 =    -0.15263177295516D+03
 CCSD(T)
 CCSD(T)= -0.15265901781D+03

 The electronic state is 1-A'.
 Alpha  occ. eigenvalues --  -20.54749 -20.54632  -1.32036  -1.31917  -0.69451
 Alpha  occ. eigenvalues --   -0.69326  -0.55452  -0.55196  -0.49137  -0.49015
 Alpha virt. eigenvalues --    0.14162   0.15464   0.20568   0.21068   0.54399
 Alpha virt. eigenvalues --    0.55691   0.57826   0.58059   0.63894   0.73689
 Alpha virt. eigenvalues --    0.79548   0.80036   0.80930   0.81198   0.82168

 Mulliken charges:
               1
     1  O   -0.497365
     2  H    0.247176
     3  H    0.250262
     4  O   -0.497117
     5  H    0.246594
     6  H    0.250450
 Sum of Mulliken charges =   0.00000

 Dipole moment (field-independent basis, Debye):
    X=             -0.7409    Y=             -0.1556    Z=              0.0000  Tot=              0.7571
 Quadrupole moment (field-independent basis, Debye-Ang):
   XX=             -8.1265   YY=              4.2799   ZZ=            -14.7098
   XY=             -0.9594   XZ=              0.0000   YZ=              0.0000

 Normal termination of Gaussian 16 at Sat Aug 27 10:31:28 2022.
