 Gaussian 16, Revision A.03,
 Gaussian 16:  ES64L-G16RevA.03 25-Dec-2016

 ------------------
 #p CCSD(T)/cc-pVTZ
 ------------------

 -----------
 H2O_H2O_689
 -----------
 Symbolic Z-matrix:
 Charge =  0 Multiplicity = 1

                         Standard orientation:
 ---------------------------------------------------------------------
 Center     Atomic      Atomic             Coordinates (Angstroms)
 Number     Number       Type             X           Y           Z
 ---------------------------------------------------------------------
      1          8           0        0.045386   -1.138479    0.000000
      2          1           0       -0.756100   -1.706921    0.000000
      3          1           0        0.843033   -1.712295    0.000000
      4          8           0        0.045386    1.182864    0.000000
      5          1           0        0.082325    2.164771    0.000000
      6          1           0       -0.895430    0.899364    0.000000
 ---------------------------------------------------------------------

 SCF Done:  E(RHF) =  -152.089838872     A.U. after   11 cycles
 E2 =    -0.5306402606D+00 EUMP2 =    -0.15262047913214D+03
 CCSD(T)
 CCSD(T)= -0.15264761580D+03

 The electronic state is 1-A'.
 Alpha  occ. eigenvalues --  -20.54213 -20.52598  -1.32304  -1.29748  -0.69626
 Alpha  occ. eigenvalues --   -0.67859  -0.56829  -0.50585  -0.49471  -0.46611
 Alpha virt. eigenvalues --    0.13982   0.17701   0.20116   0.23603   0.53112
 Alpha virt. eigenvalues --    0.57693   0.58396   0.61370   0.71107   0.75421
 Alpha virt. eigenvalues --    0.78557   0.81134   0.83300   0.85350   0.87659

 Mulliken charges:
               1
     1  O   -0.461872
     2  H    0.223161
     3  H    0.242132
     4  O   -0.449660
     5  H    0.201676
     6  H    0.244563
 Sum of Mulliken charges =  -0.00000

 Dipole moment (field-independent basis, Debye):
    X=             -1.3860    Y=             -0.8819    Z=              0.0000  Tot=              1.6428
 Quadrupole moment (field-independent basis, Debye-Ang):
   XX=             -9.2164   YY=             -4.1951   ZZ=            -14.7253
   XY=             -1.1168   XZ=              0.0000   YZ=              0.0000

 Normal termination of Gaussian 16 at Fri Aug 26 19:06:43 2022.
