 Gaussian 16, Revision A.03,
 Gaussian 16:  ES64L-G16RevA.03 25-Dec-2016

 ------------------
 #p CCSD(T)/cc-pVTZ
 ------------------

 -----------
 H2O_H2O_860
 -----------
 Symbolic Z-matrix:
 Charge =  0 Multiplicity = 1

                         Standard orientation:
 ---------------------------------------------------------------------
 Center     Atomic      Atomic             Coordinates (Angstroms)
 Number     Number       Type             X           Y           Z
 ---------------------------------------------------------------------
      1          8           0        0.034796   -1.242928    0.000000
      2          1           0       -0.766135   -1.812151    0.000000
      3          1           0        0.833003   -1.815966    0.000000
      4          8           0        0.034796    1.266367    0.000000
      5          1           0        0.323698    2.205537    0.000000
      6          1           0       -0.947307    1.235071    0.000000
 ---------------------------------------------------------------------

 SCF Done:  E(RHF) =  -152.095319636     A.U. after   11 cycles
 E2 =    -0.5291556421D+00 EUMP2 =    -0.15262447527758D+03
 CCSD(T)
 CCSD(T)= -0.15265172273D+03

 The electronic state is 1-A'.
 Alpha  occ. eigenvalues --  -20.53811 -20.53077  -1.31527  -1.30264  -0.68873
 Alpha  occ. eigenvalues --   -0.67873  -0.56723  -0.51051  -0.48770  -0.47119
 Alpha virt. eigenvalues --    0.14233   0.17345   0.20370   0.22836   0.52609
 Alpha virt. eigenvalues --    0.58295   0.58417   0.61291   0.70448   0.76215
 Alpha virt. eigenvalues --    0.77039   0.79060   0.83599   0.85331   0.85960

 Mulliken charges:
               1
     1  O   -0.468275
     2  H    0.226488
     3  H    0.241524
     4  O   -0.453723
     5  H    0.214442
     6  H    0.239545
 Sum of Mulliken charges =  -0.00000

 Dipole moment (field-independent basis, Debye):
    X=             -1.0892    Y=             -0.4559    Z=              0.0000  Tot=              1.1807
 Quadrupole moment (field-independent basis, Debye-Ang):
   XX=             -8.6980   YY=             -3.0172   ZZ=            -14.7236
   XY=             -0.7362   XZ=              0.0000   YZ=              0.0000

 Normal termination of Gaussian 16 at Fri Aug 26 20:38:53 2022.
