 Gaussian 16, Revision A.03,
 Gaussian 16:  ES64L-G16RevA.03 25-Dec-2016

 ------------------
 #p CCSD(T)/cc-pVTZ
 ------------------

 -----------
 H2O_H2O_452
 -----------
 Symbolic Z-matrix:
 Charge =  0 Multiplicity = 1

                         Standard orientation:
 ---------------------------------------------------------------------
 Center     Atomic      Atomic             Coordinates (Angstroms)
 Number     Number       Type             X           Y           Z
 ---------------------------------------------------------------------
      1          8           0        0.007455   -1.042399    0.000000
      2          1           0       -0.792467   -1.613039    0.000000
      3          1           0        0.806675   -1.614023    0.000000
      4          8           0        0.007455    1.043367    0.000000
      5          1           0        0.726050    1.713536    0.000000
      6          1           0       -0.859540    1.505782    0.000000
 ---------------------------------------------------------------------

 SCF Done:  E(RHF) =  -152.062239112     A.U. after   10 cycles
 E2 =    -0.5336580800D+00 EUMP2 =    -0.15259589719171D+03
 CCSD(T)
 CCSD(T)= -0.15262287571D+03

 The electronic state is 1-A'.
 Alpha  occ. eigenvalues --  -20.52043 -20.52013  -1.31577  -1.28830  -0.68361
 Alpha  occ. eigenvalues --   -0.66677  -0.60121  -0.48850  -0.45316  -0.45005
 Alpha virt. eigenvalues --    0.14638   0.18274   0.20514   0.22746   0.50281
 Alpha virt. eigenvalues --    0.59098   0.59205   0.65790   0.70524   0.77620
 Alpha virt. eigenvalues --    0.78770   0.82373   0.84435   0.86692   0.87149

 Mulliken charges:
               1
     1  O   -0.437445
     2  H    0.216434
     3  H    0.220699
     4  O   -0.434899
     5  H    0.211294
     6  H    0.223917
 Sum of Mulliken charges =  -0.00000

 Dipole moment (field-independent basis, Debye):
    X=             -0.2208    Y=             -0.0201    Z=              0.0000  Tot=              0.2217
 Quadrupole moment (field-independent basis, Debye-Ang):
   XX=             -8.1482   YY=             -5.2028   ZZ=            -14.7483
   XY=             -0.0722   XZ=              0.0000   YZ=              0.0000

 Normal termination of Gaussian 16 at Fri Aug 26 16:35:25 2022.
