 Gaussian 16, Revision A.03,
 Gaussian 16:  ES64L-G16RevA.03 25-Dec-2016

 ------------------
 #p CCSD(T)/cc-pVTZ
 ------------------

 -----------
 H2O_H2O_692
 -----------
 Symbolic Z-matrix:
 Charge =  0 Multiplicity = 1

                         Standard orientation:
 ---------------------------------------------------------------------
 Center     Atomic      Atomic             Coordinates (Angstroms)
 Number     Number       Type             X           Y           Z
 ---------------------------------------------------------------------
      1          8           0        0.051344   -1.128197    0.000000
      2          1           0       -0.750393   -1.696285    0.000000
      3          1           0        0.848738   -1.702365    0.000000
      4          8           0        0.051344    1.191513    0.000000
      5          1           0       -0.103559    2.161828    0.000000
      6          1           0       -0.816290    0.730299    0.000000
 ---------------------------------------------------------------------

 SCF Done:  E(RHF) =  -152.090939499     A.U. after   11 cycles
 E2 =    -0.5309626761D+00 EUMP2 =    -0.15262190217507D+03
 CCSD(T)
 CCSD(T)= -0.15264896298D+03

 The electronic state is 1-A'.
 Alpha  occ. eigenvalues --  -20.54929 -20.52341  -1.33046  -1.29566  -0.70410
 Alpha  occ. eigenvalues --   -0.68104  -0.56130  -0.51535  -0.50117  -0.46510
 Alpha virt. eigenvalues --    0.13684   0.17914   0.19886   0.24279   0.52389
 Alpha virt. eigenvalues --    0.57172   0.59465   0.61203   0.71418   0.74723
 Alpha virt. eigenvalues --    0.78446   0.83020   0.83170   0.84681   0.87595

 Mulliken charges:
               1
     1  O   -0.456269
     2  H    0.223338
     3  H    0.242952
     4  O   -0.463184
     5  H    0.203484
     6  H    0.249680
 Sum of Mulliken charges =   0.00000

 Dipole moment (field-independent basis, Debye):
    X=             -1.5683    Y=             -1.2841    Z=              0.0000  Tot=              2.0270
 Quadrupole moment (field-independent basis, Debye-Ang):
   XX=             -9.5351   YY=             -4.5712   ZZ=            -14.7205
   XY=             -1.5589   XZ=              0.0000   YZ=              0.0000

 Normal termination of Gaussian 16 at Fri Aug 26 19:08:29 2022.
