 Gaussian 16, Revision A.03,
 Gaussian 16:  ES64L-G16RevA.03 25-Dec-2016

 ------------------
 #p CCSD(T)/cc-pVTZ
 ------------------

 -----------
 H2O_H2O_236
 -----------
 Symbolic Z-matrix:
 Charge =  0 Multiplicity = 1

                         Standard orientation:
 ---------------------------------------------------------------------
 Center     Atomic      Atomic             Coordinates (Angstroms)
 Number     Number       Type             X           Y           Z
 ---------------------------------------------------------------------
      1          8           0        0.037707   -0.908007    0.000000
      2          1           0       -0.763867   -1.476325    0.000000
      3          1           0        0.835265   -1.481946    0.000000
      4          8           0        0.037707    0.936088    0.000000
      5          1           0        0.265645    1.891887    0.000000
      6          1           0       -0.940355    0.841732    0.000000
 ---------------------------------------------------------------------

 SCF Done:  E(RHF) =  -152.021202354     A.U. after   11 cycles
 E2 =    -0.5395621610D+00 EUMP2 =    -0.15256076451493D+03
 CCSD(T)
 CCSD(T)= -0.15258706965D+03

 The electronic state is 1-A'.
 Alpha  occ. eigenvalues --  -20.52482 -20.51539  -1.34071  -1.27835  -0.70759
 Alpha  occ. eigenvalues --   -0.67885  -0.59931  -0.50798  -0.44396  -0.42223
 Alpha virt. eigenvalues --    0.14275   0.18549   0.20018   0.23585   0.53448
 Alpha virt. eigenvalues --    0.56778   0.58569   0.64691   0.71806   0.77473
 Alpha virt. eigenvalues --    0.79885   0.82247   0.83308   0.85190   0.88545

 Mulliken charges:
               1
     1  O   -0.410168
     2  H    0.193921
     3  H    0.215011
     4  O   -0.382558
     5  H    0.152595
     6  H    0.231199
 Sum of Mulliken charges =  -0.00000

 Dipole moment (field-independent basis, Debye):
    X=             -1.0569    Y=             -0.6082    Z=              0.0000  Tot=              1.2194
 Quadrupole moment (field-independent basis, Debye-Ang):
   XX=             -8.9717   YY=             -6.8988   ZZ=            -14.7115
   XY=             -0.5295   XZ=              0.0000   YZ=              0.0000

 Normal termination of Gaussian 16 at Fri Aug 26 14:21:23 2022.
