 Gaussian 16, Revision A.03,
 Gaussian 16:  ES64L-G16RevA.03 25-Dec-2016

 ------------------
 #p CCSD(T)/cc-pVTZ
 ------------------

 ------------
 H2O_H2O_2561
 ------------
 Symbolic Z-matrix:
 Charge =  0 Multiplicity = 1

                         Standard orientation:
 ---------------------------------------------------------------------
 Center     Atomic      Atomic             Coordinates (Angstroms)
 Number     Number       Type             X           Y           Z
 ---------------------------------------------------------------------
      1          8           0        0.037679   -2.144447    0.000000
      2          1           0       -0.762749   -2.714378    0.000000
      3          1           0        0.836391   -2.716779    0.000000
      4          8           0        0.037679    2.172681    0.000000
      5          1           0        0.263691    3.128936    0.000000
      6          1           0       -0.940191    2.076355    0.000000
 ---------------------------------------------------------------------

 SCF Done:  E(RHF) =  -152.106194957     A.U. after   10 cycles
 E2 =    -0.5261207616D+00 EUMP2 =    -0.15263231571865D+03
 CCSD(T)
 CCSD(T)= -0.15265954927D+03

 The electronic state is 1-A'.
 Alpha  occ. eigenvalues --  -20.55026 -20.54661  -1.32315  -1.31946  -0.69727
 Alpha  occ. eigenvalues --   -0.69345  -0.55706  -0.55319  -0.49418  -0.49052
 Alpha virt. eigenvalues --    0.13963   0.15420   0.20407   0.21152   0.54236
 Alpha virt. eigenvalues --    0.55282   0.57655   0.58009   0.65202   0.73011
 Alpha virt. eigenvalues --    0.79393   0.79880   0.80654   0.81371   0.82683

 Mulliken charges:
               1
     1  O   -0.501006
     2  H    0.248147
     3  H    0.253066
     4  O   -0.500645
     5  H    0.246811
     6  H    0.253628
 Sum of Mulliken charges =  -0.00000

 Dipole moment (field-independent basis, Debye):
    X=             -1.2794    Y=             -0.5062    Z=              0.0000  Tot=              1.3759
 Quadrupole moment (field-independent basis, Debye-Ang):
   XX=             -8.7078   YY=              3.8949   ZZ=            -14.7108
   XY=             -1.9677   XZ=              0.0000   YZ=              0.0000

 Normal termination of Gaussian 16 at Fri Aug 26 13:45:02 2022.
