 Gaussian 16, Revision A.03,
 Gaussian 16:  ES64L-G16RevA.03 25-Dec-2016

 ------------------
 #p CCSD(T)/cc-pVTZ
 ------------------

 ------------
 H2O_H2O_4079
 ------------
 Symbolic Z-matrix:
 Charge =  0 Multiplicity = 1

                         Standard orientation:
 ---------------------------------------------------------------------
 Center     Atomic      Atomic             Coordinates (Angstroms)
 Number     Number       Type             X           Y           Z
 ---------------------------------------------------------------------
      1          8           0        0.014783   -2.968725    0.000000
      2          1           0       -0.785033   -3.539515    0.000000
      3          1           0        0.814109   -3.540200    0.000000
      4          8           0        0.014783    2.972605    0.000000
      5          1           0        0.639615    3.730953    0.000000
      6          1           0       -0.905216    3.317725    0.000000
 ---------------------------------------------------------------------

 SCF Done:  E(RHF) =  -152.106714373     A.U. after   10 cycles
 E2 =    -0.5259447553D+00 EUMP2 =    -0.15263265912830D+03
 CCSD(T)
 CCSD(T)= -0.15265989372D+03

 The electronic state is 1-A'.
 Alpha  occ. eigenvalues --  -20.55151 -20.55126  -1.32446  -1.32421  -0.69854
 Alpha  occ. eigenvalues --   -0.69828  -0.55861  -0.55836  -0.49552  -0.49527
 Alpha virt. eigenvalues --    0.14445   0.14517   0.20501   0.20541   0.54713
 Alpha virt. eigenvalues --    0.54747   0.57572   0.57601   0.68304   0.68489
 Alpha virt. eigenvalues --    0.79326   0.79351   0.80771   0.80800   0.82703

 Mulliken charges:
               1
     1  O   -0.504778
     2  H    0.251990
     3  H    0.252788
     4  O   -0.504747
     5  H    0.251819
     6  H    0.252928
 Sum of Mulliken charges =  -0.00000

 Dipole moment (field-independent basis, Debye):
    X=             -0.5073    Y=             -0.0678    Z=              0.0000  Tot=              0.5119
 Quadrupole moment (field-independent basis, Debye-Ang):
   XX=             -7.9425   YY=             11.4574   ZZ=            -14.7105
   XY=             -1.0644   XZ=              0.0000   YZ=              0.0000

 Normal termination of Gaussian 16 at Sat Aug 27 05:16:05 2022.
