 Gaussian 16, Revision A.03,
 Gaussian 16:  ES64L-G16RevA.03 25-Dec-2016

 ------------------
 #p CCSD(T)/cc-pVTZ
 ------------------

 -----------
 H2O_H2O_277
 -----------
 Symbolic Z-matrix:
 Charge =  0 Multiplicity = 1

                         Standard orientation:
 ---------------------------------------------------------------------
 Center     Atomic      Atomic             Coordinates (Angstroms)
 Number     Number       Type             X           Y           Z
 ---------------------------------------------------------------------
      1          8           0        0.007455   -0.949329    0.000000
      2          1           0       -0.792501   -1.519920    0.000000
      3          1           0        0.806640   -1.521000    0.000000
      4          8           0        0.007455    0.950296    0.000000
      5          1           0        0.726091    1.620422    0.000000
      6          1           0       -0.859512    1.412761    0.000000
 ---------------------------------------------------------------------

 SCF Done:  E(RHF) =  -152.027751878     A.U. after   11 cycles
 E2 =    -0.5381263702D+00 EUMP2 =    -0.15256587824811D+03
 CCSD(T)
 CCSD(T)= -0.15259235299D+03

 The electronic state is 1-A'.
 Alpha  occ. eigenvalues --  -20.51490 -20.51462  -1.32622  -1.28016  -0.68819
 Alpha  occ. eigenvalues --   -0.66135  -0.62618  -0.49706  -0.44362  -0.41155
 Alpha virt. eigenvalues --    0.14669   0.18736   0.20362   0.22922   0.50416
 Alpha virt. eigenvalues --    0.59177   0.59224   0.66813   0.69002   0.78599
 Alpha virt. eigenvalues --    0.79757   0.83454   0.84448   0.86591   0.87492

 Mulliken charges:
               1
     1  O   -0.413959
     2  H    0.204221
     3  H    0.209509
     4  O   -0.410756
     5  H    0.196014
     6  H    0.214971
 Sum of Mulliken charges =  -0.00000

 Dipole moment (field-independent basis, Debye):
    X=             -0.2150    Y=             -0.0219    Z=              0.0000  Tot=              0.2162
 Quadrupole moment (field-independent basis, Debye-Ang):
   XX=             -8.2532   YY=             -6.5097   ZZ=            -14.7558
   XY=             -0.0696   XZ=              0.0000   YZ=              0.0000

 Normal termination of Gaussian 16 at Fri Aug 26 14:47:35 2022.
