 Gaussian 16, Revision A.03,
 Gaussian 16:  ES64L-G16RevA.03 25-Dec-2016

 ------------------
 #p CCSD(T)/cc-pVTZ
 ------------------

 ------------
 H2O_H2O_4350
 ------------
 Symbolic Z-matrix:
 Charge =  0 Multiplicity = 1

                         Standard orientation:
 ---------------------------------------------------------------------
 Center     Atomic      Atomic             Coordinates (Angstroms)
 Number     Number       Type             X           Y           Z
 ---------------------------------------------------------------------
      1          8           0        0.000000   -0.000000    3.117087
      2          1           0        0.000000    0.799571    3.688219
      3          1           0       -0.000000   -0.799571    3.688219
      4          8           0        0.000000   -0.000000   -3.117087
      5          1           0       -0.000000   -0.799571   -3.688219
      6          1           0        0.000000    0.799571   -3.688219
 ---------------------------------------------------------------------

 SCF Done:  E(RHF) =  -152.106786222     A.U. after   10 cycles
 E2 =    -0.5259339919D+00 EUMP2 =    -0.15263272021352D+03
 CCSD(T)
 CCSD(T)= -0.15265995354D+03

 The electronic state is 1-AG.
 Alpha  occ. eigenvalues --  -20.55175 -20.55175  -1.32470  -1.32470  -0.69878
 Alpha  occ. eigenvalues --   -0.69878  -0.55889  -0.55889  -0.49577  -0.49577
 Alpha virt. eigenvalues --    0.14436   0.14466   0.20487   0.20500   0.54688
 Alpha virt. eigenvalues --    0.54696   0.57552   0.57559   0.68314   0.68385
 Alpha virt. eigenvalues --    0.79301   0.79302   0.80746   0.80746   0.82674

 Mulliken charges:
               1
     1  O   -0.505196
     2  H    0.252598
     3  H    0.252598
     4  O   -0.505196
     5  H    0.252598
     6  H    0.252598
 Sum of Mulliken charges =  -0.00000

 Dipole moment (field-independent basis, Debye):
    X=             -0.0000    Y=              0.0000    Z=              0.0000  Tot=              0.0000
 Quadrupole moment (field-independent basis, Debye-Ang):
   XX=            -14.7106   YY=             -7.8035   ZZ=             12.9021
   XY=              0.0000   XZ=              0.0000   YZ=             -0.0000

 1\MP4DQ=-152.6418461\MP4SDQ=-152.6449064\CCSD=-152.644318\CCSD(T)=-152
 Normal termination of Gaussian 16 at Sat Aug 27 06:49:12 2022.
