 Gaussian 16, Revision A.03,
 Gaussian 16:  ES64L-G16RevA.03 25-Dec-2016

 ------------------
 #p CCSD(T)/cc-pVTZ
 ------------------

 -----------
 H2O_H2O_472
 -----------
 Symbolic Z-matrix:
 Charge =  0 Multiplicity = 1

                         Standard orientation:
 ---------------------------------------------------------------------
 Center     Atomic      Atomic             Coordinates (Angstroms)
 Number     Number       Type             X           Y           Z
 ---------------------------------------------------------------------
      1          8           0        0.056857   -0.989270    0.000000
      2          1           0       -0.745386   -1.556643    0.000000
      3          1           0        0.853739   -1.564148    0.000000
      4          8           0        0.056857    1.088054    0.000000
      5          1           0       -0.400949    1.957491    0.000000
      6          1           0       -0.617117    0.373026    0.000000
 ---------------------------------------------------------------------

 SCF Done:  E(RHF) =  -152.062035494     A.U. after   11 cycles
 E2 =    -0.5361475647D+00 EUMP2 =    -0.15259818305866D+03
 CCSD(T)
 CCSD(T)= -0.15262453700D+03

 The electronic state is 1-A'.
 Alpha  occ. eigenvalues --  -20.56485 -20.50008  -1.36240  -1.27784  -0.73752
 Alpha  occ. eigenvalues --   -0.70165  -0.52603  -0.52547  -0.51410  -0.44734
 Alpha virt. eigenvalues --    0.12976   0.18793   0.19362   0.26675   0.49835
 Alpha virt. eigenvalues --    0.55112   0.62071   0.65735   0.72157   0.74537
 Alpha virt. eigenvalues --    0.78147   0.81024   0.83726   0.85145   0.87553

 Mulliken charges:
               1
     1  O   -0.395044
     2  H    0.207093
     3  H    0.239089
     4  O   -0.502076
     5  H    0.189990
     6  H    0.260949
 Sum of Mulliken charges =  -0.00000

 Dipole moment (field-independent basis, Debye):
    X=             -1.6662    Y=             -2.2934    Z=              0.0000  Tot=              2.8348
 Quadrupole moment (field-independent basis, Debye-Ang):
   XX=             -9.8265   YY=             -6.5971   ZZ=            -14.6618
   XY=             -2.1067   XZ=              0.0000   YZ=              0.0000

 Normal termination of Gaussian 16 at Fri Aug 26 16:46:54 2022.
