 Gaussian 16, Revision A.03,
 Gaussian 16:  ES64L-G16RevA.03 25-Dec-2016

 ------------------
 #p CCSD(T)/cc-pVTZ
 ------------------

 ------------
 H2O_H2O_4477
 ------------
 Symbolic Z-matrix:
 Charge =  0 Multiplicity = 1

                         Standard orientation:
 ---------------------------------------------------------------------
 Center     Atomic      Atomic             Coordinates (Angstroms)
 Number     Number       Type             X           Y           Z
 ---------------------------------------------------------------------
      1          8           0        0.007455   -3.183038    0.000000
      2          1           0       -0.792231   -3.754009    0.000000
      3          1           0        0.806911   -3.754331    0.000000
      4          8           0        0.007455    3.184012    0.000000
      5          1           0        0.725773    3.854478    0.000000
      6          1           0       -0.859731    3.646067    0.000000
 ---------------------------------------------------------------------

 SCF Done:  E(RHF) =  -152.106836192     A.U. after   10 cycles
 E2 =    -0.5259280786D+00 EUMP2 =    -0.15263276427025D+03
 CCSD(T)
 CCSD(T)= -0.15265999663D+03

 The electronic state is 1-A'.
 Alpha  occ. eigenvalues --  -20.55199 -20.55194  -1.32495  -1.32490  -0.69902
 Alpha  occ. eigenvalues --   -0.69897  -0.55916  -0.55911  -0.49603  -0.49597
 Alpha virt. eigenvalues --    0.14421   0.14445   0.20473   0.20485   0.54666
 Alpha virt. eigenvalues --    0.54674   0.57533   0.57541   0.68297   0.68345
 Alpha virt. eigenvalues --    0.79276   0.79282   0.80720   0.80726   0.82647

 Mulliken charges:
               1
     1  O   -0.505490
     2  H    0.252580
     3  H    0.252911
     4  O   -0.505485
     5  H    0.252510
     6  H    0.252974
 Sum of Mulliken charges =   0.00000

 Dipole moment (field-independent basis, Debye):
    X=             -0.2561    Y=             -0.0170    Z=              0.0000  Tot=              0.2567
 Quadrupole moment (field-independent basis, Debye-Ang):
   XX=             -7.8377   YY=             13.3590   ZZ=            -14.7107
   XY=             -0.5840   XZ=              0.0000   YZ=              0.0000

 Normal termination of Gaussian 16 at Sat Aug 27 07:32:08 2022.
