 Gaussian 16, Revision A.03,
 Gaussian 16:  ES64L-G16RevA.03 25-Dec-2016

 ------------------
 #p CCSD(T)/cc-pVTZ
 ------------------

 ------------
 H2O_H2O_2286
 ------------
 Symbolic Z-matrix:
 Charge =  0 Multiplicity = 1

                         Standard orientation:
 ---------------------------------------------------------------------
 Center     Atomic      Atomic             Coordinates (Angstroms)
 Number     Number       Type             X           Y           Z
 ---------------------------------------------------------------------
      1          8           0        0.037680   -1.998197    0.000000
      2          1           0       -0.762810   -2.568040    0.000000
      3          1           0        0.836330   -2.570616    0.000000
      4          8           0        0.037680    2.026422    0.000000
      5          1           0        0.263797    2.982653    0.000000
      6          1           0       -0.940200    1.930203    0.000000
 ---------------------------------------------------------------------

 SCF Done:  E(RHF) =  -152.105964400     A.U. after   10 cycles
 E2 =    -0.5262390098D+00 EUMP2 =    -0.15263220340933D+03
 CCSD(T)
 CCSD(T)= -0.15265943201D+03

 The electronic state is 1-A'.
 Alpha  occ. eigenvalues --  -20.54955 -20.54527  -1.32238  -1.31807  -0.69653
 Alpha  occ. eigenvalues --   -0.69204  -0.55635  -0.55137  -0.49341  -0.48912
 Alpha virt. eigenvalues --    0.13868   0.15690   0.20393   0.21356   0.53776
 Alpha virt. eigenvalues --    0.55394   0.57715   0.58151   0.64026   0.74690
 Alpha virt. eigenvalues --    0.79320   0.80156   0.80250   0.81212   0.82920

 Mulliken charges:
               1
     1  O   -0.498298
     2  H    0.246429
     3  H    0.252304
     4  O   -0.498275
     5  H    0.244901
     6  H    0.252939
 Sum of Mulliken charges =  -0.00000

 Dipole moment (field-independent basis, Debye):
    X=             -1.2736    Y=             -0.5116    Z=              0.0000  Tot=              1.3725
 Quadrupole moment (field-independent basis, Debye-Ang):
   XX=             -8.7130   YY=              2.8456   ZZ=            -14.7110
   XY=             -1.7828   XZ=              0.0000   YZ=              0.0000

 8853\MP4DQ=-152.6412743\MP4SDQ=-152.6443528\CCSD=-152.6437551\CCSD(T)=
 Normal termination of Gaussian 16 at Sat Aug 27 09:39:41 2022.
