 Gaussian 16, Revision A.03,
 Gaussian 16:  ES64L-G16RevA.03 25-Dec-2016

 ------------------
 #p CCSD(T)/cc-pVTZ
 ------------------

 ------------
 H2O_H2O_4177
 ------------
 Symbolic Z-matrix:
 Charge =  0 Multiplicity = 1

                         Standard orientation:
 ---------------------------------------------------------------------
 Center     Atomic      Atomic             Coordinates (Angstroms)
 Number     Number       Type             X           Y           Z
 ---------------------------------------------------------------------
      1          8           0        0.007455   -3.023487    0.000000
      2          1           0       -0.792237   -3.594449    0.000000
      3          1           0        0.806905   -3.594789    0.000000
      4          8           0        0.007455    3.024461    0.000000
      5          1           0        0.725780    3.694920    0.000000
      6          1           0       -0.859726    3.486526    0.000000
 ---------------------------------------------------------------------

 SCF Done:  E(RHF) =  -152.106728609     A.U. after   10 cycles
 E2 =    -0.5259416596D+00 EUMP2 =    -0.15263267026893D+03
 CCSD(T)
 CCSD(T)= -0.15265990467D+03

 The electronic state is 1-A'.
 Alpha  occ. eigenvalues --  -20.55151 -20.55145  -1.32446  -1.32440  -0.69854
 Alpha  occ. eigenvalues --   -0.69847  -0.55862  -0.55856  -0.49553  -0.49547
 Alpha virt. eigenvalues --    0.14448   0.14497   0.20502   0.20524   0.54712
 Alpha virt. eigenvalues --    0.54727   0.57572   0.57584   0.68320   0.68449
 Alpha virt. eigenvalues --    0.79326   0.79332   0.80771   0.80778   0.82701

 Mulliken charges:
               1
     1  O   -0.504859
     2  H    0.252238
     3  H    0.252621
     4  O   -0.504851
     5  H    0.252161
     6  H    0.252690
 Sum of Mulliken charges =   0.00000

 Dipole moment (field-independent basis, Debye):
    X=             -0.2559    Y=             -0.0170    Z=              0.0000  Tot=              0.2565
 Quadrupole moment (field-independent basis, Debye-Ang):
   XX=             -7.8395   YY=             12.0866   ZZ=            -14.7105
   XY=             -0.5435   XZ=              0.0000   YZ=              0.0000

 Normal termination of Gaussian 16 at Sat Aug 27 05:49:17 2022.
