 Gaussian 16, Revision A.03,
 Gaussian 16:  ES64L-G16RevA.03 25-Dec-2016

 ------------------
 #p CCSD(T)/cc-pVTZ
 ------------------

 ------------
 H2O_H2O_2883
 ------------
 Symbolic Z-matrix:
 Charge =  0 Multiplicity = 1

                         Standard orientation:
 ---------------------------------------------------------------------
 Center     Atomic      Atomic             Coordinates (Angstroms)
 Number     Number       Type             X           Y           Z
 ---------------------------------------------------------------------
      1          8           0        0.028565   -2.324350    0.000000
      2          1           0       -0.771608   -2.894638    0.000000
      3          1           0        0.827533   -2.896324    0.000000
      4          8           0        0.028565    2.339593    0.000000
      5          1           0        0.436391    3.233563    0.000000
      6          1           0       -0.949350    2.435453    0.000000
 ---------------------------------------------------------------------

 SCF Done:  E(RHF) =  -152.106160180     A.U. after   10 cycles
 E2 =    -0.5260542509D+00 EUMP2 =    -0.15263221443121D+03
 CCSD(T)
 CCSD(T)= -0.15265945615D+03

 The electronic state is 1-A'.
 Alpha  occ. eigenvalues --  -20.54970 -20.54806  -1.32262  -1.32096  -0.69673
 Alpha  occ. eigenvalues --   -0.69501  -0.55652  -0.55477  -0.49365  -0.49200
 Alpha virt. eigenvalues --    0.14245   0.15091   0.20515   0.20888   0.54671
 Alpha virt. eigenvalues --    0.55208   0.57690   0.57889   0.66463   0.71073
 Alpha virt. eigenvalues --    0.79491   0.79691   0.80902   0.81213   0.82561

 Mulliken charges:
               1
     1  O   -0.501469
     2  H    0.249233
     3  H    0.252267
     4  O   -0.501150
     5  H    0.248531
     6  H    0.252588
 Sum of Mulliken charges =  -0.00000

 Dipole moment (field-independent basis, Debye):
    X=             -0.9736    Y=             -0.2705    Z=              0.0000  Tot=              1.0105
 Quadrupole moment (field-independent basis, Debye-Ang):
   XX=             -8.3278   YY=              5.8248   ZZ=            -14.7102
   XY=             -1.5418   XZ=              0.0000   YZ=              0.0000

 Normal termination of Gaussian 16 at Fri Aug 26 17:07:23 2022.
