 Gaussian 16, Revision A.03,
 Gaussian 16:  ES64L-G16RevA.03 25-Dec-2016

 ------------------
 #p CCSD(T)/cc-pVTZ
 ------------------

 ------------
 H2O_H2O_2125
 ------------
 Symbolic Z-matrix:
 Charge =  0 Multiplicity = 1

                         Standard orientation:
 ---------------------------------------------------------------------
 Center     Atomic      Atomic             Coordinates (Angstroms)
 Number     Number       Type             X           Y           Z
 ---------------------------------------------------------------------
      1          8           0        0.000000   -0.000000    1.933751
      2          1           0        0.000000    0.799571    2.504883
      3          1           0       -0.000000   -0.799571    2.504883
      4          8           0        0.000000   -0.000000   -1.933751
      5          1           0       -0.000000   -0.799571   -2.504883
      6          1           0        0.000000    0.799571   -2.504883
 ---------------------------------------------------------------------

 SCF Done:  E(RHF) =  -152.104864960     A.U. after   10 cycles
 E2 =    -0.5263706808D+00 EUMP2 =    -0.15263123564086D+03
 CCSD(T)
 CCSD(T)= -0.15265848603D+03

 The electronic state is 1-AG.
 Alpha  occ. eigenvalues --  -20.54495 -20.54495  -1.31787  -1.31766  -0.69206
 Alpha  occ. eigenvalues --   -0.69185  -0.55323  -0.54830  -0.48905  -0.48838
 Alpha virt. eigenvalues --    0.14215   0.15733   0.20636   0.21180   0.54197
 Alpha virt. eigenvalues --    0.56555   0.57920   0.58222   0.61571   0.75126
 Alpha virt. eigenvalues --    0.79457   0.80502   0.80626   0.80976   0.82323

 Mulliken charges:
               1
     1  O   -0.492033
     2  H    0.246016
     3  H    0.246016
     4  O   -0.492033
     5  H    0.246016
     6  H    0.246016
 Sum of Mulliken charges =  -0.00000

 Dipole moment (field-independent basis, Debye):
    X=             -0.0000    Y=              0.0000    Z=             -0.0000  Tot=              0.0000
 Quadrupole moment (field-independent basis, Debye-Ang):
   XX=            -14.7092   YY=             -7.8410   ZZ=              3.3071
   XY=              0.0000   XZ=              0.0000   YZ=             -0.0000

 \MP4DQ=-152.6402992\MP4SDQ=-152.6433879\CCSD=-152.6427867\CCSD(T)=-152
 Normal termination of Gaussian 16 at Sat Aug 27 08:43:51 2022.
