 Gaussian 16, Revision A.03,
 Gaussian 16:  ES64L-G16RevA.03 25-Dec-2016

 ------------------
 #p CCSD(T)/cc-pVTZ
 ------------------

 ------------
 H2O_H2O_4143
 ------------
 Symbolic Z-matrix:
 Charge =  0 Multiplicity = 1

                         Standard orientation:
 ---------------------------------------------------------------------
 Center     Atomic      Atomic             Coordinates (Angstroms)
 Number     Number       Type             X           Y           Z
 ---------------------------------------------------------------------
      1          8           0        0.052819   -2.959216    0.000000
      2          1           0       -0.747617   -3.529134    0.000000
      3          1           0        0.851523   -3.531560    0.000000
      4          8           0        0.052819    3.029569    0.000000
      5          1           0       -0.167402    3.987174    0.000000
      6          1           0       -0.781609    2.510690    0.000000
 ---------------------------------------------------------------------

 SCF Done:  E(RHF) =  -152.107353353     A.U. after   10 cycles
 E2 =    -0.5258908340D+00 EUMP2 =    -0.15263324418727D+03
 CCSD(T)
 CCSD(T)= -0.15266046498D+03

 The electronic state is 1-A'.
 Alpha  occ. eigenvalues --  -20.55555 -20.55098  -1.32854  -1.32395  -0.70260
 Alpha  occ. eigenvalues --   -0.69794  -0.56299  -0.55838  -0.49965  -0.49508
 Alpha virt. eigenvalues --    0.14084   0.14596   0.20183   0.20683   0.54298
 Alpha virt. eigenvalues --    0.54782   0.57215   0.57672   0.67827   0.68432
 Alpha virt. eigenvalues --    0.78915   0.79364   0.80346   0.80816   0.82309

 Mulliken charges:
               1
     1  O   -0.508580
     2  H    0.252931
     3  H    0.255653
     4  O   -0.508264
     5  H    0.251653
     6  H    0.256608
 Sum of Mulliken charges =  -0.00000

 Dipole moment (field-independent basis, Debye):
    X=             -1.8139    Y=             -1.2318    Z=              0.0000  Tot=              2.1926
 Quadrupole moment (field-independent basis, Debye-Ang):
   XX=             -9.5592   YY=              6.2034   ZZ=            -14.7120
   XY=             -4.9527   XZ=              0.0000   YZ=              0.0000

 Normal termination of Gaussian 16 at Sat Aug 27 05:37:20 2022.
