 Gaussian 16, Revision A.03,
 Gaussian 16:  ES64L-G16RevA.03 25-Dec-2016

 ------------------
 #p CCSD(T)/cc-pVTZ
 ------------------

 ------------
 H2O_H2O_4941
 ------------
 Symbolic Z-matrix:
 Charge =  0 Multiplicity = 1

                         Standard orientation:
 ---------------------------------------------------------------------
 Center     Atomic      Atomic             Coordinates (Angstroms)
 Number     Number       Type             X           Y           Z
 ---------------------------------------------------------------------
      1          8           0        0.049497   -3.391942    0.000000
      2          1           0       -0.750784   -3.962078    0.000000
      3          1           0        0.848356   -3.964069    0.000000
      4          8           0        0.049497    3.448932    0.000000
      5          1           0       -0.044114    4.427065    0.000000
      6          1           0       -0.845409    3.043163    0.000000
 ---------------------------------------------------------------------

 SCF Done:  E(RHF) =  -152.107308198     A.U. after   10 cycles
 E2 =    -0.5258831815D+00 EUMP2 =    -0.15263319137919D+03
 CCSD(T)
 CCSD(T)= -0.15266041391D+03

 The electronic state is 1-A'.
 Alpha  occ. eigenvalues --  -20.55516 -20.55236  -1.32814  -1.32534  -0.70220
 Alpha  occ. eigenvalues --   -0.69936  -0.56257  -0.55976  -0.49925  -0.49645
 Alpha virt. eigenvalues --    0.14153   0.14432   0.20222   0.20516   0.54343
 Alpha virt. eigenvalues --    0.54637   0.57252   0.57532   0.67940   0.68226
 Alpha virt. eigenvalues --    0.78954   0.79231   0.80388   0.80686   0.82312

 Mulliken charges:
               1
     1  O   -0.508288
     2  H    0.253269
     3  H    0.255019
     4  O   -0.508130
     5  H    0.252536
     6  H    0.255594
 Sum of Mulliken charges =  -0.00000

 Dipole moment (field-independent basis, Debye):
    X=             -1.7029    Y=             -0.9931    Z=              0.0000  Tot=              1.9713
 Quadrupole moment (field-independent basis, Debye-Ang):
   XX=             -9.3455   YY=              9.9657   ZZ=            -14.7117
   XY=             -5.1531   XZ=              0.0000   YZ=              0.0000

 Normal termination of Gaussian 16 at Sat Aug 27 10:14:43 2022.
