 Gaussian 16, Revision A.03,
 Gaussian 16:  ES64L-G16RevA.03 25-Dec-2016

 ------------------
 #p CCSD(T)/cc-pVTZ
 ------------------

 ------------
 H2O_H2O_1722
 ------------
 Symbolic Z-matrix:
 Charge =  0 Multiplicity = 1

                         Standard orientation:
 ---------------------------------------------------------------------
 Center     Atomic      Atomic             Coordinates (Angstroms)
 Number     Number       Type             X           Y           Z
 ---------------------------------------------------------------------
      1          8           0        0.056766   -1.653957    0.000000
      2          1           0       -0.744436   -2.222798    0.000000
      3          1           0        0.854700   -2.227374    0.000000
      4          8           0        0.056766    1.752949    0.000000
      5          1           0       -0.402631    2.621546    0.000000
      6          1           0       -0.615897    1.036688    0.000000
 ---------------------------------------------------------------------

 SCF Done:  E(RHF) =  -152.108970814     A.U. after   10 cycles
 E2 =    -0.5266683104D+00 EUMP2 =    -0.15263563912444D+03
 CCSD(T)
 CCSD(T)= -0.15266276393D+03

 The electronic state is 1-A'.
 Alpha  occ. eigenvalues --  -20.56204 -20.53792  -1.33475  -1.31092  -0.70880
 Alpha  occ. eigenvalues --   -0.68477  -0.56927  -0.54567  -0.50596  -0.48225
 Alpha virt. eigenvalues --    0.13056   0.16730   0.19725   0.24281   0.53143
 Alpha virt. eigenvalues --    0.55453   0.56686   0.58176   0.66806   0.75309
 Alpha virt. eigenvalues --    0.77119   0.77191   0.79547   0.81103   0.84329

 Mulliken charges:
               1
     1  O   -0.496816
     2  H    0.246459
     3  H    0.258196
     4  O   -0.512430
     5  H    0.241337
     6  H    0.263253
 Sum of Mulliken charges =  -0.00000

 Dipole moment (field-independent basis, Debye):
    X=             -1.8888    Y=             -1.8854    Z=              0.0000  Tot=              2.6688
 Quadrupole moment (field-independent basis, Debye-Ang):
   XX=             -9.8274   YY=             -2.4922   ZZ=            -14.7213
   XY=             -3.3638   XZ=              0.0000   YZ=              0.0000

 Normal termination of Gaussian 16 at Sat Aug 27 06:24:56 2022.
