 Gaussian 16, Revision A.03,
 Gaussian 16:  ES64L-G16RevA.03 25-Dec-2016

 ------------------
 #p CCSD(T)/cc-pVTZ
 ------------------

 -----------
 H2O_H2O_924
 -----------
 Symbolic Z-matrix:
 Charge =  0 Multiplicity = 1

                         Standard orientation:
 ---------------------------------------------------------------------
 Center     Atomic      Atomic             Coordinates (Angstroms)
 Number     Number       Type             X           Y           Z
 ---------------------------------------------------------------------
      1          8           0        0.057333   -1.220452    0.000000
      2          1           0       -0.744431   -1.788502    0.000000
      3          1           0        0.854699   -1.794657    0.000000
      4          8           0        0.057333    1.334237    0.000000
      5          1           0       -0.510718    2.136002    0.000000
      6          1           0       -0.516873    0.536871    0.000000
 ---------------------------------------------------------------------

 SCF Done:  E(RHF) =  -152.103788844     A.U. after   10 cycles
 E2 =    -0.5299828967D+00 EUMP2 =    -0.15263377174026D+03
 CCSD(T)
 CCSD(T)= -0.15266063488D+03

 The electronic state is 1-A'.
 Alpha  occ. eigenvalues --  -20.57213 -20.51723  -1.34979  -1.29274  -0.72280
 Alpha  occ. eigenvalues --   -0.68370  -0.56889  -0.52816  -0.51973  -0.46352
 Alpha virt. eigenvalues --    0.12808   0.18269   0.19220   0.27356   0.50208
 Alpha virt. eigenvalues --    0.55740   0.60076   0.61348   0.71029   0.73341
 Alpha virt. eigenvalues --    0.74674   0.80922   0.82636   0.83420   0.86458

 Mulliken charges:
               1
     1  O   -0.465339
     2  H    0.238223
     3  H    0.256568
     4  O   -0.526836
     5  H    0.224802
     6  H    0.272582
 Sum of Mulliken charges =  -0.00000

 Dipole moment (field-independent basis, Debye):
    X=             -1.8101    Y=             -2.4477    Z=              0.0000  Tot=              3.0442
 Quadrupole moment (field-independent basis, Debye-Ang):
   XX=             -9.8498   YY=             -5.4322   ZZ=            -14.7160
   XY=             -2.8620   XZ=              0.0000   YZ=              0.0000

 Normal termination of Gaussian 16 at Fri Aug 26 21:14:07 2022.
