 Gaussian 16, Revision A.03,
 Gaussian 16:  ES64L-G16RevA.03 25-Dec-2016

 ------------------
 #p CCSD(T)/cc-pVTZ
 ------------------

 -----------
 H2O_H2O_559
 -----------
 Symbolic Z-matrix:
 Charge =  0 Multiplicity = 1

                         Standard orientation:
 ---------------------------------------------------------------------
 Center     Atomic      Atomic             Coordinates (Angstroms)
 Number     Number       Type             X           Y           Z
 ---------------------------------------------------------------------
      1          8           0        0.031754   -1.085738    0.000000
      2          1           0       -0.769239   -1.654874    0.000000
      3          1           0        0.829898   -1.658862    0.000000
      4          8           0        0.031754    1.104830    0.000000
      5          1           0        0.381560    2.023057    0.000000
      6          1           0       -0.950289    1.137939    0.000000
 ---------------------------------------------------------------------

 SCF Done:  E(RHF) =  -152.077687252     A.U. after   11 cycles
 E2 =    -0.5319541798D+00 EUMP2 =    -0.15260964143163D+03
 CCSD(T)
 CCSD(T)= -0.15263673908D+03

 The electronic state is 1-A'.
 Alpha  occ. eigenvalues --  -20.53025 -20.52396  -1.31739  -1.29370  -0.68854
 Alpha  occ. eigenvalues --   -0.67372  -0.58361  -0.48996  -0.47765  -0.46024
 Alpha virt. eigenvalues --    0.14390   0.17823   0.20370   0.23073   0.52352
 Alpha virt. eigenvalues --    0.58233   0.58518   0.63412   0.70586   0.76572
 Alpha virt. eigenvalues --    0.78022   0.81441   0.83830   0.86158   0.87590

 Mulliken charges:
               1
     1  O   -0.454952
     2  H    0.218045
     3  H    0.234893
     4  O   -0.430319
     5  H    0.195703
     6  H    0.236630
 Sum of Mulliken charges =  -0.00000

 Dipole moment (field-independent basis, Debye):
    X=             -0.9522    Y=             -0.3819    Z=              0.0000  Tot=              1.0259
 Quadrupole moment (field-independent basis, Debye-Ang):
   XX=             -8.6465   YY=             -4.5984   ZZ=            -14.7336
   XY=             -0.4881   XZ=              0.0000   YZ=              0.0000

 Normal termination of Gaussian 16 at Fri Aug 26 17:38:30 2022.
