 Gaussian 16, Revision A.03,
 Gaussian 16:  ES64L-G16RevA.03 25-Dec-2016

 ------------------
 #p CCSD(T)/cc-pVTZ
 ------------------

 ------------
 H2O_H2O_2839
 ------------
 Symbolic Z-matrix:
 Charge =  0 Multiplicity = 1

                         Standard orientation:
 ---------------------------------------------------------------------
 Center     Atomic      Atomic             Coordinates (Angstroms)
 Number     Number       Type             X           Y           Z
 ---------------------------------------------------------------------
      1          8           0        0.045349   -2.281849    0.000000
      2          1           0       -0.755188   -2.851626    0.000000
      3          1           0        0.843952   -2.854333    0.000000
      4          8           0        0.045349    2.326385    0.000000
      5          1           0        0.080650    3.308352    0.000000
      6          1           0       -0.894993    2.041316    0.000000
 ---------------------------------------------------------------------

 SCF Done:  E(RHF) =  -152.106727537     A.U. after   10 cycles
 E2 =    -0.5260278964D+00 EUMP2 =    -0.15263275543303D+03
 CCSD(T)
 CCSD(T)= -0.15265998214D+03

 The electronic state is 1-A'.
 Alpha  occ. eigenvalues --  -20.55259 -20.54753  -1.32551  -1.32042  -0.69961
 Alpha  occ. eigenvalues --   -0.69436  -0.55963  -0.55455  -0.49658  -0.49153
 Alpha virt. eigenvalues --    0.13893   0.15237   0.20296   0.21104   0.54337
 Alpha virt. eigenvalues --    0.55059   0.57472   0.57922   0.66440   0.71386
 Alpha virt. eigenvalues --    0.79213   0.79724   0.80462   0.81412   0.83024

 Mulliken charges:
               1
     1  O   -0.504434
     2  H    0.249822
     3  H    0.254800
     4  O   -0.504082
     5  H    0.248136
     6  H    0.255758
 Sum of Mulliken charges =  -0.00000

 Dipole moment (field-independent basis, Debye):
    X=             -1.5452    Y=             -0.7935    Z=              0.0000  Tot=              1.7370
 Quadrupole moment (field-independent basis, Debye-Ang):
   XX=             -9.1010   YY=              4.0046   ZZ=            -14.7115
   XY=             -2.8225   XZ=              0.0000   YZ=              0.0000

 Normal termination of Gaussian 16 at Fri Aug 26 16:39:38 2022.
