 Gaussian 16, Revision A.03,
 Gaussian 16:  ES64L-G16RevA.03 25-Dec-2016

 ------------------
 #p CCSD(T)/cc-pVTZ
 ------------------

 ------------
 H2O_H2O_1803
 ------------
 Symbolic Z-matrix:
 Charge =  0 Multiplicity = 1

                         Standard orientation:
 ---------------------------------------------------------------------
 Center     Atomic      Atomic             Coordinates (Angstroms)
 Number     Number       Type             X           Y           Z
 ---------------------------------------------------------------------
      1          8           0        0.011143   -1.759719    0.000000
      2          1           0       -0.788739   -2.330415    0.000000
      3          1           0        0.810403   -2.331286    0.000000
      4          8           0        0.011143    1.761902    0.000000
      5          1           0        0.684318    2.477681    0.000000
      6          1           0       -0.884267    2.166558    0.000000
 ---------------------------------------------------------------------

 SCF Done:  E(RHF) =  -152.104115599     A.U. after   10 cycles
 E2 =    -0.5266452605D+00 EUMP2 =    -0.15263076085988D+03
 CCSD(T)
 CCSD(T)= -0.15265801597D+03

 The electronic state is 1-A'.
 Alpha  occ. eigenvalues --  -20.54327 -20.54285  -1.31619  -1.31549  -0.69042
 Alpha  occ. eigenvalues --   -0.68975  -0.55329  -0.54344  -0.48755  -0.48598
 Alpha virt. eigenvalues --    0.14219   0.16094   0.20595   0.21431   0.53335
 Alpha virt. eigenvalues --    0.57374   0.58021   0.58408   0.61346   0.75929
 Alpha virt. eigenvalues --    0.79018   0.79458   0.80350   0.81208   0.83811

 Mulliken charges:
               1
     1  O   -0.485577
     2  H    0.241619
     3  H    0.244038
     4  O   -0.485560
     5  H    0.241377
     6  H    0.244104
 Sum of Mulliken charges =  -0.00000

 Dipole moment (field-independent basis, Debye):
    X=             -0.3724    Y=             -0.0405    Z=              0.0000  Tot=              0.3746
 Quadrupole moment (field-independent basis, Debye-Ang):
   XX=             -7.9335   YY=              1.7962   ZZ=            -14.7090
   XY=             -0.3436   XZ=              0.0000   YZ=              0.0000

 Normal termination of Gaussian 16 at Sat Aug 27 06:52:28 2022.
