 Gaussian 16, Revision A.03,
 Gaussian 16:  ES64L-G16RevA.03 25-Dec-2016

 ------------------
 #p CCSD(T)/cc-pVTZ
 ------------------

 -----------
 H2O_H2O_609
 -----------
 Symbolic Z-matrix:
 Charge =  0 Multiplicity = 1

                         Standard orientation:
 ---------------------------------------------------------------------
 Center     Atomic      Atomic             Coordinates (Angstroms)
 Number     Number       Type             X           Y           Z
 ---------------------------------------------------------------------
      1          8           0        0.031754   -1.112327    0.000000
      2          1           0       -0.769205   -1.681511    0.000000
      3          1           0        0.829932   -1.685404    0.000000
      4          8           0        0.031754    1.131423    0.000000
      5          1           0        0.381505    2.049672    0.000000
      6          1           0       -0.950292    1.164475    0.000000
 ---------------------------------------------------------------------

 SCF Done:  E(RHF) =  -152.081950911     A.U. after   11 cycles
 E2 =    -0.5313124172D+00 EUMP2 =    -0.15261326332801D+03
 CCSD(T)
 CCSD(T)= -0.15264040798D+03

 The electronic state is 1-A'.
 Alpha  occ. eigenvalues --  -20.53151 -20.52526  -1.31629  -1.29550  -0.68796
 Alpha  occ. eigenvalues --   -0.67450  -0.58030  -0.48898  -0.48415  -0.46235
 Alpha virt. eigenvalues --    0.14375   0.17737   0.20385   0.23018   0.52311
 Alpha virt. eigenvalues --    0.58311   0.58500   0.63121   0.70611   0.76449
 Alpha virt. eigenvalues --    0.77790   0.81155   0.83830   0.86161   0.87476

 Mulliken charges:
               1
     1  O   -0.457861
     2  H    0.219823
     3  H    0.236228
     4  O   -0.435226
     5  H    0.199908
     6  H    0.237128
 Sum of Mulliken charges =   0.00000

 Dipole moment (field-independent basis, Debye):
    X=             -0.9601    Y=             -0.3793    Z=              0.0000  Tot=              1.0323
 Quadrupole moment (field-independent basis, Debye-Ang):
   XX=             -8.6334   YY=             -4.3050   ZZ=            -14.7324
   XY=             -0.5100   XZ=              0.0000   YZ=              0.0000

 Normal termination of Gaussian 16 at Fri Aug 26 18:11:12 2022.
