 Gaussian 16, Revision A.03,
 Gaussian 16:  ES64L-G16RevA.03 25-Dec-2016

 ------------------
 #p CCSD(T)/cc-pVTZ
 ------------------

 ------------
 H2O_H2O_2955
 ------------
 Symbolic Z-matrix:
 Charge =  0 Multiplicity = 1

                         Standard orientation:
 ---------------------------------------------------------------------
 Center     Atomic      Atomic             Coordinates (Angstroms)
 Number     Number       Type             X           Y           Z
 ---------------------------------------------------------------------
      1          8           0        0.018360   -2.369237    0.000000
      2          1           0       -0.781591   -2.939836    0.000000
      3          1           0        0.817551   -2.940902    0.000000
      4          8           0        0.018360    2.375275    0.000000
      5          1           0        0.592446    3.172728    0.000000
      6          1           0       -0.922172    2.659709    0.000000
 ---------------------------------------------------------------------

 SCF Done:  E(RHF) =  -152.106052381     A.U. after   10 cycles
 E2 =    -0.5260520688D+00 EUMP2 =    -0.15263210444995D+03
 CCSD(T)
 CCSD(T)= -0.15265934959D+03

 The electronic state is 1-A'.
 Alpha  occ. eigenvalues --  -20.54903 -20.54840  -1.32195  -1.32132  -0.69606
 Alpha  occ. eigenvalues --   -0.69540  -0.55585  -0.55502  -0.49297  -0.49234
 Alpha virt. eigenvalues --    0.14357   0.15011   0.20580   0.20817   0.54787
 Alpha virt. eigenvalues --    0.55192   0.57740   0.57860   0.66730   0.70746
 Alpha virt. eigenvalues --    0.79554   0.79664   0.80993   0.81150   0.82555

 Mulliken charges:
               1
     1  O   -0.500872
     2  H    0.249512
     3  H    0.251367
     4  O   -0.500730
     5  H    0.249164
     6  H    0.251559
 Sum of Mulliken charges =  -0.00000

 Dipole moment (field-independent basis, Debye):
    X=             -0.6262    Y=             -0.1069    Z=              0.0000  Tot=              0.6353
 Quadrupole moment (field-independent basis, Debye-Ang):
   XX=             -8.0284   YY=              6.6030   ZZ=            -14.7099
   XY=             -0.9628   XZ=              0.0000   YZ=              0.0000

 Normal termination of Gaussian 16 at Fri Aug 26 17:47:16 2022.
