 Gaussian 16, Revision A.03,
 Gaussian 16:  ES64L-G16RevA.03 25-Dec-2016

 ------------------
 #p CCSD(T)/cc-pVTZ
 ------------------

 ------------
 H2O_H2O_2917
 ------------
 Symbolic Z-matrix:
 Charge =  0 Multiplicity = 1

                         Standard orientation:
 ---------------------------------------------------------------------
 Center     Atomic      Atomic             Coordinates (Angstroms)
 Number     Number       Type             X           Y           Z
 ---------------------------------------------------------------------
      1          8           0        0.051283   -2.311430    0.000000
      2          1           0       -0.749361   -2.881057    0.000000
      3          1           0        0.849778   -2.884066    0.000000
      4          8           0        0.051283    2.374943    0.000000
      5          1           0       -0.105483    3.344959    0.000000
      6          1           0       -0.815463    1.912064    0.000000
 ---------------------------------------------------------------------

 SCF Done:  E(RHF) =  -152.107159066     A.U. after   10 cycles
 E2 =    -0.5259926310D+00 EUMP2 =    -0.15263315169700D+03
 CCSD(T)
 CCSD(T)= -0.15266036832D+03

 The electronic state is 1-A'.
 Alpha  occ. eigenvalues --  -20.55463 -20.54756  -1.32756  -1.32048  -0.70164
 Alpha  occ. eigenvalues --   -0.69437  -0.56186  -0.55479  -0.49865  -0.49161
 Alpha virt. eigenvalues --    0.13708   0.15249   0.20172   0.21201   0.54216
 Alpha virt. eigenvalues --    0.54953   0.57310   0.57919   0.66651   0.70990
 Alpha virt. eigenvalues --    0.79015   0.79706   0.80186   0.81142   0.82828

 Mulliken charges:
               1
     1  O   -0.506668
     2  H    0.250820
     3  H    0.256151
     4  O   -0.506528
     5  H    0.248623
     6  H    0.257603
 Sum of Mulliken charges =  -0.00000

 Dipole moment (field-independent basis, Debye):
    X=             -1.7490    Y=             -1.1318    Z=              0.0000  Tot=              2.0832
 Quadrupole moment (field-independent basis, Debye-Ang):
   XX=             -9.4583   YY=              3.0469   ZZ=            -14.7124
   XY=             -3.5652   XZ=              0.0000   YZ=              0.0000

 Normal termination of Gaussian 16 at Fri Aug 26 17:26:25 2022.
