 Gaussian 16, Revision A.03,
 Gaussian 16:  ES64L-G16RevA.03 25-Dec-2016

 ------------------
 #p CCSD(T)/cc-pVTZ
 ------------------

 ------------
 H2O_H2O_1869
 ------------
 Symbolic Z-matrix:
 Charge =  0 Multiplicity = 1

                         Standard orientation:
 ---------------------------------------------------------------------
 Center     Atomic      Atomic             Coordinates (Angstroms)
 Number     Number       Type             X           Y           Z
 ---------------------------------------------------------------------
      1          8           0        0.054183   -1.745553    0.000000
      2          1           0       -0.746875   -2.314596    0.000000
      3          1           0        0.852261   -2.318769    0.000000
      4          8           0        0.054183    1.822780    0.000000
      5          1           0       -0.227170    2.764240    0.000000
      6          1           0       -0.745147    1.251309    0.000000
 ---------------------------------------------------------------------

 SCF Done:  E(RHF) =  -152.107673470     A.U. after   10 cycles
 E2 =    -0.5264938815D+00 EUMP2 =    -0.15263416735140D+03
 CCSD(T)
 CCSD(T)= -0.15266133158D+03

 The electronic state is 1-A'.
 Alpha  occ. eigenvalues --  -20.55712 -20.54078  -1.32984  -1.31358  -0.70398
 Alpha  occ. eigenvalues --   -0.68728  -0.56404  -0.54785  -0.50100  -0.48483
 Alpha virt. eigenvalues --    0.13292   0.16392   0.19944   0.23020   0.53998
 Alpha virt. eigenvalues --    0.54572   0.57103   0.58500   0.65241   0.75689
 Alpha virt. eigenvalues --    0.78148   0.78691   0.78877   0.80813   0.84701

 Mulliken charges:
               1
     1  O   -0.497256
     2  H    0.245443
     3  H    0.255968
     4  O   -0.505575
     5  H    0.241642
     6  H    0.259777
 Sum of Mulliken charges =  -0.00000

 Dipole moment (field-independent basis, Debye):
    X=             -1.8108    Y=             -1.4442    Z=              0.0000  Tot=              2.3162
 Quadrupole moment (field-independent basis, Debye-Ang):
   XX=             -9.6539   YY=             -0.9238   ZZ=            -14.7169
   XY=             -2.9847   XZ=              0.0000   YZ=              0.0000

 Normal termination of Gaussian 16 at Sat Aug 27 07:16:13 2022.
