 Gaussian 16, Revision A.03,
 Gaussian 16:  ES64L-G16RevA.03 25-Dec-2016

 ------------------
 #p CCSD(T)/cc-pVTZ
 ------------------

 -----------
 H2O_H2O_594
 -----------
 Symbolic Z-matrix:
 Charge =  0 Multiplicity = 1

                         Standard orientation:
 ---------------------------------------------------------------------
 Center     Atomic      Atomic             Coordinates (Angstroms)
 Number     Number       Type             X           Y           Z
 ---------------------------------------------------------------------
      1          8           0        0.054245   -1.067552    0.000000
      2          1           0       -0.747723   -1.635313    0.000000
      3          1           0        0.851405   -1.642044    0.000000
      4          8           0        0.054245    1.144605    0.000000
      5          1           0       -0.225602    2.086514    0.000000
      6          1           0       -0.745998    0.574414    0.000000
 ---------------------------------------------------------------------

 SCF Done:  E(RHF) =  -152.082950637     A.U. after   11 cycles
 E2 =    -0.5326961194D+00 EUMP2 =    -0.15261564675597D+03
 CCSD(T)
 CCSD(T)= -0.15264252873D+03

 The electronic state is 1-A'.
 Alpha  occ. eigenvalues --  -20.55380 -20.51686  -1.33991  -1.29000  -0.71379
 Alpha  occ. eigenvalues --   -0.68624  -0.55235  -0.51443  -0.50889  -0.45955
 Alpha virt. eigenvalues --    0.13467   0.18312   0.19650   0.25063   0.51455
 Alpha virt. eigenvalues --    0.56539   0.60545   0.62495   0.71825   0.74482
 Alpha virt. eigenvalues --    0.78591   0.82648   0.84068   0.84474   0.87571

 Mulliken charges:
               1
     1  O   -0.437209
     2  H    0.216722
     3  H    0.240047
     4  O   -0.469918
     5  H    0.197556
     6  H    0.252802
 Sum of Mulliken charges =  -0.00000

 Dipole moment (field-independent basis, Debye):
    X=             -1.6308    Y=             -1.6238    Z=              0.0000  Tot=              2.3014
 Quadrupole moment (field-independent basis, Debye-Ang):
   XX=             -9.7019   YY=             -5.3740   ZZ=            -14.7063
   XY=             -1.7778   XZ=              0.0000   YZ=              0.0000

 Normal termination of Gaussian 16 at Fri Aug 26 17:57:58 2022.
