 Gaussian 16, Revision A.03,
 Gaussian 16:  ES64L-G16RevA.03 25-Dec-2016

 ------------------
 #p CCSD(T)/cc-pVTZ
 ------------------

 ------------
 H2O_H2O_1698
 ------------
 Symbolic Z-matrix:
 Charge =  0 Multiplicity = 1

                         Standard orientation:
 ---------------------------------------------------------------------
 Center     Atomic      Atomic             Coordinates (Angstroms)
 Number     Number       Type             X           Y           Z
 ---------------------------------------------------------------------
      1          8           0        0.057146   -1.636625    0.000000
      2          1           0       -0.744080   -2.205433    0.000000
      3          1           0        0.855055   -2.210076    0.000000
      4          8           0        0.057146    1.743049    0.000000
      5          1           0       -0.458042    2.579762    0.000000
      6          1           0       -0.567264    0.984353    0.000000
 ---------------------------------------------------------------------

 SCF Done:  E(RHF) =  -152.109477797     A.U. after   10 cycles
 E2 =    -0.5267108302D+00 EUMP2 =    -0.15263618862764D+03
 CCSD(T)
 CCSD(T)= -0.15266329967D+03

 The electronic state is 1-A'.
 Alpha  occ. eigenvalues --  -20.56382 -20.53706  -1.33652  -1.31016  -0.71054
 Alpha  occ. eigenvalues --   -0.68414  -0.57124  -0.54502  -0.50775  -0.48152
 Alpha virt. eigenvalues --    0.12964   0.16821   0.19653   0.24746   0.52808
 Alpha virt. eigenvalues --    0.55640   0.56603   0.58096   0.67326   0.75234
 Alpha virt. eigenvalues --    0.76874   0.76876   0.79951   0.81148   0.84196

 Mulliken charges:
               1
     1  O   -0.497318
     2  H    0.247302
     3  H    0.259167
     4  O   -0.515279
     5  H    0.241599
     6  H    0.264530
 Sum of Mulliken charges =  -0.00000

 Dipole moment (field-independent basis, Debye):
    X=             -1.9007    Y=             -2.0373    Z=              0.0000  Tot=              2.7862
 Quadrupole moment (field-independent basis, Debye-Ang):
   XX=             -9.8523   YY=             -2.9710   ZZ=            -14.7228
   XY=             -3.4935   XZ=              0.0000   YZ=              0.0000

 Normal termination of Gaussian 16 at Sat Aug 27 06:16:56 2022.
