 Gaussian 16, Revision A.03,
 Gaussian 16:  ES64L-G16RevA.03 25-Dec-2016

 ------------------
 #p CCSD(T)/cc-pVTZ
 ------------------

 -----------
 H2O_H2O_483
 -----------
 Symbolic Z-matrix:
 Charge =  0 Multiplicity = 1

                         Standard orientation:
 ---------------------------------------------------------------------
 Center     Atomic      Atomic             Coordinates (Angstroms)
 Number     Number       Type             X           Y           Z
 ---------------------------------------------------------------------
      1          8           0        0.028574   -1.047980    0.000000
      2          1           0       -0.772325   -1.617248    0.000000
      3          1           0        0.826813   -1.620973    0.000000
      4          8           0        0.028574    1.063151    0.000000
      5          1           0        0.437540    1.956600    0.000000
      6          1           0       -0.949217    1.160257    0.000000
 ---------------------------------------------------------------------

 SCF Done:  E(RHF) =  -152.068924158     A.U. after   11 cycles
 E2 =    -0.5331158030D+00 EUMP2 =    -0.15260203996143D+03
 CCSD(T)
 CCSD(T)= -0.15262904575D+03

 The electronic state is 1-A'.
 Alpha  occ. eigenvalues --  -20.52674 -20.52182  -1.31859  -1.29053  -0.68843
 Alpha  occ. eigenvalues --   -0.67160  -0.59119  -0.49098  -0.46399  -0.45637
 Alpha virt. eigenvalues --    0.14464   0.17988   0.20383   0.23062   0.52057
 Alpha virt. eigenvalues --    0.58326   0.58659   0.64169   0.70401   0.76973
 Alpha virt. eigenvalues --    0.78233   0.81954   0.83928   0.86272   0.87655

 Mulliken charges:
               1
     1  O   -0.448491
     2  H    0.214975
     3  H    0.231174
     4  O   -0.423380
     5  H    0.191335
     6  H    0.234388
 Sum of Mulliken charges =  -0.00000

 Dipole moment (field-independent basis, Debye):
    X=             -0.8463    Y=             -0.3082    Z=              0.0000  Tot=              0.9006
 Quadrupole moment (field-independent basis, Debye-Ang):
   XX=             -8.5611   YY=             -5.0463   ZZ=            -14.7370
   XY=             -0.3828   XZ=              0.0000   YZ=              0.0000

 Normal termination of Gaussian 16 at Fri Aug 26 16:52:48 2022.
