 Gaussian 16, Revision A.03,
 Gaussian 16:  ES64L-G16RevA.03 25-Dec-2016

 ------------------
 #p CCSD(T)/cc-pVTZ
 ------------------

 ------------
 H2O_H2O_4747
 ------------
 Symbolic Z-matrix:
 Charge =  0 Multiplicity = 1

                         Standard orientation:
 ---------------------------------------------------------------------
 Center     Atomic      Atomic             Coordinates (Angstroms)
 Number     Number       Type             X           Y           Z
 ---------------------------------------------------------------------
      1          8           0        0.056698   -3.262680    0.000000
      2          1           0       -0.743713   -3.832634    0.000000
      3          1           0        0.855427   -3.834988    0.000000
      4          8           0        0.056698    3.361830    0.000000
      5          1           0       -0.403907    4.229787    0.000000
      6          1           0       -0.614970    2.644634    0.000000
 ---------------------------------------------------------------------

 SCF Done:  E(RHF) =  -152.107579188     A.U. after   10 cycles
 E2 =    -0.5258608292D+00 EUMP2 =    -0.15263344001722D+03
 CCSD(T)
 CCSD(T)= -0.15266065670D+03

 The electronic state is 1-A'.
 Alpha  occ. eigenvalues --  -20.55705 -20.55189  -1.33005  -1.32488  -0.70411
 Alpha  occ. eigenvalues --   -0.69888  -0.56460  -0.55939  -0.50118  -0.49602
 Alpha virt. eigenvalues --    0.13981   0.14504   0.20068   0.20617   0.54149
 Alpha virt. eigenvalues --    0.54683   0.57082   0.57599   0.67708   0.68256
 Alpha virt. eigenvalues --    0.78762   0.79270   0.80190   0.80733   0.82118

 Mulliken charges:
               1
     1  O   -0.509900
     2  H    0.253912
     3  H    0.255988
     4  O   -0.509612
     5  H    0.252636
     6  H    0.256975
 Sum of Mulliken charges =  -0.00000

 Dipole moment (field-independent basis, Debye):
    X=             -1.9501    Y=             -1.7300    Z=              0.0000  Tot=              2.6069
 Quadrupole moment (field-independent basis, Debye-Ang):
   XX=             -9.8285   YY=              4.8470   ZZ=            -14.7124
   XY=             -6.4464   XZ=              0.0000   YZ=              0.0000

 Normal termination of Gaussian 16 at Sat Aug 27 09:07:06 2022.
