 Gaussian 16, Revision A.03,
 Gaussian 16:  ES64L-G16RevA.03 25-Dec-2016

 ------------------
 #p CCSD(T)/cc-pVTZ
 ------------------

 ----------
 H2O_H2O_37
 ----------
 Symbolic Z-matrix:
 Charge =  0 Multiplicity = 1

                         Standard orientation:
 ---------------------------------------------------------------------
 Center     Atomic      Atomic             Coordinates (Angstroms)
 Number     Number       Type             X           Y           Z
 ---------------------------------------------------------------------
      1          8           0        0.040456   -0.798907    0.000000
      2          1           0       -0.761542   -1.366625    0.000000
      3          1           0        0.837585   -1.373442    0.000000
      4          8           0        0.040456    0.832018    0.000000
      5          1           0        0.206118    1.800554    0.000000
      6          1           0       -0.929458    0.674621    0.000000
 ---------------------------------------------------------------------

 SCF Done:  E(RHF) =  -151.931778577     A.U. after   12 cycles
 E2 =    -0.5499868848D+00 EUMP2 =    -0.15248176546214D+03
 CCSD(T)
 CCSD(T)= -0.15250653631D+03

 The electronic state is 1-A'.
 Alpha  occ. eigenvalues --  -20.52662 -20.51496  -1.38197  -1.26647  -0.74014
 Alpha  occ. eigenvalues --   -0.70102  -0.60122  -0.53695  -0.43307  -0.36104
 Alpha virt. eigenvalues --    0.13972   0.19076   0.19818   0.23741   0.53304
 Alpha virt. eigenvalues --    0.55883   0.58569   0.65751   0.73217   0.77557
 Alpha virt. eigenvalues --    0.80477   0.82080   0.82207   0.84020   0.89167

 Mulliken charges:
               1
     1  O   -0.334092
     2  H    0.154091
     3  H    0.187055
     4  O   -0.330815
     5  H    0.093520
     6  H    0.230242
 Sum of Mulliken charges =  -0.00000

 Dipole moment (field-independent basis, Debye):
    X=             -1.0793    Y=             -0.8101    Z=              0.0000  Tot=              1.3494
 Quadrupole moment (field-independent basis, Debye-Ang):
   XX=             -9.1829   YY=             -9.0209   ZZ=            -14.6638
   XY=             -0.5798   XZ=              0.0000   YZ=              0.0000

 Normal termination of Gaussian 16 at Fri Aug 26 12:09:22 2022.
