 Gaussian 16, Revision A.03,
 Gaussian 16:  ES64L-G16RevA.03 25-Dec-2016

 ------------------
 #p CCSD(T)/cc-pVTZ
 ------------------

 ------------
 H2O_H2O_3122
 ------------
 Symbolic Z-matrix:
 Charge =  0 Multiplicity = 1

                         Standard orientation:
 ---------------------------------------------------------------------
 Center     Atomic      Atomic             Coordinates (Angstroms)
 Number     Number       Type             X           Y           Z
 ---------------------------------------------------------------------
      1          8           0        0.056723   -2.398476    0.000000
      2          1           0       -0.743983   -2.968015    0.000000
      3          1           0        0.855156   -2.971199    0.000000
      4          8           0        0.056723    2.497568    0.000000
      5          1           0       -0.403430    3.365763    0.000000
      6          1           0       -0.615316    1.780720    0.000000
 ---------------------------------------------------------------------

 SCF Done:  E(RHF) =  -152.107868187     A.U. after   10 cycles
 E2 =    -0.5259265522D+00 EUMP2 =    -0.15263379473873D+03
 CCSD(T)
 CCSD(T)= -0.15266099554D+03

 The electronic state is 1-A'.
 Alpha  occ. eigenvalues --  -20.55799 -20.54782  -1.33093  -1.32081  -0.70499
 Alpha  occ. eigenvalues --   -0.69468  -0.56557  -0.55536  -0.50208  -0.49200
 Alpha virt. eigenvalues --    0.13443   0.15217   0.19977   0.21305   0.54003
 Alpha virt. eigenvalues --    0.54886   0.57030   0.57904   0.66788   0.70020
 Alpha virt. eigenvalues --    0.78682   0.79658   0.79796   0.80409   0.82799

 Mulliken charges:
               1
     1  O   -0.510426
     2  H    0.252951
     3  H    0.257924
     4  O   -0.510407
     5  H    0.249936
     6  H    0.260021
 Sum of Mulliken charges =  -0.00000

 Dipole moment (field-independent basis, Debye):
    X=             -1.9384    Y=             -1.7628    Z=              0.0000  Tot=              2.6201
 Quadrupole moment (field-independent basis, Debye-Ang):
   XX=             -9.8262   YY=              0.9421   ZZ=            -14.7139
   XY=             -4.7773   XZ=              0.0000   YZ=              0.0000

 Normal termination of Gaussian 16 at Fri Aug 26 19:36:57 2022.
