 Gaussian 16, Revision A.03,
 Gaussian 16:  ES64L-G16RevA.03 25-Dec-2016

 ------------------
 #p CCSD(T)/cc-pVTZ
 ------------------

 ------------
 H2O_H2O_4206
 ------------
 Symbolic Z-matrix:
 Charge =  0 Multiplicity = 1

                         Standard orientation:
 ---------------------------------------------------------------------
 Center     Atomic      Atomic             Coordinates (Angstroms)
 Number     Number       Type             X           Y           Z
 ---------------------------------------------------------------------
      1          8           0        0.021859   -3.032604    0.000000
      2          1           0       -0.778066   -3.603241    0.000000
      3          1           0        0.821076   -3.604231    0.000000
      4          8           0        0.021859    3.041272    0.000000
      5          1           0        0.542520    3.874590    0.000000
      6          1           0       -0.935274    3.263539    0.000000
 ---------------------------------------------------------------------

 SCF Done:  E(RHF) =  -152.106804781     A.U. after   10 cycles
 E2 =    -0.5259349865D+00 EUMP2 =    -0.15263273976762D+03
 CCSD(T)
 CCSD(T)= -0.15265997255D+03

 The electronic state is 1-A'.
 Alpha  occ. eigenvalues --  -20.55200 -20.55146  -1.32496  -1.32441  -0.69903
 Alpha  occ. eigenvalues --   -0.69847  -0.55915  -0.55861  -0.49603  -0.49548
 Alpha virt. eigenvalues --    0.14415   0.14493   0.20468   0.20530   0.54665
 Alpha virt. eigenvalues --    0.54727   0.57531   0.57586   0.68279   0.68419
 Alpha virt. eigenvalues --    0.79276   0.79330   0.80720   0.80780   0.82649

 Mulliken charges:
               1
     1  O   -0.505312
     2  H    0.252101
     3  H    0.253211
     4  O   -0.505252
     5  H    0.251837
     6  H    0.253415
 Sum of Mulliken charges =  -0.00000

 Dipole moment (field-independent basis, Debye):
    X=             -0.7505    Y=             -0.1515    Z=              0.0000  Tot=              0.7657
 Quadrupole moment (field-independent basis, Debye-Ang):
   XX=             -8.1047   YY=             11.6276   ZZ=            -14.7107
   XY=             -1.6562   XZ=              0.0000   YZ=              0.0000

 Normal termination of Gaussian 16 at Sat Aug 27 05:59:18 2022.
