 Gaussian 16, Revision A.03,
 Gaussian 16:  ES64L-G16RevA.03 25-Dec-2016

 ------------------
 #p CCSD(T)/cc-pVTZ
 ------------------

 ------------
 H2O_H2O_1576
 ------------
 Symbolic Z-matrix:
 Charge =  0 Multiplicity = 1

                         Standard orientation:
 ---------------------------------------------------------------------
 Center     Atomic      Atomic             Coordinates (Angstroms)
 Number     Number       Type             X           Y           Z
 ---------------------------------------------------------------------
      1          8           0        0.003735   -1.641109    0.000000
      2          1           0       -0.795947   -2.212084    0.000000
      3          1           0        0.803194   -2.212398    0.000000
      4          8           0        0.003735    1.641352    0.000000
      5          1           0        0.764363    2.263407    0.000000
      6          1           0       -0.831376    2.159131    0.000000
 ---------------------------------------------------------------------

 SCF Done:  E(RHF) =  -152.103077834     A.U. after   10 cycles
 E2 =    -0.5269250546D+00 EUMP2 =    -0.15263000288838D+03
 CCSD(T)
 CCSD(T)= -0.15265727585D+03

 The electronic state is 1-A'.
 Alpha  occ. eigenvalues --  -20.54107 -20.54102  -1.31443  -1.31336  -0.68863
 Alpha  occ. eigenvalues --   -0.68777  -0.55388  -0.53795  -0.48605  -0.48347
 Alpha virt. eigenvalues --    0.14314   0.16362   0.20590   0.21601   0.52623
 Alpha virt. eigenvalues --    0.58124   0.58513   0.58651   0.62372   0.76033
 Alpha virt. eigenvalues --    0.78535   0.78634   0.79777   0.81876   0.85344

 Mulliken charges:
               1
     1  O   -0.479336
     2  H    0.239181
     3  H    0.240166
     4  O   -0.479314
     5  H    0.239170
     6  H    0.240135
 Sum of Mulliken charges =  -0.00000

 Dipole moment (field-independent basis, Debye):
    X=             -0.1238    Y=             -0.0046    Z=              0.0000  Tot=              0.1239
 Quadrupole moment (field-independent basis, Debye-Ang):
   XX=             -7.8817   YY=              0.8151   ZZ=            -14.7088
   XY=             -0.0984   XZ=              0.0000   YZ=              0.0000

 Normal termination of Gaussian 16 at Sat Aug 27 05:33:55 2022.
