 Gaussian 16, Revision A.03,
 Gaussian 16:  ES64L-G16RevA.03 25-Dec-2016

 ------------------
 #p CCSD(T)/cc-pVTZ
 ------------------

 ------------
 H2O_H2O_3327
 ------------
 Symbolic Z-matrix:
 Charge =  0 Multiplicity = 1

                         Standard orientation:
 ---------------------------------------------------------------------
 Center     Atomic      Atomic             Coordinates (Angstroms)
 Number     Number       Type             X           Y           Z
 ---------------------------------------------------------------------
      1          8           0        0.007455   -2.571426    0.000000
      2          1           0       -0.792259   -3.142359    0.000000
      3          1           0        0.806883   -3.142758    0.000000
      4          8           0        0.007455    2.572400    0.000000
      5          1           0        0.725805    3.242832    0.000000
      6          1           0       -0.859709    3.034497    0.000000
 ---------------------------------------------------------------------

 SCF Done:  E(RHF) =  -152.106269967     A.U. after   10 cycles
 E2 =    -0.5260055513D+00 EUMP2 =    -0.15263227551861D+03
 CCSD(T)
 CCSD(T)= -0.15265951823D+03

 The electronic state is 1-A'.
 Alpha  occ. eigenvalues --  -20.54966 -20.54958  -1.32260  -1.32251  -0.69669
 Alpha  occ. eigenvalues --   -0.69660  -0.55658  -0.55638  -0.49363  -0.49355
 Alpha virt. eigenvalues --    0.14461   0.14776   0.20584   0.20689   0.54836
 Alpha virt. eigenvalues --    0.54980   0.57703   0.57754   0.67808   0.69452
 Alpha virt. eigenvalues --    0.79505   0.79530   0.80934   0.81010   0.82758

 Mulliken charges:
               1
     1  O   -0.502171
     2  H    0.250784
     3  H    0.251386
     4  O   -0.502154
     5  H    0.250683
     6  H    0.251471
 Sum of Mulliken charges =  -0.00000

 Dipole moment (field-independent basis, Debye):
    X=             -0.2550    Y=             -0.0171    Z=              0.0000  Tot=              0.2555
 Quadrupole moment (field-independent basis, Debye-Ang):
   XX=             -7.8474   YY=              8.4632   ZZ=            -14.7100
   XY=             -0.4292   XZ=              0.0000   YZ=              0.0000

 9622\MP4DQ=-152.6413967\MP4SDQ=-152.6444621\CCSD=-152.6438718\CCSD(T)=
 Normal termination of Gaussian 16 at Fri Aug 26 21:24:01 2022.
