 Gaussian 16, Revision A.03,
 Gaussian 16:  ES64L-G16RevA.03 25-Dec-2016

 ------------------
 #p CCSD(T)/cc-pVTZ
 ------------------

 -----------
 H2O_H2O_219
 -----------
 Symbolic Z-matrix:
 Charge =  0 Multiplicity = 1

                         Standard orientation:
 ---------------------------------------------------------------------
 Center     Atomic      Atomic             Coordinates (Angstroms)
 Number     Number       Type             X           Y           Z
 ---------------------------------------------------------------------
      1          8           0        0.054281   -0.868165    0.000000
      2          1           0       -0.748213   -1.435184    0.000000
      3          1           0        0.850908   -1.443396    0.000000
      4          8           0        0.054281    0.945119    0.000000
      5          1           0       -0.224694    1.887285    0.000000
      6          1           0       -0.746490    0.375669    0.000000
 ---------------------------------------------------------------------

 SCF Done:  E(RHF) =  -151.999591662     A.U. after   11 cycles
 E2 =    -0.5426988036D+00 EUMP2 =    -0.15254229046594D+03
 CCSD(T)
 CCSD(T)= -0.15256813177D+03

 The electronic state is 1-A'.
 Alpha  occ. eigenvalues --  -20.54760 -20.50067  -1.37341  -1.27060  -0.74883
 Alpha  occ. eigenvalues --   -0.70508  -0.53747  -0.52943  -0.45394  -0.43993
 Alpha virt. eigenvalues --    0.13432   0.18951   0.19586   0.25217   0.50839
 Alpha virt. eigenvalues --    0.55439   0.61246   0.66192   0.72899   0.76283
 Alpha virt. eigenvalues --    0.80155   0.80443   0.84034   0.84819   0.88394

 Mulliken charges:
               1
     1  O   -0.356849
     2  H    0.175983
     3  H    0.217731
     4  O   -0.436826
     5  H    0.148761
     6  H    0.251200
 Sum of Mulliken charges =  -0.00000

 Dipole moment (field-independent basis, Debye):
    X=             -1.4855    Y=             -1.7602    Z=              0.0000  Tot=              2.3032
 Quadrupole moment (field-independent basis, Debye-Ang):
   XX=             -9.7318   YY=             -7.5801   ZZ=            -14.6251
   XY=             -1.3689   XZ=              0.0000   YZ=              0.0000

 Normal termination of Gaussian 16 at Fri Aug 26 14:11:18 2022.
