 Gaussian 16, Revision A.03,
 Gaussian 16:  ES64L-G16RevA.03 25-Dec-2016

 ------------------
 #p CCSD(T)/cc-pVTZ
 ------------------

 ------------
 H2O_H2O_1326
 ------------
 Symbolic Z-matrix:
 Charge =  0 Multiplicity = 1

                         Standard orientation:
 ---------------------------------------------------------------------
 Center     Atomic      Atomic             Coordinates (Angstroms)
 Number     Number       Type             X           Y           Z
 ---------------------------------------------------------------------
      1          8           0        0.003735   -1.508150    0.000000
      2          1           0       -0.795957   -2.079112    0.000000
      3          1           0        0.803185   -2.079453    0.000000
      4          8           0        0.003735    1.508393    0.000000
      5          1           0        0.764374    2.130435    0.000000
      6          1           0       -0.831367    2.026186    0.000000
 ---------------------------------------------------------------------

 SCF Done:  E(RHF) =  -152.101338011     A.U. after   10 cycles
 E2 =    -0.5273685111D+00 EUMP2 =    -0.15262870652193D+03
 CCSD(T)
 CCSD(T)= -0.15265600515D+03

 The electronic state is 1-A'.
 Alpha  occ. eigenvalues --  -20.53842 -20.53836  -1.31257  -1.31038  -0.68666
 Alpha  occ. eigenvalues --   -0.68501  -0.55614  -0.52961  -0.48456  -0.47992
 Alpha virt. eigenvalues --    0.14396   0.16706   0.20571   0.21836   0.51671
 Alpha virt. eigenvalues --    0.58311   0.58661   0.59997   0.65847   0.76151
 Alpha virt. eigenvalues --    0.77804   0.77954   0.79285   0.82685   0.86131

 Mulliken charges:
               1
     1  O   -0.472391
     2  H    0.235565
     3  H    0.236829
     4  O   -0.472294
     5  H    0.235618
     6  H    0.236673
 Sum of Mulliken charges =  -0.00000

 Dipole moment (field-independent basis, Debye):
    X=             -0.1223    Y=             -0.0046    Z=              0.0000  Tot=              0.1224
 Quadrupole moment (field-independent basis, Debye-Ang):
   XX=             -7.9065   YY=             -0.3690   ZZ=            -14.7103
   XY=             -0.0824   XZ=              0.0000   YZ=              0.0000

 Normal termination of Gaussian 16 at Sat Aug 27 03:56:13 2022.
