 Gaussian 16, Revision A.03,
 Gaussian 16:  ES64L-G16RevA.03 25-Dec-2016

 ------------------
 #p CCSD(T)/cc-pVTZ
 ------------------

 ------------
 H2O_H2O_2153
 ------------
 Symbolic Z-matrix:
 Charge =  0 Multiplicity = 1

                         Standard orientation:
 ---------------------------------------------------------------------
 Center     Atomic      Atomic             Coordinates (Angstroms)
 Number     Number       Type             X           Y           Z
 ---------------------------------------------------------------------
      1          8           0        0.011143   -1.945861    0.000000
      2          1           0       -0.788709   -2.516599    0.000000
      3          1           0        0.810432   -2.517387    0.000000
      4          8           0        0.011143    1.948045    0.000000
      5          1           0        0.684280    2.663860    0.000000
      6          1           0       -0.884288    2.352656    0.000000
 ---------------------------------------------------------------------

 SCF Done:  E(RHF) =  -152.104983152     A.U. after   10 cycles
 E2 =    -0.5263512045D+00 EUMP2 =    -0.15263133435632D+03
 CCSD(T)
 CCSD(T)= -0.15265858274D+03

 The electronic state is 1-A'.
 Alpha  occ. eigenvalues --  -20.54540 -20.54505  -1.31824  -1.31784  -0.69243
 Alpha  occ. eigenvalues --   -0.69201  -0.55341  -0.54881  -0.48936  -0.48864
 Alpha virt. eigenvalues --    0.14189   0.15714   0.20618   0.21181   0.54159
 Alpha virt. eigenvalues --    0.56367   0.57914   0.58206   0.61896   0.75034
 Alpha virt. eigenvalues --    0.79461   0.80446   0.80538   0.81119   0.82281

 Mulliken charges:
               1
     1  O   -0.492784
     2  H    0.245469
     3  H    0.247354
     4  O   -0.492732
     5  H    0.245217
     6  H    0.247476
 Sum of Mulliken charges =  -0.00000

 Dipole moment (field-independent basis, Debye):
    X=             -0.3758    Y=             -0.0398    Z=              0.0000  Tot=              0.3779
 Quadrupole moment (field-independent basis, Debye-Ang):
   XX=             -7.9166   YY=              3.3447   ZZ=            -14.7093
   XY=             -0.4123   XZ=              0.0000   YZ=              0.0000

 Normal termination of Gaussian 16 at Sat Aug 27 08:53:12 2022.
