 Gaussian 16, Revision A.03,
 Gaussian 16:  ES64L-G16RevA.03 25-Dec-2016

 ------------------
 #p CCSD(T)/cc-pVTZ
 ------------------

 ------------
 H2O_H2O_2545
 ------------
 Symbolic Z-matrix:
 Charge =  0 Multiplicity = 1

                         Standard orientation:
 ---------------------------------------------------------------------
 Center     Atomic      Atomic             Coordinates (Angstroms)
 Number     Number       Type             X           Y           Z
 ---------------------------------------------------------------------
      1          8           0        0.055261   -2.100638    0.000000
      2          1           0       -0.745574   -2.669997    0.000000
      3          1           0        0.853564   -2.673541    0.000000
      4          8           0        0.055261    2.185056    0.000000
      5          1           0       -0.287426    3.105964    0.000000
      6          1           0       -0.704736    1.562231    0.000000
 ---------------------------------------------------------------------

 SCF Done:  E(RHF) =  -152.107756909     A.U. after   10 cycles
 E2 =    -0.5260677469D+00 EUMP2 =    -0.15263382465626D+03
 CCSD(T)
 CCSD(T)= -0.15266101509D+03

 The electronic state is 1-A'.
 Alpha  occ. eigenvalues --  -20.55721 -20.54538  -1.33006  -1.31831  -0.70414
 Alpha  occ. eigenvalues --   -0.69209  -0.56453  -0.55278  -0.50120  -0.48951
 Alpha virt. eigenvalues --    0.13263   0.15685   0.19996   0.21887   0.54059
 Alpha virt. eigenvalues --    0.54660   0.57124   0.58248   0.66133   0.72843
 Alpha virt. eigenvalues --    0.78745   0.79588   0.79927   0.81625   0.82374

 Mulliken charges:
               1
     1  O   -0.506667
     2  H    0.250546
     3  H    0.257526
     4  O   -0.509108
     5  H    0.247423
     6  H    0.260281
 Sum of Mulliken charges =  -0.00000

 Dipole moment (field-independent basis, Debye):
    X=             -1.8761    Y=             -1.5270    Z=              0.0000  Tot=              2.4190
 Quadrupole moment (field-independent basis, Debye-Ang):
   XX=             -9.7229   YY=              0.5623   ZZ=            -14.7146
   XY=             -3.8317   XZ=              0.0000   YZ=              0.0000

 Normal termination of Gaussian 16 at Fri Aug 26 13:35:03 2022.
