 Gaussian 16, Revision A.03,
 Gaussian 16:  ES64L-G16RevA.03 25-Dec-2016

 ------------------
 #p CCSD(T)/cc-pVTZ
 ------------------

 ------------
 H2O_H2O_4369
 ------------
 Symbolic Z-matrix:
 Charge =  0 Multiplicity = 1

                         Standard orientation:
 ---------------------------------------------------------------------
 Center     Atomic      Atomic             Coordinates (Angstroms)
 Number     Number       Type             X           Y           Z
 ---------------------------------------------------------------------
      1          8           0        0.054140   -3.075081    0.000000
      2          1           0       -0.746284   -3.645016    0.000000
      3          1           0        0.852856   -3.647407    0.000000
      4          8           0        0.054140    3.152428    0.000000
      5          1           0       -0.228262    4.093574    0.000000
      6          1           0       -0.744553    2.580068    0.000000
 ---------------------------------------------------------------------

 SCF Done:  E(RHF) =  -152.107424225     A.U. after   10 cycles
 E2 =    -0.5258802281D+00 EUMP2 =    -0.15263330445283D+03
 CCSD(T)
 CCSD(T)= -0.15266052404D+03

 The electronic state is 1-A'.
 Alpha  occ. eigenvalues --  -20.55599 -20.55137  -1.32898  -1.32435  -0.70304
 Alpha  occ. eigenvalues --   -0.69834  -0.56346  -0.55880  -0.50010  -0.49548
 Alpha virt. eigenvalues --    0.14062   0.14551   0.20151   0.20649   0.54256
 Alpha virt. eigenvalues --    0.54741   0.57177   0.57639   0.67811   0.68347
 Alpha virt. eigenvalues --    0.78870   0.79325   0.80300   0.80785   0.82242

 Mulliken charges:
               1
     1  O   -0.508993
     2  H    0.253263
     3  H    0.255731
     4  O   -0.508701
     5  H    0.252025
     6  H    0.256674
 Sum of Mulliken charges =  -0.00000

 Dipole moment (field-independent basis, Debye):
    X=             -1.8605    Y=             -1.3523    Z=              0.0000  Tot=              2.3000
 Quadrupole moment (field-independent basis, Debye-Ang):
   XX=             -9.6486   YY=              6.1809   ZZ=            -14.7121
   XY=             -5.4164   XZ=              0.0000   YZ=              0.0000

 Normal termination of Gaussian 16 at Sat Aug 27 06:55:30 2022.
