 Gaussian 16, Revision A.03,
 Gaussian 16:  ES64L-G16RevA.03 25-Dec-2016

 ------------------
 #p CCSD(T)/cc-pVTZ
 ------------------

 ------------
 H2O_H2O_2173
 ------------
 Symbolic Z-matrix:
 Charge =  0 Multiplicity = 1

                         Standard orientation:
 ---------------------------------------------------------------------
 Center     Atomic      Atomic             Coordinates (Angstroms)
 Number     Number       Type             X           Y           Z
 ---------------------------------------------------------------------
      1          8           0        0.057126   -1.889225    0.000000
      2          1           0       -0.743885   -2.458335    0.000000
      3          1           0        0.855252   -2.462374    0.000000
      4          8           0        0.057126    1.995692    0.000000
      5          1           0       -0.458378    2.832210    0.000000
      6          1           0       -0.566997    1.236761    0.000000
 ---------------------------------------------------------------------

 SCF Done:  E(RHF) =  -152.108881002     A.U. after   10 cycles
 E2 =    -0.5262280482D+00 EUMP2 =    -0.15263510905015D+03
 CCSD(T)
 CCSD(T)= -0.15266225722D+03

 The electronic state is 1-A'.
 Alpha  occ. eigenvalues --  -20.56140 -20.54210  -1.33410  -1.31512  -0.70815
 Alpha  occ. eigenvalues --   -0.68880  -0.56892  -0.54984  -0.50532  -0.48642
 Alpha virt. eigenvalues --    0.12948   0.16202   0.19777   0.23277   0.53689
 Alpha virt. eigenvalues --    0.55189   0.56761   0.58548   0.66497   0.73595
 Alpha virt. eigenvalues --    0.78157   0.79253   0.80279   0.80312   0.83284

 Mulliken charges:
               1
     1  O   -0.504464
     2  H    0.250200
     3  H    0.258612
     4  O   -0.513933
     5  H    0.245973
     6  H    0.263612
 Sum of Mulliken charges =  -0.00000

 Dipole moment (field-independent basis, Debye):
    X=             -1.9271    Y=             -1.9693    Z=              0.0000  Tot=              2.7553
 Quadrupole moment (field-independent basis, Debye-Ang):
   XX=             -9.8516   YY=             -1.8408   ZZ=            -14.7183
   XY=             -3.9718   XZ=              0.0000   YZ=              0.0000

 Normal termination of Gaussian 16 at Sat Aug 27 09:00:45 2022.
