 Gaussian 16, Revision A.03,
 Gaussian 16:  ES64L-G16RevA.03 25-Dec-2016

 ------------------
 #p CCSD(T)/cc-pVTZ
 ------------------

 -----------
 H2O_H2O_890
 -----------
 Symbolic Z-matrix:
 Charge =  0 Multiplicity = 1

                         Standard orientation:
 ---------------------------------------------------------------------
 Center     Atomic      Atomic             Coordinates (Angstroms)
 Number     Number       Type             X           Y           Z
 ---------------------------------------------------------------------
      1          8           0        0.047570   -1.241548    0.000000
      2          1           0       -0.753840   -1.810096    0.000000
      3          1           0        0.845293   -1.815257    0.000000
      4          8           0        0.047570    1.292006    0.000000
      5          1           0        0.020078    2.274224    0.000000
      6          1           0       -0.872644    0.947459    0.000000
 ---------------------------------------------------------------------

 SCF Done:  E(RHF) =  -152.098647698     A.U. after   11 cycles
 E2 =    -0.5291046531D+00 EUMP2 =    -0.15262775235112D+03
 CCSD(T)
 CCSD(T)= -0.15265493404D+03

 The electronic state is 1-A'.
 Alpha  occ. eigenvalues --  -20.54721 -20.52970  -1.32351  -1.30196  -0.69743
 Alpha  occ. eigenvalues --   -0.67950  -0.56322  -0.52268  -0.49504  -0.47175
 Alpha virt. eigenvalues --    0.13841   0.17451   0.20075   0.23561   0.53235
 Alpha virt. eigenvalues --    0.57616   0.58411   0.59823   0.70763   0.75392
 Alpha virt. eigenvalues --    0.77486   0.79385   0.83121   0.84244   0.85234

 Mulliken charges:
               1
     1  O   -0.471208
     2  H    0.229308
     3  H    0.247481
     4  O   -0.467583
     5  H    0.214588
     6  H    0.247415
 Sum of Mulliken charges =  -0.00000

 Dipole moment (field-independent basis, Debye):
    X=             -1.4915    Y=             -0.9941    Z=              0.0000  Tot=              1.7924
 Quadrupole moment (field-independent basis, Debye-Ang):
   XX=             -9.3069   YY=             -3.3870   ZZ=            -14.7239
   XY=             -1.4189   XZ=              0.0000   YZ=              0.0000

 Normal termination of Gaussian 16 at Fri Aug 26 20:54:33 2022.
