 Gaussian 16, Revision A.03,
 Gaussian 16:  ES64L-G16RevA.03 25-Dec-2016

 ------------------
 #p CCSD(T)/cc-pVTZ
 ------------------

 ------------
 H2O_H2O_3195
 ------------
 Symbolic Z-matrix:
 Charge =  0 Multiplicity = 1

                         Standard orientation:
 ---------------------------------------------------------------------
 Center     Atomic      Atomic             Coordinates (Angstroms)
 Number     Number       Type             X           Y           Z
 ---------------------------------------------------------------------
      1          8           0        0.055248   -2.446314    0.000000
      2          1           0       -0.745412   -3.015919    0.000000
      3          1           0        0.853727   -3.018971    0.000000
      4          8           0        0.055248    2.530766    0.000000
      5          1           0       -0.287723    3.451568    0.000000
      6          1           0       -0.704558    1.907708    0.000000
 ---------------------------------------------------------------------

 SCF Done:  E(RHF) =  -152.107566135     A.U. after   10 cycles
 E2 =    -0.5259314599D+00 EUMP2 =    -0.15263349759482D+03
 CCSD(T)
 CCSD(T)= -0.15266070767D+03

 The electronic state is 1-A'.
 Alpha  occ. eigenvalues --  -20.55659 -20.54831  -1.32955  -1.32127  -0.70362
 Alpha  occ. eigenvalues --   -0.69516  -0.56407  -0.55574  -0.50067  -0.49243
 Alpha virt. eigenvalues --    0.13644   0.15107   0.20068   0.21142   0.54128
 Alpha virt. eigenvalues --    0.54921   0.57139   0.57862   0.66964   0.69842
 Alpha virt. eigenvalues --    0.78818   0.79619   0.80046   0.80620   0.82780

 Mulliken charges:
               1
     1  O   -0.509261
     2  H    0.252370
     3  H    0.257137
     4  O   -0.508957
     5  H    0.249854
     6  H    0.258857
 Sum of Mulliken charges =  -0.00000

 Dipole moment (field-independent basis, Debye):
    X=             -1.8889    Y=             -1.4981    Z=              0.0000  Tot=              2.4109
 Quadrupole moment (field-independent basis, Debye-Ang):
   XX=             -9.7227   YY=              2.3130   ZZ=            -14.7130
   XY=             -4.4753   XZ=              0.0000   YZ=              0.0000

 Normal termination of Gaussian 16 at Fri Aug 26 20:16:37 2022.
