 Gaussian 16, Revision A.03,
 Gaussian 16:  ES64L-G16RevA.03 25-Dec-2016

 ------------------
 #p CCSD(T)/cc-pVTZ
 ------------------

 -----------
 H2O_H2O_484
 -----------
 Symbolic Z-matrix:
 Charge =  0 Multiplicity = 1

                         Standard orientation:
 ---------------------------------------------------------------------
 Center     Atomic      Atomic             Coordinates (Angstroms)
 Number     Number       Type             X           Y           Z
 ---------------------------------------------------------------------
      1          8           0        0.031755   -1.045853    0.000000
      2          1           0       -0.769291   -1.614914    0.000000
      3          1           0        0.829845   -1.619052    0.000000
      4          8           0        0.031755    1.064939    0.000000
      5          1           0        0.381648    1.983134    0.000000
      6          1           0       -0.950285    1.098142    0.000000
 ---------------------------------------------------------------------

 SCF Done:  E(RHF) =  -152.069652295     A.U. after   11 cycles
 E2 =    -0.5331102195D+00 EUMP2 =    -0.15260276251460D+03
 CCSD(T)
 CCSD(T)= -0.15262976462D+03

 The electronic state is 1-A'.
 Alpha  occ. eigenvalues --  -20.52822 -20.52192  -1.31972  -1.29072  -0.68992
 Alpha  occ. eigenvalues --   -0.67268  -0.58908  -0.49193  -0.46659  -0.45679
 Alpha virt. eigenvalues --    0.14411   0.17963   0.20340   0.23154   0.52438
 Alpha virt. eigenvalues --    0.58084   0.58550   0.63835   0.70570   0.76815
 Alpha virt. eigenvalues --    0.78382   0.81815   0.83814   0.86129   0.87767

 Mulliken charges:
               1
     1  O   -0.449493
     2  H    0.214872
     3  H    0.232317
     4  O   -0.421976
     5  H    0.188747
     6  H    0.235534
 Sum of Mulliken charges =  -0.00000

 Dipole moment (field-independent basis, Debye):
    X=             -0.9396    Y=             -0.3866    Z=              0.0000  Tot=              1.0161
 Quadrupole moment (field-independent basis, Debye-Ang):
   XX=             -8.6679   YY=             -5.0601   ZZ=            -14.7346
   XY=             -0.4577   XZ=              0.0000   YZ=              0.0000

 Normal termination of Gaussian 16 at Fri Aug 26 16:53:19 2022.
