 Gaussian 16, Revision A.03,
 Gaussian 16:  ES64L-G16RevA.03 25-Dec-2016

 ------------------
 #p CCSD(T)/cc-pVTZ
 ------------------

 ------------
 H2O_H2O_2529
 ------------
 Symbolic Z-matrix:
 Charge =  0 Multiplicity = 1

                         Standard orientation:
 ---------------------------------------------------------------------
 Center     Atomic      Atomic             Coordinates (Angstroms)
 Number     Number       Type             X           Y           Z
 ---------------------------------------------------------------------
      1          8           0        0.014783   -2.144381    0.000000
      2          1           0       -0.785126   -2.715039    0.000000
      3          1           0        0.814015   -2.715987    0.000000
      4          8           0        0.014783    2.148256    0.000000
      5          1           0        0.639740    2.906501    0.000000
      6          1           0       -0.905159    2.493528    0.000000
 ---------------------------------------------------------------------

 SCF Done:  E(RHF) =  -152.105577505     A.U. after   10 cycles
 E2 =    -0.5261635313D+00 EUMP2 =    -0.15263174103635D+03
 CCSD(T)
 CCSD(T)= -0.15265898923D+03

 The electronic state is 1-A'.
 Alpha  occ. eigenvalues --  -20.54731 -20.54682  -1.32019  -1.31969  -0.69433
 Alpha  occ. eigenvalues --   -0.69380  -0.55440  -0.55249  -0.49121  -0.49066
 Alpha virt. eigenvalues --    0.14250   0.15354   0.20608   0.20985   0.54607
 Alpha virt. eigenvalues --    0.55642   0.57832   0.58020   0.64368   0.73125
 Alpha virt. eigenvalues --    0.79598   0.79955   0.81114   0.81247   0.82035

 Mulliken charges:
               1
     1  O   -0.497682
     2  H    0.247876
     3  H    0.249828
     4  O   -0.497552
     5  H    0.247565
     6  H    0.249964
 Sum of Mulliken charges =  -0.00000

 Dipole moment (field-independent basis, Debye):
    X=             -0.5018    Y=             -0.0694    Z=              0.0000  Tot=              0.5066
 Quadrupole moment (field-independent basis, Debye-Ang):
   XX=             -7.9632   YY=              4.9004   ZZ=            -14.7096
   XY=             -0.6531   XZ=              0.0000   YZ=              0.0000

 484172\MP4DQ=-152.64084\MP4SDQ=-152.6439152\CCSD=-152.6433203\CCSD(T)=
 Normal termination of Gaussian 16 at Fri Aug 26 13:23:47 2022.
