 Gaussian 16, Revision A.03,
 Gaussian 16:  ES64L-G16RevA.03 25-Dec-2016

 ------------------
 #p CCSD(T)/cc-pVTZ
 ------------------

 ------------
 H2O_H2O_3417
 ------------
 Symbolic Z-matrix:
 Charge =  0 Multiplicity = 1

                         Standard orientation:
 ---------------------------------------------------------------------
 Center     Atomic      Atomic             Coordinates (Angstroms)
 Number     Number       Type             X           Y           Z
 ---------------------------------------------------------------------
      1          8           0        0.051277   -2.577338    0.000000
      2          1           0       -0.749258   -3.147118    0.000000
      3          1           0        0.849882   -3.149821    0.000000
      4          8           0        0.051277    2.640870    0.000000
      5          1           0       -0.105675    3.610856    0.000000
      6          1           0       -0.815381    2.177826    0.000000
 ---------------------------------------------------------------------

 SCF Done:  E(RHF) =  -152.107211137     A.U. after   10 cycles
 E2 =    -0.5259318838D+00 EUMP2 =    -0.15263314302100D+03
 CCSD(T)
 CCSD(T)= -0.15266036442D+03

 The electronic state is 1-A'.
 Alpha  occ. eigenvalues --  -20.55482 -20.54928  -1.32779  -1.32222  -0.70187
 Alpha  occ. eigenvalues --   -0.69617  -0.56217  -0.55658  -0.49889  -0.49335
 Alpha virt. eigenvalues --    0.13967   0.14885   0.20204   0.20898   0.54334
 Alpha virt. eigenvalues --    0.54936   0.57278   0.57802   0.67438   0.69239
 Alpha virt. eigenvalues --    0.78992   0.79534   0.80378   0.80850   0.82668

 Mulliken charges:
               1
     1  O   -0.507673
     2  H    0.251882
     3  H    0.255847
     4  O   -0.507223
     5  H    0.250159
     6  H    0.257008
 Sum of Mulliken charges =  -0.00000

 Dipole moment (field-independent basis, Debye):
    X=             -1.7555    Y=             -1.1208    Z=              0.0000  Tot=              2.0828
 Quadrupole moment (field-independent basis, Debye-Ang):
   XX=             -9.4576   YY=              4.5931   ZZ=            -14.7120
   XY=             -4.0262   XZ=              0.0000   YZ=              0.0000

 Normal termination of Gaussian 16 at Fri Aug 26 22:09:31 2022.
