 Gaussian 16, Revision A.03,
 Gaussian 16:  ES64L-G16RevA.03 25-Dec-2016

 ------------------
 #p CCSD(T)/cc-pVTZ
 ------------------

 ------------
 H2O_H2O_1443
 ------------
 Symbolic Z-matrix:
 Charge =  0 Multiplicity = 1

                         Standard orientation:
 ---------------------------------------------------------------------
 Center     Atomic      Atomic             Coordinates (Angstroms)
 Number     Number       Type             X           Y           Z
 ---------------------------------------------------------------------
      1          8           0        0.052868   -1.523334    0.000000
      2          1           0       -0.748364   -2.092133    0.000000
      3          1           0        0.850771   -2.096794    0.000000
      4          8           0        0.052868    1.593540    0.000000
      5          1           0       -0.166015    2.551453    0.000000
      6          1           0       -0.782284    1.075828    0.000000
 ---------------------------------------------------------------------

 SCF Done:  E(RHF) =  -152.106711810     A.U. after   10 cycles
 E2 =    -0.5271368285D+00 EUMP2 =    -0.15263384863804D+03
 CCSD(T)
 CCSD(T)= -0.15266100838D+03

 The electronic state is 1-A'.
 Alpha  occ. eigenvalues --  -20.55583 -20.53664  -1.32881  -1.30930  -0.70300
 Alpha  occ. eigenvalues --   -0.68344  -0.56277  -0.54266  -0.49998  -0.48045
 Alpha virt. eigenvalues --    0.13474   0.16869   0.19928   0.23499   0.54032
 Alpha virt. eigenvalues --    0.55424   0.57198   0.58304   0.66874   0.75846
 Alpha virt. eigenvalues --    0.76822   0.76893   0.79541   0.81887   0.84791

 Mulliken charges:
               1
     1  O   -0.487552
     2  H    0.240052
     3  H    0.254119
     4  O   -0.497185
     5  H    0.234270
     6  H    0.256296
 Sum of Mulliken charges =   0.00000

 Dipole moment (field-independent basis, Debye):
    X=             -1.7338    Y=             -1.3485    Z=              0.0000  Tot=              2.1965
 Quadrupole moment (field-independent basis, Debye-Ang):
   XX=             -9.5797   YY=             -1.9354   ZZ=            -14.7198
   XY=             -2.4022   XZ=              0.0000   YZ=              0.0000

 Normal termination of Gaussian 16 at Sat Aug 27 04:47:40 2022.
