 Gaussian 16, Revision A.03,
 Gaussian 16:  ES64L-G16RevA.03 25-Dec-2016

 ------------------
 #p CCSD(T)/cc-pVTZ
 ------------------

 -----------
 H2O_H2O_925
 -----------
 Symbolic Z-matrix:
 Charge =  0 Multiplicity = 1

                         Standard orientation:
 ---------------------------------------------------------------------
 Center     Atomic      Atomic             Coordinates (Angstroms)
 Number     Number       Type             X           Y           Z
 ---------------------------------------------------------------------
      1          8           0        0.000000   -0.000000    1.295548
      2          1           0        0.000000    0.799571    1.866680
      3          1           0       -0.000000   -0.799571    1.866680
      4          8           0        0.000000   -0.000000   -1.295548
      5          1           0       -0.000000   -0.799571   -1.866680
      6          1           0        0.000000    0.799571   -1.866680
 ---------------------------------------------------------------------

 SCF Done:  E(RHF) =  -152.094787269     A.U. after   10 cycles
 E2 =    -0.5287177032D+00 EUMP2 =    -0.15262350497179D+03
 CCSD(T)
 CCSD(T)= -0.15265082190D+03

 The electronic state is 1-AG.
 Alpha  occ. eigenvalues --  -20.53222 -20.53221  -1.31016  -1.30324  -0.68338
 Alpha  occ. eigenvalues --   -0.67867  -0.56617  -0.50703  -0.48294  -0.47124
 Alpha virt. eigenvalues --    0.14493   0.17359   0.20574   0.22233   0.50480
 Alpha virt. eigenvalues --    0.58714   0.58863   0.62616   0.73056   0.76775
 Alpha virt. eigenvalues --    0.76779   0.78788   0.81639   0.83820   0.86441

 Mulliken charges:
               1
     1  O   -0.461584
     2  H    0.230792
     3  H    0.230792
     4  O   -0.461584
     5  H    0.230792
     6  H    0.230792
 Sum of Mulliken charges =  -0.00000

 Dipole moment (field-independent basis, Debye):
    X=             -0.0000    Y=              0.0000    Z=             -0.0000  Tot=              0.0000
 Quadrupole moment (field-independent basis, Debye-Ang):
   XX=            -14.7207   YY=             -7.9631   ZZ=             -2.3853
   XY=              0.0000   XZ=             -0.0000   YZ=             -0.0000

 MP4DQ=-152.6321883\MP4SDQ=-152.6354084\CCSD=-152.6347639\CCSD(T)=-152.
 Normal termination of Gaussian 16 at Fri Aug 26 21:14:43 2022.
