 Gaussian 16, Revision A.03,
 Gaussian 16:  ES64L-G16RevA.03 25-Dec-2016

 ------------------
 #p CCSD(T)/cc-pVTZ
 ------------------

 ------------
 H2O_H2O_3759
 ------------
 Symbolic Z-matrix:
 Charge =  0 Multiplicity = 1

                         Standard orientation:
 ---------------------------------------------------------------------
 Center     Atomic      Atomic             Coordinates (Angstroms)
 Number     Number       Type             X           Y           Z
 ---------------------------------------------------------------------
      1          8           0        0.031740   -2.787564    0.000000
      2          1           0       -0.768389   -3.357914    0.000000
      3          1           0        0.830753   -3.359476    0.000000
      4          8           0        0.031740    2.806752    0.000000
      5          1           0        0.380152    3.725509    0.000000
      6          1           0       -0.950353    2.838372    0.000000
 ---------------------------------------------------------------------

 SCF Done:  E(RHF) =  -152.106735014     A.U. after   10 cycles
 E2 =    -0.5259514144D+00 EUMP2 =    -0.15263268642827D+03
 CCSD(T)
 CCSD(T)= -0.15265992009D+03

 The electronic state is 1-A'.
 Alpha  occ. eigenvalues --  -20.55193 -20.55052  -1.32489  -1.32346  -0.69897
 Alpha  occ. eigenvalues --   -0.69750  -0.55905  -0.55762  -0.49596  -0.49453
 Alpha virt. eigenvalues --    0.14374   0.14619   0.20454   0.20630   0.54663
 Alpha virt. eigenvalues --    0.54835   0.57530   0.57677   0.68130   0.68695
 Alpha virt. eigenvalues --    0.79283   0.79423   0.80726   0.80884   0.82668

 Mulliken charges:
               1
     1  O   -0.504918
     2  H    0.251443
     3  H    0.253477
     4  O   -0.504743
     5  H    0.250896
     6  H    0.253846
 Sum of Mulliken charges =   0.00000

 Dipole moment (field-independent basis, Debye):
    X=             -1.0881    Y=             -0.3365    Z=              0.0000  Tot=              1.1389
 Quadrupole moment (field-independent basis, Debye-Ang):
   XX=             -8.4397   YY=              9.0645   ZZ=            -14.7107
   XY=             -2.2515   XZ=              0.0000   YZ=              0.0000

 493702\MP4DQ=-152.64181\MP4SDQ=-152.6448712\CCSD=-152.6442823\CCSD(T)=
 Normal termination of Gaussian 16 at Sat Aug 27 03:05:09 2022.
