 Gaussian 16, Revision A.03,
 Gaussian 16:  ES64L-G16RevA.03 25-Dec-2016

 ------------------
 #p CCSD(T)/cc-pVTZ
 ------------------

 -----------
 H2O_H2O_621
 -----------
 Symbolic Z-matrix:
 Charge =  0 Multiplicity = 1

                         Standard orientation:
 ---------------------------------------------------------------------
 Center     Atomic      Atomic             Coordinates (Angstroms)
 Number     Number       Type             X           Y           Z
 ---------------------------------------------------------------------
      1          8           0        0.056213   -1.073025    0.000000
      2          1           0       -0.745812   -1.640705    0.000000
      3          1           0        0.853315   -1.647598    0.000000
      4          8           0        0.056213    1.164483    0.000000
      5          1           0       -0.344092    2.061847    0.000000
      6          1           0       -0.662827    0.494790    0.000000
 ---------------------------------------------------------------------

 SCF Done:  E(RHF) =  -152.084617674     A.U. after   11 cycles
 E2 =    -0.5328727385D+00 EUMP2 =    -0.15261749041245D+03
 CCSD(T)
 CCSD(T)= -0.15264425454D+03

 The electronic state is 1-A'.
 Alpha  occ. eigenvalues --  -20.56135 -20.51242  -1.34746  -1.28744  -0.72128
 Alpha  occ. eigenvalues --   -0.68983  -0.54606  -0.52168  -0.51557  -0.45734
 Alpha virt. eigenvalues --    0.13190   0.18521   0.19419   0.25960   0.50663
 Alpha virt. eigenvalues --    0.55961   0.61150   0.63229   0.71870   0.74084
 Alpha virt. eigenvalues --    0.77788   0.82297   0.83757   0.84557   0.87290

 Mulliken charges:
               1
     1  O   -0.431968
     2  H    0.218889
     3  H    0.243822
     4  O   -0.491945
     5  H    0.202557
     6  H    0.258645
 Sum of Mulliken charges =   0.00000

 Dipole moment (field-independent basis, Debye):
    X=             -1.6982    Y=             -1.9928    Z=              0.0000  Tot=              2.6182
 Quadrupole moment (field-independent basis, Debye-Ang):
   XX=             -9.8025   YY=             -5.6776   ZZ=            -14.6980
   XY=             -2.1174   XZ=              0.0000   YZ=              0.0000

 Normal termination of Gaussian 16 at Fri Aug 26 18:19:27 2022.
