 Gaussian 16, Revision A.03,
 Gaussian 16:  ES64L-G16RevA.03 25-Dec-2016

 ------------------
 #p CCSD(T)/cc-pVTZ
 ------------------

 ------------
 H2O_H2O_4690
 ------------
 Symbolic Z-matrix:
 Charge =  0 Multiplicity = 1

                         Standard orientation:
 ---------------------------------------------------------------------
 Center     Atomic      Atomic             Coordinates (Angstroms)
 Number     Number       Type             X           Y           Z
 ---------------------------------------------------------------------
      1          8           0        0.047519   -3.262428    0.000000
      2          1           0       -0.752761   -3.832565    0.000000
      3          1           0        0.846380   -3.834554    0.000000
      4          8           0        0.047519    3.313075    0.000000
      5          1           0        0.018080    4.295236    0.000000
      6          1           0       -0.872009    2.966703    0.000000
 ---------------------------------------------------------------------

 SCF Done:  E(RHF) =  -152.107241669     A.U. after   10 cycles
 E2 =    -0.5258915185D+00 EUMP2 =    -0.15263313318788D+03
 CCSD(T)
 CCSD(T)= -0.15266035698D+03

 The electronic state is 1-A'.
 Alpha  occ. eigenvalues --  -20.55474 -20.55204  -1.32772  -1.32501  -0.70178
 Alpha  occ. eigenvalues --   -0.69902  -0.56211  -0.55940  -0.49882  -0.49612
 Alpha virt. eigenvalues --    0.14188   0.14460   0.20255   0.20540   0.54386
 Alpha virt. eigenvalues --    0.54672   0.57289   0.57560   0.67988   0.68269
 Alpha virt. eigenvalues --    0.78997   0.79264   0.80432   0.80722   0.82357

 Mulliken charges:
               1
     1  O   -0.507898
     2  H    0.253002
     3  H    0.254897
     4  O   -0.507728
     5  H    0.252256
     6  H    0.255471
 Sum of Mulliken charges =  -0.00000

 Dipole moment (field-independent basis, Debye):
    X=             -1.6340    Y=             -0.8835    Z=              0.0000  Tot=              1.8576
 Quadrupole moment (field-independent basis, Debye-Ang):
   XX=             -9.2243   YY=              9.7891   ZZ=            -14.7116
   XY=             -4.6365   XZ=              0.0000   YZ=              0.0000

 Normal termination of Gaussian 16 at Sat Aug 27 08:46:25 2022.
