 Gaussian 16, Revision A.03,
 Gaussian 16:  ES64L-G16RevA.03 25-Dec-2016

 ------------------
 #p CCSD(T)/cc-pVTZ
 ------------------

 ------------
 H2O_H2O_1192
 ------------
 Symbolic Z-matrix:
 Charge =  0 Multiplicity = 1

                         Standard orientation:
 ---------------------------------------------------------------------
 Center     Atomic      Atomic             Coordinates (Angstroms)
 Number     Number       Type             X           Y           Z
 ---------------------------------------------------------------------
      1          8           0        0.051322   -1.394077    0.000000
      2          1           0       -0.750012   -1.962734    0.000000
      3          1           0        0.849122   -1.967679    0.000000
      4          8           0        0.051322    1.457465    0.000000
      5          1           0       -0.104270    2.427670    0.000000
      6          1           0       -0.815985    0.995638    0.000000
 ---------------------------------------------------------------------

 SCF Done:  E(RHF) =  -152.104780468     A.U. after   10 cycles
 E2 =    -0.5277974918D+00 EUMP2 =    -0.15263257795998D+03
 CCSD(T)
 CCSD(T)= -0.15265974671D+03

 The electronic state is 1-A'.
 Alpha  occ. eigenvalues --  -20.55347 -20.53370  -1.32716  -1.30627  -0.70135
 Alpha  occ. eigenvalues --   -0.68136  -0.56164  -0.53723  -0.49837  -0.47712
 Alpha virt. eigenvalues --    0.13607   0.17144   0.19962   0.23607   0.53592
 Alpha virt. eigenvalues --    0.57185   0.57365   0.58416   0.69058   0.75565
 Alpha virt. eigenvalues --    0.75995   0.77376   0.80979   0.82527   0.84925

 Mulliken charges:
               1
     1  O   -0.481009
     2  H    0.236055
     3  H    0.252364
     4  O   -0.487566
     5  H    0.227342
     6  H    0.252813
 Sum of Mulliken charges =  -0.00000

 Dipole moment (field-independent basis, Debye):
    X=             -1.6553    Y=             -1.2354    Z=              0.0000  Tot=              2.0655
 Quadrupole moment (field-independent basis, Debye-Ang):
   XX=             -9.4968   YY=             -2.5552   ZZ=            -14.7217
   XY=             -2.0008   XZ=              0.0000   YZ=              0.0000

 Normal termination of Gaussian 16 at Sat Aug 27 02:52:14 2022.
