 Gaussian 16, Revision A.03,
 Gaussian 16:  ES64L-G16RevA.03 25-Dec-2016

 ------------------
 #p CCSD(T)/cc-pVTZ
 ------------------

 ------------
 H2O_H2O_1713
 ------------
 Symbolic Z-matrix:
 Charge =  0 Multiplicity = 1

                         Standard orientation:
 ---------------------------------------------------------------------
 Center     Atomic      Atomic             Coordinates (Angstroms)
 Number     Number       Type             X           Y           Z
 ---------------------------------------------------------------------
      1          8           0        0.042982   -1.686687    0.000000
      2          1           0       -0.757825   -2.256085    0.000000
      3          1           0        0.841314   -2.259550    0.000000
      4          8           0        0.042982    1.725413    0.000000
      5          1           0        0.142894    2.702922    0.000000
      6          1           0       -0.914096    1.502910    0.000000
 ---------------------------------------------------------------------

 SCF Done:  E(RHF) =  -152.105527610     A.U. after   10 cycles
 E2 =    -0.5267099400D+00 EUMP2 =    -0.15263223755024D+03
 CCSD(T)
 CCSD(T)= -0.15265944847D+03

 The electronic state is 1-A'.
 Alpha  occ. eigenvalues --  -20.54946 -20.54113  -1.32225  -1.31375  -0.69648
 Alpha  occ. eigenvalues --   -0.68765  -0.55711  -0.54540  -0.49335  -0.48477
 Alpha virt. eigenvalues --    0.13778   0.16349   0.20262   0.22137   0.53431
 Alpha virt. eigenvalues --    0.55466   0.57718   0.58603   0.64087   0.76908
 Alpha virt. eigenvalues --    0.78415   0.78499   0.79570   0.81302   0.85304

 Mulliken charges:
               1
     1  O   -0.489321
     2  H    0.240687
     3  H    0.250560
     4  O   -0.491229
     5  H    0.237645
     6  H    0.251658
 Sum of Mulliken charges =  -0.00000

 Dipole moment (field-independent basis, Debye):
    X=             -1.4286    Y=             -0.7235    Z=              0.0000  Tot=              1.6014
 Quadrupole moment (field-independent basis, Debye-Ang):
   XX=             -8.9951   YY=              0.2365   ZZ=            -14.7129
   XY=             -1.7360   XZ=              0.0000   YZ=              0.0000

 Normal termination of Gaussian 16 at Sat Aug 27 06:21:52 2022.
