 Gaussian 16, Revision A.03,
 Gaussian 16:  ES64L-G16RevA.03 25-Dec-2016

 ------------------
 #p CCSD(T)/cc-pVTZ
 ------------------

 ------------
 H2O_H2O_1757
 ------------
 Symbolic Z-matrix:
 Charge =  0 Multiplicity = 1

                         Standard orientation:
 ---------------------------------------------------------------------
 Center     Atomic      Atomic             Coordinates (Angstroms)
 Number     Number       Type             X           Y           Z
 ---------------------------------------------------------------------
      1          8           0        0.025268   -1.727949    0.000000
      2          1           0       -0.775019   -2.298077    0.000000
      3          1           0        0.824122   -2.300083    0.000000
      4          8           0        0.025268    1.739665    0.000000
      5          1           0        0.490862    2.604956    0.000000
      6          1           0       -0.944251    1.899472    0.000000
 ---------------------------------------------------------------------

 SCF Done:  E(RHF) =  -152.104374444     A.U. after   10 cycles
 E2 =    -0.5266883429D+00 EUMP2 =    -0.15263106278690D+03
 CCSD(T)
 CCSD(T)= -0.15265830788D+03

 The electronic state is 1-A'.
 Alpha  occ. eigenvalues --  -20.54463 -20.54229  -1.31746  -1.31497  -0.69170
 Alpha  occ. eigenvalues --   -0.68911  -0.55407  -0.54369  -0.48864  -0.48571
 Alpha virt. eigenvalues --    0.14102   0.16183   0.20507   0.21588   0.53057
 Alpha virt. eigenvalues --    0.56723   0.58029   0.58460   0.62531   0.76449
 Alpha virt. eigenvalues --    0.78832   0.79055   0.80288   0.81290   0.84121

 Mulliken charges:
               1
     1  O   -0.486012
     2  H    0.240371
     3  H    0.246105
     4  O   -0.485984
     5  H    0.239335
     6  H    0.246186
 Sum of Mulliken charges =   0.00000

 Dipole moment (field-independent basis, Debye):
    X=             -0.8426    Y=             -0.2178    Z=              0.0000  Tot=              0.8703
 Quadrupole moment (field-independent basis, Debye-Ang):
   XX=             -8.2521   YY=              1.3114   ZZ=            -14.7098
   XY=             -0.8313   XZ=              0.0000   YZ=              0.0000

 Normal termination of Gaussian 16 at Sat Aug 27 06:37:04 2022.
