 Gaussian 16, Revision A.03,
 Gaussian 16:  ES64L-G16RevA.03 25-Dec-2016

 ------------------
 #p CCSD(T)/cc-pVTZ
 ------------------

 ------------
 H2O_H2O_2446
 ------------
 Symbolic Z-matrix:
 Charge =  0 Multiplicity = 1

                         Standard orientation:
 ---------------------------------------------------------------------
 Center     Atomic      Atomic             Coordinates (Angstroms)
 Number     Number       Type             X           Y           Z
 ---------------------------------------------------------------------
      1          8           0        0.056122   -2.043509    0.000000
      2          1           0       -0.744765   -2.612794    0.000000
      3          1           0        0.854373   -2.616485    0.000000
      4          8           0        0.056122    2.135192    0.000000
      5          1           0       -0.345979    3.031753    0.000000
      6          1           0       -0.661576    1.464061    0.000000
 ---------------------------------------------------------------------

 SCF Done:  E(RHF) =  -152.108044888     A.U. after   10 cycles
 E2 =    -0.5260987468D+00 EUMP2 =    -0.15263414363465D+03
 CCSD(T)
 CCSD(T)= -0.15266132302D+03

 The electronic state is 1-A'.
 Alpha  occ. eigenvalues --  -20.55835 -20.54460  -1.33115  -1.31755  -0.70523
 Alpha  occ. eigenvalues --   -0.69129  -0.56571  -0.55209  -0.50232  -0.48878
 Alpha virt. eigenvalues --    0.13148   0.15820   0.19933   0.22204   0.54079
 Alpha virt. eigenvalues --    0.54619   0.57036   0.58392   0.66138   0.73133
 Alpha virt. eigenvalues --    0.78616   0.79424   0.80010   0.81629   0.82267

 Mulliken charges:
               1
     1  O   -0.506445
     2  H    0.250534
     3  H    0.257930
     4  O   -0.510394
     5  H    0.247111
     6  H    0.261265
 Sum of Mulliken charges =  -0.00000

 Dipole moment (field-independent basis, Debye):
    X=             -1.9025    Y=             -1.6674    Z=              0.0000  Tot=              2.5298
 Quadrupole moment (field-independent basis, Debye-Ang):
   XX=             -9.7824   YY=             -0.1855   ZZ=            -14.7155
   XY=             -3.9184   XZ=              0.0000   YZ=              0.0000

 Normal termination of Gaussian 16 at Sat Aug 27 10:36:21 2022.
