 Gaussian 16, Revision A.03,
 Gaussian 16:  ES64L-G16RevA.03 25-Dec-2016

 ------------------
 #p CCSD(T)/cc-pVTZ
 ------------------

 ------------
 H2O_H2O_2905
 ------------
 Symbolic Z-matrix:
 Charge =  0 Multiplicity = 1

                         Standard orientation:
 ---------------------------------------------------------------------
 Center     Atomic      Atomic             Coordinates (Angstroms)
 Number     Number       Type             X           Y           Z
 ---------------------------------------------------------------------
      1          8           0        0.018360   -2.342645    0.000000
      2          1           0       -0.781595   -2.913239    0.000000
      3          1           0        0.817546   -2.914316    0.000000
      4          8           0        0.018360    2.348683    0.000000
      5          1           0        0.592452    3.146132    0.000000
      6          1           0       -0.922170    2.633124    0.000000
 ---------------------------------------------------------------------

 SCF Done:  E(RHF) =  -152.106008339     A.U. after   10 cycles
 E2 =    -0.5260612815D+00 EUMP2 =    -0.15263206962026D+03
 CCSD(T)
 CCSD(T)= -0.15265931520D+03

 The electronic state is 1-A'.
 Alpha  occ. eigenvalues --  -20.54887 -20.54823  -1.32179  -1.32114  -0.69590
 Alpha  occ. eigenvalues --   -0.69523  -0.55570  -0.55479  -0.49281  -0.49216
 Alpha virt. eigenvalues --    0.14344   0.15048   0.20582   0.20835   0.54775
 Alpha virt. eigenvalues --    0.55230   0.57749   0.57877   0.66521   0.70984
 Alpha virt. eigenvalues --    0.79563   0.79688   0.81010   0.81165   0.82508

 Mulliken charges:
               1
     1  O   -0.500598
     2  H    0.249347
     3  H    0.251260
     4  O   -0.500450
     5  H    0.248991
     6  H    0.251449
 Sum of Mulliken charges =  -0.00000

 Dipole moment (field-independent basis, Debye):
    X=             -0.6259    Y=             -0.1070    Z=              0.0000  Tot=              0.6350
 Quadrupole moment (field-independent basis, Debye-Ang):
   XX=             -8.0293   YY=              6.3927   ZZ=            -14.7098
   XY=             -0.9464   XZ=              0.0000   YZ=              0.0000

 Normal termination of Gaussian 16 at Fri Aug 26 17:20:15 2022.
