 Gaussian 16, Revision A.03,
 Gaussian 16:  ES64L-G16RevA.03 25-Dec-2016

 ------------------
 #p CCSD(T)/cc-pVTZ
 ------------------

 ------------
 H2O_H2O_2344
 ------------
 Symbolic Z-matrix:
 Charge =  0 Multiplicity = 1

                         Standard orientation:
 ---------------------------------------------------------------------
 Center     Atomic      Atomic             Coordinates (Angstroms)
 Number     Number       Type             X           Y           Z
 ---------------------------------------------------------------------
      1          8           0        0.054171   -1.998157    0.000000
      2          1           0       -0.746704   -2.567460    0.000000
      3          1           0        0.852434   -2.571115    0.000000
      4          8           0        0.054171    2.075419    0.000000
      5          1           0       -0.227487    3.016787    0.000000
      6          1           0       -0.744974    1.503690    0.000000
 ---------------------------------------------------------------------

 SCF Done:  E(RHF) =  -152.107592328     A.U. after   10 cycles
 E2 =    -0.5261545102D+00 EUMP2 =    -0.15263374683861D+03
 CCSD(T)
 CCSD(T)= -0.15266093478D+03

 The electronic state is 1-A'.
 Alpha  occ. eigenvalues --  -20.55650 -20.54438  -1.32930  -1.31727  -0.70340
 Alpha  occ. eigenvalues --   -0.69102  -0.56365  -0.55165  -0.50044  -0.48847
 Alpha virt. eigenvalues --    0.13281   0.15860   0.20020   0.22098   0.54094
 Alpha virt. eigenvalues --    0.54505   0.57183   0.58383   0.65652   0.74107
 Alpha virt. eigenvalues --    0.78758   0.79440   0.80084   0.81781   0.82993

 Mulliken charges:
               1
     1  O   -0.504264
     2  H    0.249127
     3  H    0.256944
     4  O   -0.507704
     5  H    0.246048
     6  H    0.259848
 Sum of Mulliken charges =  -0.00000

 Dipole moment (field-independent basis, Debye):
    X=             -1.8327    Y=             -1.4079    Z=              0.0000  Tot=              2.3110
 Quadrupole moment (field-independent basis, Debye-Ang):
   XX=             -9.6493   YY=              0.4575   ZZ=            -14.7146
   XY=             -3.4417   XZ=              0.0000   YZ=              0.0000

 Normal termination of Gaussian 16 at Sat Aug 27 09:59:37 2022.
