 Gaussian 16, Revision A.03,
 Gaussian 16:  ES64L-G16RevA.03 25-Dec-2016

 ------------------
 #p CCSD(T)/cc-pVTZ
 ------------------

 -----------
 H2O_H2O_606
 -----------
 Symbolic Z-matrix:
 Charge =  0 Multiplicity = 1

                         Standard orientation:
 ---------------------------------------------------------------------
 Center     Atomic      Atomic             Coordinates (Angstroms)
 Number     Number       Type             X           Y           Z
 ---------------------------------------------------------------------
      1          8           0        0.021864   -1.118017    0.000000
      2          1           0       -0.778664   -1.687808    0.000000
      3          1           0        0.820476   -1.690489    0.000000
      4          8           0        0.021864    1.126639    0.000000
      5          1           0        0.543405    1.959406    0.000000
      6          1           0       -0.935034    1.349917    0.000000
 ---------------------------------------------------------------------

 SCF Done:  E(RHF) =  -152.080189887     A.U. after   11 cycles
 E2 =    -0.5313274332D+00 EUMP2 =    -0.15261151732010D+03
 CCSD(T)
 CCSD(T)= -0.15263867994D+03

 The electronic state is 1-A'.
 Alpha  occ. eigenvalues --  -20.52774 -20.52503  -1.31359  -1.29489  -0.68466
 Alpha  occ. eigenvalues --   -0.67267  -0.58370  -0.48662  -0.47820  -0.46122
 Alpha virt. eigenvalues --    0.14505   0.17824   0.20494   0.22767   0.51221
 Alpha virt. eigenvalues --    0.58793   0.58845   0.64058   0.70881   0.76789
 Alpha virt. eigenvalues --    0.77588   0.81368   0.84108   0.86477   0.87159

 Mulliken charges:
               1
     1  O   -0.453847
     2  H    0.220199
     3  H    0.231871
     4  O   -0.439410
     5  H    0.207615
     6  H    0.233572
 Sum of Mulliken charges =  -0.00000

 Dipole moment (field-independent basis, Debye):
    X=             -0.6622    Y=             -0.1718    Z=              0.0000  Tot=              0.6841
 Quadrupole moment (field-independent basis, Debye-Ang):
   XX=             -8.3295   YY=             -4.2523   ZZ=            -14.7361
   XY=             -0.2880   XZ=              0.0000   YZ=              0.0000

 Normal termination of Gaussian 16 at Fri Aug 26 18:09:32 2022.
