 Gaussian 16, Revision A.03,
 Gaussian 16:  ES64L-G16RevA.03 25-Dec-2016

 ------------------
 #p CCSD(T)/cc-pVTZ
 ------------------

 ------------
 H2O_H2O_4496
 ------------
 Symbolic Z-matrix:
 Charge =  0 Multiplicity = 1

                         Standard orientation:
 ---------------------------------------------------------------------
 Center     Atomic      Atomic             Coordinates (Angstroms)
 Number     Number       Type             X           Y           Z
 ---------------------------------------------------------------------
      1          8           0        0.056085   -3.133727    0.000000
      2          1           0       -0.744351   -3.703646    0.000000
      3          1           0        0.854789   -3.706071    0.000000
      4          8           0        0.056085    3.225499    0.000000
      5          1           0       -0.346725    4.121741    0.000000
      6          1           0       -0.661081    2.553800    0.000000
 ---------------------------------------------------------------------

 SCF Done:  E(RHF) =  -152.107539040     A.U. after   10 cycles
 E2 =    -0.5258679821D+00 EUMP2 =    -0.15263340702210D+03
 CCSD(T)
 CCSD(T)= -0.15266062431D+03

 The electronic state is 1-A'.
 Alpha  occ. eigenvalues --  -20.55674 -20.55151  -1.32974  -1.32450  -0.70380
 Alpha  occ. eigenvalues --   -0.69849  -0.56427  -0.55900  -0.50086  -0.49564
 Alpha virt. eigenvalues --    0.14000   0.14543   0.20093   0.20654   0.54179
 Alpha virt. eigenvalues --    0.54723   0.57110   0.57633   0.67729   0.68313
 Alpha virt. eigenvalues --    0.78794   0.79308   0.80222   0.80768   0.82162

 Mulliken charges:
               1
     1  O   -0.509670
     2  H    0.253660
     3  H    0.256011
     4  O   -0.509356
     5  H    0.252309
     6  H    0.257046
 Sum of Mulliken charges =  -0.00000

 Dipole moment (field-independent basis, Debye):
    X=             -1.9280    Y=             -1.6035    Z=              0.0000  Tot=              2.5077
 Quadrupole moment (field-independent basis, Debye-Ang):
   XX=             -9.7843   YY=              5.0368   ZZ=            -14.7124
   XY=             -5.9920   XZ=              0.0000   YZ=              0.0000

 00843\MP4DQ=-152.6425325\MP4SDQ=-152.6455864\CCSD=-152.645\CCSD(T)=-15
 Normal termination of Gaussian 16 at Sat Aug 27 07:39:06 2022.
