 Gaussian 16, Revision A.03,
 Gaussian 16:  ES64L-G16RevA.03 25-Dec-2016

 ------------------
 #p CCSD(T)/cc-pVTZ
 ------------------

 ------------
 H2O_H2O_3893
 ------------
 Symbolic Z-matrix:
 Charge =  0 Multiplicity = 1

                         Standard orientation:
 ---------------------------------------------------------------------
 Center     Atomic      Atomic             Coordinates (Angstroms)
 Number     Number       Type             X           Y           Z
 ---------------------------------------------------------------------
      1          8           0        0.052822   -2.826260    0.000000
      2          1           0       -0.747655   -3.396122    0.000000
      3          1           0        0.851485   -3.398661    0.000000
      4          8           0        0.052822    2.896607    0.000000
      5          1           0       -0.167332    3.854227    0.000000
      6          1           0       -0.781643    2.377786    0.000000
 ---------------------------------------------------------------------

 SCF Done:  E(RHF) =  -152.107339178     A.U. after   10 cycles
 E2 =    -0.5258989086D+00 EUMP2 =    -0.15263323808616D+03
 CCSD(T)
 CCSD(T)= -0.15266045866D+03

 The electronic state is 1-A'.
 Alpha  occ. eigenvalues --  -20.55549 -20.55045  -1.32847  -1.32342  -0.70254
 Alpha  occ. eigenvalues --   -0.69739  -0.56291  -0.55783  -0.49958  -0.49455
 Alpha virt. eigenvalues --    0.14051   0.14676   0.20181   0.20750   0.54300
 Alpha virt. eigenvalues --    0.54836   0.57220   0.57719   0.67743   0.68591
 Alpha virt. eigenvalues --    0.78923   0.79417   0.80350   0.80832   0.82389

 Mulliken charges:
               1
     1  O   -0.508501
     2  H    0.252701
     3  H    0.255811
     4  O   -0.508123
     5  H    0.251242
     6  H    0.256870
 Sum of Mulliken charges =  -0.00000

 Dipole moment (field-independent basis, Debye):
    X=             -1.8125    Y=             -1.2344    Z=              0.0000  Tot=              2.1929
 Quadrupole moment (field-independent basis, Debye-Ang):
   XX=             -9.5591   YY=              5.4666   ZZ=            -14.7120
   XY=             -4.7135   XZ=              0.0000   YZ=              0.0000

 Normal termination of Gaussian 16 at Sat Aug 27 04:07:06 2022.
