 Gaussian 16, Revision A.03,
 Gaussian 16:  ES64L-G16RevA.03 25-Dec-2016

 ------------------
 #p CCSD(T)/cc-pVTZ
 ------------------

 -----------
 H2O_H2O_390
 -----------
 Symbolic Z-matrix:
 Charge =  0 Multiplicity = 1

                         Standard orientation:
 ---------------------------------------------------------------------
 Center     Atomic      Atomic             Coordinates (Angstroms)
 Number     Number       Type             X           Y           Z
 ---------------------------------------------------------------------
      1          8           0        0.047591   -0.975672    0.000000
      2          1           0       -0.754306   -1.543534    0.000000
      3          1           0        0.844823   -1.550065    0.000000
      4          8           0        0.047591    1.026049    0.000000
      5          1           0        0.020942    2.008290    0.000000
      6          1           0       -0.872918    0.682291    0.000000
 ---------------------------------------------------------------------

 SCF Done:  E(RHF) =  -152.057179403     A.U. after   11 cycles
 E2 =    -0.5355694216D+00 EUMP2 =    -0.15259274882468D+03
 CCSD(T)
 CCSD(T)= -0.15261950581D+03

 The electronic state is 1-A'.
 Alpha  occ. eigenvalues --  -20.53769 -20.51712  -1.33640  -1.28548  -0.70891
 Alpha  occ. eigenvalues --   -0.68345  -0.57105  -0.50490  -0.47216  -0.45317
 Alpha virt. eigenvalues --    0.13955   0.18317   0.19916   0.24058   0.52712
 Alpha virt. eigenvalues --    0.57165   0.59070   0.63446   0.72085   0.75977
 Alpha virt. eigenvalues --    0.80172   0.82875   0.82908   0.84620   0.88231

 Mulliken charges:
               1
     1  O   -0.425041
     2  H    0.203492
     3  H    0.226760
     4  O   -0.418323
     5  H    0.172613
     6  H    0.240500
 Sum of Mulliken charges =  -0.00000

 Dipole moment (field-independent basis, Debye):
    X=             -1.3730    Y=             -1.0418    Z=              0.0000  Tot=              1.7236
 Quadrupole moment (field-independent basis, Debye-Ang):
   XX=             -9.3740   YY=             -5.9548   ZZ=            -14.7047
   XY=             -1.0159   XZ=              0.0000   YZ=              0.0000

 Normal termination of Gaussian 16 at Fri Aug 26 15:57:39 2022.
