 Gaussian 16, Revision A.03,
 Gaussian 16:  ES64L-G16RevA.03 25-Dec-2016

 ------------------
 #p CCSD(T)/cc-pVTZ
 ------------------

 ------------
 H2O_H2O_2212
 ------------
 Symbolic Z-matrix:
 Charge =  0 Multiplicity = 1

                         Standard orientation:
 ---------------------------------------------------------------------
 Center     Atomic      Atomic             Coordinates (Angstroms)
 Number     Number       Type             X           Y           Z
 ---------------------------------------------------------------------
      1          8           0        0.040415   -1.955545    0.000000
      2          1           0       -0.760162   -2.525267    0.000000
      3          1           0        0.838978   -2.528086    0.000000
      4          8           0        0.040415    1.988859    0.000000
      5          1           0        0.203654    2.957806    0.000000
      6          1           0       -0.929103    1.829037    0.000000
 ---------------------------------------------------------------------

 SCF Done:  E(RHF) =  -152.106053265     A.U. after   10 cycles
 E2 =    -0.5262742796D+00 EUMP2 =    -0.15263232754445D+03
 CCSD(T)
 CCSD(T)= -0.15265955024D+03

 The electronic state is 1-A'.
 Alpha  occ. eigenvalues --  -20.55006 -20.54475  -1.32288  -1.31753  -0.69704
 Alpha  occ. eigenvalues --   -0.69147  -0.55687  -0.55085  -0.49393  -0.48860
 Alpha virt. eigenvalues --    0.13788   0.15789   0.20346   0.21487   0.53594
 Alpha virt. eigenvalues --    0.55298   0.57681   0.58221   0.64000   0.75152
 Alpha virt. eigenvalues --    0.79223   0.79943   0.80248   0.81218   0.83237

 Mulliken charges:
               1
     1  O   -0.497962
     2  H    0.245997
     3  H    0.252610
     4  O   -0.498321
     5  H    0.244207
     6  H    0.253469
 Sum of Mulliken charges =  -0.00000

 Dipole moment (field-independent basis, Debye):
    X=             -1.3638    Y=             -0.6063    Z=              0.0000  Tot=              1.4925
 Quadrupole moment (field-independent basis, Debye-Ang):
   XX=             -8.8467   YY=              2.3366   ZZ=            -14.7114
   XY=             -1.9223   XZ=              0.0000   YZ=              0.0000

 Normal termination of Gaussian 16 at Sat Aug 27 09:14:32 2022.
