 Gaussian 16, Revision A.03,
 Gaussian 16:  ES64L-G16RevA.03 25-Dec-2016

 ------------------
 #p CCSD(T)/cc-pVTZ
 ------------------

 -----------
 H2O_H2O_614
 -----------
 Symbolic Z-matrix:
 Charge =  0 Multiplicity = 1

                         Standard orientation:
 ---------------------------------------------------------------------
 Center     Atomic      Atomic             Coordinates (Angstroms)
 Number     Number       Type             X           Y           Z
 ---------------------------------------------------------------------
      1          8           0        0.045388   -1.098597    0.000000
      2          1           0       -0.756165   -1.666943    0.000000
      3          1           0        0.842967   -1.672508    0.000000
      4          8           0        0.045388    1.142971    0.000000
      5          1           0        0.082445    2.124874    0.000000
      6          1           0       -0.895461    0.859584    0.000000
 ---------------------------------------------------------------------

 SCF Done:  E(RHF) =  -152.084759061     A.U. after   11 cycles
 E2 =    -0.5314846750D+00 EUMP2 =    -0.15261624373565D+03
 CCSD(T)
 CCSD(T)= -0.15264333249D+03

 The electronic state is 1-A'.
 Alpha  occ. eigenvalues --  -20.54066 -20.52416  -1.32441  -1.29515  -0.69729
 Alpha  occ. eigenvalues --   -0.67869  -0.57023  -0.49857  -0.49586  -0.46340
 Alpha virt. eigenvalues --    0.14003   0.17824   0.20097   0.23681   0.53065
 Alpha virt. eigenvalues --    0.57633   0.58472   0.61879   0.71266   0.75493
 Alpha virt. eigenvalues --    0.78980   0.81633   0.83290   0.85286   0.87799

 Mulliken charges:
               1
     1  O   -0.456425
     2  H    0.220078
     3  H    0.239358
     4  O   -0.442266
     5  H    0.195553
     6  H    0.243701
 Sum of Mulliken charges =  -0.00000

 Dipole moment (field-independent basis, Debye):
    X=             -1.3696    Y=             -0.8870    Z=              0.0000  Tot=              1.6317
 Quadrupole moment (field-independent basis, Debye-Ang):
   XX=             -9.2276   YY=             -4.5779   ZZ=            -14.7244
   XY=             -1.0604   XZ=              0.0000   YZ=              0.0000

 Normal termination of Gaussian 16 at Fri Aug 26 18:14:28 2022.
