 Gaussian 16, Revision A.03,
 Gaussian 16:  ES64L-G16RevA.03 25-Dec-2016

 ------------------
 #p CCSD(T)/cc-pVTZ
 ------------------

 -----------
 H2O_H2O_739
 -----------
 Symbolic Z-matrix:
 Charge =  0 Multiplicity = 1

                         Standard orientation:
 ---------------------------------------------------------------------
 Center     Atomic      Atomic             Coordinates (Angstroms)
 Number     Number       Type             X           Y           Z
 ---------------------------------------------------------------------
      1          8           0        0.045384   -1.165067    0.000000
      2          1           0       -0.756059   -1.733569    0.000000
      3          1           0        0.843074   -1.738823    0.000000
      4          8           0        0.045384    1.209459    0.000000
      5          1           0        0.082249    2.191369    0.000000
      6          1           0       -0.895411    0.925889    0.000000
 ---------------------------------------------------------------------

 SCF Done:  E(RHF) =  -152.092516879     A.U. after   11 cycles
 E2 =    -0.5301659538D+00 EUMP2 =    -0.15262268283330D+03
 CCSD(T)
 CCSD(T)= -0.15264984247D+03

 The electronic state is 1-A'.
 Alpha  occ. eigenvalues --  -20.54301 -20.52712  -1.32242  -1.29887  -0.69583
 Alpha  occ. eigenvalues --   -0.67866  -0.56708  -0.51009  -0.49415  -0.46775
 Alpha virt. eigenvalues --    0.13968   0.17623   0.20125   0.23549   0.53153
 Alpha virt. eigenvalues --    0.57721   0.58349   0.61032   0.71007   0.75419
 Alpha virt. eigenvalues --    0.78275   0.80699   0.83293   0.85377   0.87570

 Mulliken charges:
               1
     1  O   -0.464795
     2  H    0.224850
     3  H    0.243603
     4  O   -0.453927
     5  H    0.205322
     6  H    0.244948
 Sum of Mulliken charges =  -0.00000

 Dipole moment (field-independent basis, Debye):
    X=             -1.3962    Y=             -0.8789    Z=              0.0000  Tot=              1.6498
 Quadrupole moment (field-independent basis, Debye-Ang):
   XX=             -9.2093   YY=             -3.9503   ZZ=            -14.7254
   XY=             -1.1546   XZ=              0.0000   YZ=              0.0000

 Normal termination of Gaussian 16 at Fri Aug 26 19:34:36 2022.
