 Gaussian 16, Revision A.03,
 Gaussian 16:  ES64L-G16RevA.03 25-Dec-2016

 ------------------
 #p CCSD(T)/cc-pVTZ
 ------------------

 ------------
 H2O_H2O_1400
 ------------
 Symbolic Z-matrix:
 Charge =  0 Multiplicity = 1

                         Standard orientation:
 ---------------------------------------------------------------------
 Center     Atomic      Atomic             Coordinates (Angstroms)
 Number     Number       Type             X           Y           Z
 ---------------------------------------------------------------------
      1          8           0        0.000000   -0.000000    1.548170
      2          1           0        0.000000    0.799571    2.119302
      3          1           0       -0.000000   -0.799571    2.119302
      4          8           0        0.000000   -0.000000   -1.548170
      5          1           0       -0.000000   -0.799571   -2.119302
      6          1           0        0.000000    0.799571   -2.119302
 ---------------------------------------------------------------------

 SCF Done:  E(RHF) =  -152.101949182     A.U. after   10 cycles
 E2 =    -0.5272156837D+00 EUMP2 =    -0.15262916486561D+03
 CCSD(T)
 CCSD(T)= -0.15265645578D+03

 The electronic state is 1-AG.
 Alpha  occ. eigenvalues --  -20.53924 -20.53923  -1.31311  -1.31134  -0.68725
 Alpha  occ. eigenvalues --   -0.68589  -0.55523  -0.53241  -0.48497  -0.48108
 Alpha virt. eigenvalues --    0.14376   0.16598   0.20577   0.21760   0.51945
 Alpha virt. eigenvalues --    0.58248   0.58624   0.59594   0.64559   0.76084
 Alpha virt. eigenvalues --    0.78038   0.78075   0.79421   0.82442   0.86081

 Mulliken charges:
               1
     1  O   -0.474388
     2  H    0.237194
     3  H    0.237194
     4  O   -0.474388
     5  H    0.237194
     6  H    0.237194
 Sum of Mulliken charges =  -0.00000

 Dipole moment (field-independent basis, Debye):
    X=             -0.0000    Y=              0.0000    Z=              0.0000  Tot=              0.0000
 Quadrupole moment (field-independent basis, Debye-Ang):
   XX=            -14.7096   YY=             -7.8895   ZZ=             -0.0046
   XY=              0.0000   XZ=              0.0000   YZ=             -0.0000

 8\MP4DQ=-152.6381007\MP4SDQ=-152.6412417\CCSD=-152.640622\CCSD(T)=-152
 Normal termination of Gaussian 16 at Sat Aug 27 04:31:15 2022.
