 Gaussian 16, Revision A.03,
 Gaussian 16:  ES64L-G16RevA.03 25-Dec-2016

 ------------------
 #p CCSD(T)/cc-pVTZ
 ------------------

 -----------
 H2O_H2O_844
 -----------
 Symbolic Z-matrix:
 Charge =  0 Multiplicity = 1

                         Standard orientation:
 ---------------------------------------------------------------------
 Center     Atomic      Atomic             Coordinates (Angstroms)
 Number     Number       Type             X           Y           Z
 ---------------------------------------------------------------------
      1          8           0        0.054227   -1.200485    0.000000
      2          1           0       -0.747484   -1.768609    0.000000
      3          1           0        0.851647   -1.774617    0.000000
      4          8           0        0.054227    1.277588    0.000000
      5          1           0       -0.226045    2.219370    0.000000
      6          1           0       -0.745758    0.707035    0.000000
 ---------------------------------------------------------------------

 SCF Done:  E(RHF) =  -152.098928050     A.U. after   11 cycles
 E2 =    -0.5298220531D+00 EUMP2 =    -0.15262875010345D+03
 CCSD(T)
 CCSD(T)= -0.15265581019D+03

 The electronic state is 1-A'.
 Alpha  occ. eigenvalues --  -20.55638 -20.52472  -1.33404  -1.29778  -0.70791
 Alpha  occ. eigenvalues --   -0.68078  -0.56006  -0.52858  -0.50473  -0.46811
 Alpha virt. eigenvalues --    0.13439   0.17848   0.19750   0.24737   0.52024
 Alpha virt. eigenvalues --    0.56867   0.59728   0.60171   0.71306   0.74313
 Alpha virt. eigenvalues --    0.77077   0.82868   0.83404   0.84390   0.84804

 Mulliken charges:
               1
     1  O   -0.465496
     2  H    0.230557
     3  H    0.249185
     4  O   -0.485151
     5  H    0.215277
     6  H    0.255629
 Sum of Mulliken charges =  -0.00000

 Dipole moment (field-independent basis, Debye):
    X=             -1.6915    Y=             -1.5719    Z=              0.0000  Tot=              2.3091
 Quadrupole moment (field-independent basis, Debye-Ang):
   XX=             -9.6885   YY=             -4.3056   ZZ=            -14.7223
   XY=             -2.0206   XZ=              0.0000   YZ=              0.0000

 Normal termination of Gaussian 16 at Fri Aug 26 20:30:35 2022.
