 Gaussian 16, Revision A.03,
 Gaussian 16:  ES64L-G16RevA.03 25-Dec-2016

 ------------------
 #p CCSD(T)/cc-pVTZ
 ------------------

 ------------
 H2O_H2O_3112
 ------------
 Symbolic Z-matrix:
 Charge =  0 Multiplicity = 1

                         Standard orientation:
 ---------------------------------------------------------------------
 Center     Atomic      Atomic             Coordinates (Angstroms)
 Number     Number       Type             X           Y           Z
 ---------------------------------------------------------------------
      1          8           0        0.040409   -2.434183    0.000000
      2          1           0       -0.759972   -3.004180    0.000000
      3          1           0        0.839169   -3.006449    0.000000
      4          8           0        0.040409    2.467525    0.000000
      5          1           0        0.203315    3.436529    0.000000
      6          1           0       -0.929053    2.307369    0.000000
 ---------------------------------------------------------------------

 SCF Done:  E(RHF) =  -152.106632802     A.U. after   10 cycles
 E2 =    -0.5259959896D+00 EUMP2 =    -0.15263262879140D+03
 CCSD(T)
 CCSD(T)= -0.15265986180D+03

 The electronic state is 1-A'.
 Alpha  occ. eigenvalues --  -20.55192 -20.54865  -1.32487  -1.32156  -0.69896
 Alpha  occ. eigenvalues --   -0.69555  -0.55896  -0.55567  -0.49592  -0.49264
 Alpha virt. eigenvalues --    0.14142   0.14982   0.20386   0.20884   0.54561
 Alpha virt. eigenvalues --    0.55041   0.57519   0.57840   0.67177   0.70074
 Alpha virt. eigenvalues --    0.79284   0.79609   0.80664   0.81138   0.82781

 Mulliken charges:
               1
     1  O   -0.504278
     2  H    0.250283
     3  H    0.254040
     4  O   -0.503859
     5  H    0.249124
     6  H    0.254690
 Sum of Mulliken charges =  -0.00000

 Dipole moment (field-independent basis, Debye):
    X=             -1.3802    Y=             -0.5899    Z=              0.0000  Tot=              1.5010
 Quadrupole moment (field-independent basis, Debye-Ang):
   XX=             -8.8350   YY=              5.6671   ZZ=            -14.7109
   XY=             -2.5728   XZ=              0.0000   YZ=              0.0000

 49308\MP4DQ=-152.641745\MP4SDQ=-152.6448083\CCSD=-152.6442183\CCSD(T)=
 Normal termination of Gaussian 16 at Fri Aug 26 19:32:00 2022.
