 Gaussian 16, Revision A.03,
 Gaussian 16:  ES64L-G16RevA.03 25-Dec-2016

 ------------------
 #p CCSD(T)/cc-pVTZ
 ------------------

 ------------
 H2O_H2O_3443
 ------------
 Symbolic Z-matrix:
 Charge =  0 Multiplicity = 1

                         Standard orientation:
 ---------------------------------------------------------------------
 Center     Atomic      Atomic             Coordinates (Angstroms)
 Number     Number       Type             X           Y           Z
 ---------------------------------------------------------------------
      1          8           0        0.052827   -2.586942    0.000000
      2          1           0       -0.747733   -3.156688    0.000000
      3          1           0        0.851407   -3.159458    0.000000
      4          8           0        0.052827    2.657273    0.000000
      5          1           0       -0.167189    3.614926    0.000000
      6          1           0       -0.781713    2.138573    0.000000
 ---------------------------------------------------------------------

 SCF Done:  E(RHF) =  -152.107315658     A.U. after   10 cycles
 E2 =    -0.5259229134D+00 EUMP2 =    -0.15263323857092D+03
 CCSD(T)
 CCSD(T)= -0.15266045762D+03

 The electronic state is 1-A'.
 Alpha  occ. eigenvalues --  -20.55537 -20.54928  -1.32835  -1.32224  -0.70242
 Alpha  occ. eigenvalues --   -0.69617  -0.56277  -0.55663  -0.49945  -0.49337
 Alpha virt. eigenvalues --    0.13915   0.14892   0.20167   0.20918   0.54282
 Alpha virt. eigenvalues --    0.54927   0.57231   0.57803   0.67395   0.69198
 Alpha virt. eigenvalues --    0.78937   0.79531   0.80318   0.80790   0.82669

 Mulliken charges:
               1
     1  O   -0.508270
     2  H    0.252165
     3  H    0.256170
     4  O   -0.507809
     5  H    0.250299
     6  H    0.257444
 Sum of Mulliken charges =   0.00000

 Dipole moment (field-independent basis, Debye):
    X=             -1.8089    Y=             -1.2408    Z=              0.0000  Tot=              2.1936
 Quadrupole moment (field-independent basis, Debye-Ang):
   XX=             -9.5589   YY=              4.1378   ZZ=            -14.7122
   XY=             -4.2840   XZ=              0.0000   YZ=              0.0000

 Normal termination of Gaussian 16 at Fri Aug 26 22:22:48 2022.
