 Gaussian 16, Revision A.03,
 Gaussian 16:  ES64L-G16RevA.03 25-Dec-2016

 ------------------
 #p CCSD(T)/cc-pVTZ
 ------------------

 ------------
 H2O_H2O_2785
 ------------
 Symbolic Z-matrix:
 Charge =  0 Multiplicity = 1

                         Standard orientation:
 ---------------------------------------------------------------------
 Center     Atomic      Atomic             Coordinates (Angstroms)
 Number     Number       Type             X           Y           Z
 ---------------------------------------------------------------------
      1          8           0        0.034784   -2.266674    0.000000
      2          1           0       -0.765537   -2.836756    0.000000
      3          1           0        0.833604   -2.838856    0.000000
      4          8           0        0.034784    2.290188    0.000000
      5          1           0        0.322678    3.229667    0.000000
      6          1           0       -0.947286    2.257839    0.000000
 ---------------------------------------------------------------------

 SCF Done:  E(RHF) =  -152.106250555     A.U. after   10 cycles
 E2 =    -0.5260645598D+00 EUMP2 =    -0.15263231511464D+03
 CCSD(T)
 CCSD(T)= -0.15265955298D+03

 The electronic state is 1-A'.
 Alpha  occ. eigenvalues --  -20.55028 -20.54760  -1.32320  -1.32049  -0.69731
 Alpha  occ. eigenvalues --   -0.69450  -0.55713  -0.55434  -0.49423  -0.49154
 Alpha virt. eigenvalues --    0.14117   0.15200   0.20452   0.20984   0.54523
 Alpha virt. eigenvalues --    0.55220   0.57647   0.57924   0.66111   0.71610
 Alpha virt. eigenvalues --    0.79430   0.79739   0.80792   0.81310   0.82598

 Mulliken charges:
               1
     1  O   -0.501871
     2  H    0.249005
     3  H    0.252944
     4  O   -0.501451
     5  H    0.247972
     6  H    0.253401
 Sum of Mulliken charges =  -0.00000

 Dipole moment (field-independent basis, Debye):
    X=             -1.1844    Y=             -0.4185    Z=              0.0000  Tot=              1.2562
 Quadrupole moment (field-independent basis, Debye-Ang):
   XX=             -8.5744   YY=              4.9991   ZZ=            -14.7105
   XY=             -1.9051   XZ=              0.0000   YZ=              0.0000

 Normal termination of Gaussian 16 at Fri Aug 26 16:09:14 2022.
