 Gaussian 16, Revision A.03,
 Gaussian 16:  ES64L-G16RevA.03 25-Dec-2016

 ------------------
 #p CCSD(T)/cc-pVTZ
 ------------------

 ------------
 H2O_H2O_3836
 ------------
 Symbolic Z-matrix:
 Charge =  0 Multiplicity = 1

                         Standard orientation:
 ---------------------------------------------------------------------
 Center     Atomic      Atomic             Coordinates (Angstroms)
 Number     Number       Type             X           Y           Z
 ---------------------------------------------------------------------
      1          8           0        0.037674   -2.822525    0.000000
      2          1           0       -0.762550   -3.392743    0.000000
      3          1           0        0.836591   -3.394570    0.000000
      4          8           0        0.037674    2.850785    0.000000
      5          1           0        0.263343    3.807122    0.000000
      6          1           0       -0.940162    2.754108    0.000000
 ---------------------------------------------------------------------

 SCF Done:  E(RHF) =  -152.106863675     A.U. after   10 cycles
 E2 =    -0.5259388865D+00 EUMP2 =    -0.15263280256176D+03
 CCSD(T)
 CCSD(T)= -0.15266003354D+03

 The electronic state is 1-A'.
 Alpha  occ. eigenvalues --  -20.55266 -20.55063  -1.32563  -1.32357  -0.69970
 Alpha  occ. eigenvalues --   -0.69760  -0.55984  -0.55779  -0.49670  -0.49466
 Alpha virt. eigenvalues --    0.14320   0.14609   0.20400   0.20638   0.54591
 Alpha virt. eigenvalues --    0.54824   0.57467   0.57675   0.68093   0.68615
 Alpha virt. eigenvalues --    0.79209   0.79410   0.80649   0.80871   0.82592

 Mulliken charges:
               1
     1  O   -0.505682
     2  H    0.251682
     3  H    0.254002
     4  O   -0.505465
     5  H    0.250980
     6  H    0.254483
 Sum of Mulliken charges =  -0.00000

 Dipole moment (field-independent basis, Debye):
    X=             -1.2920    Y=             -0.4954    Z=              0.0000  Tot=              1.3837
 Quadrupole moment (field-independent basis, Debye-Ang):
   XX=             -8.6978   YY=              8.7020   ZZ=            -14.7110
   XY=             -2.8306   XZ=              0.0000   YZ=              0.0000

 Normal termination of Gaussian 16 at Sat Aug 27 03:41:02 2022.
