 Gaussian 16, Revision A.03,
 Gaussian 16:  ES64L-G16RevA.03 25-Dec-2016

 ------------------
 #p CCSD(T)/cc-pVTZ
 ------------------

 ------------
 H2O_H2O_2205
 ------------
 Symbolic Z-matrix:
 Charge =  0 Multiplicity = 1

                         Standard orientation:
 ---------------------------------------------------------------------
 Center     Atomic      Atomic             Coordinates (Angstroms)
 Number     Number       Type             X           Y           Z
 ---------------------------------------------------------------------
      1          8           0        0.018361   -1.970362    0.000000
      2          1           0       -0.781667   -2.540854    0.000000
      3          1           0        0.817474   -2.542135    0.000000
      4          8           0        0.018361    1.976395    0.000000
      5          1           0        0.592554    2.773771    0.000000
      6          1           0       -0.922134    2.260956    0.000000
 ---------------------------------------------------------------------

 SCF Done:  E(RHF) =  -152.105190541     A.U. after   10 cycles
 E2 =    -0.5263143322D+00 EUMP2 =    -0.15263150487276D+03
 CCSD(T)
 CCSD(T)= -0.15265875010D+03

 The electronic state is 1-A'.
 Alpha  occ. eigenvalues --  -20.54619 -20.54526  -1.31902  -1.31806  -0.69320
 Alpha  occ. eigenvalues --   -0.69219  -0.55378  -0.54971  -0.49006  -0.48898
 Alpha virt. eigenvalues --    0.14144   0.15677   0.20585   0.21181   0.54117
 Alpha virt. eigenvalues --    0.56095   0.57892   0.58172   0.62448   0.74836
 Alpha virt. eigenvalues --    0.79469   0.80343   0.80516   0.81203   0.82269

 Mulliken charges:
               1
     1  O   -0.494151
     2  H    0.245620
     3  H    0.248626
     4  O   -0.494014
     5  H    0.245120
     6  H    0.248798
 Sum of Mulliken charges =  -0.00000

 Dipole moment (field-independent basis, Debye):
    X=             -0.6198    Y=             -0.1096    Z=              0.0000  Tot=              0.6294
 Quadrupole moment (field-independent basis, Debye-Ang):
   XX=             -8.0462   YY=              3.4274   ZZ=            -14.7096
   XY=             -0.7175   XZ=              0.0000   YZ=              0.0000

 Normal termination of Gaussian 16 at Sat Aug 27 09:12:16 2022.
