 Gaussian 16, Revision A.03,
 Gaussian 16:  ES64L-G16RevA.03 25-Dec-2016

 ------------------
 #p CCSD(T)/cc-pVTZ
 ------------------

 ------------
 H2O_H2O_2054
 ------------
 Symbolic Z-matrix:
 Charge =  0 Multiplicity = 1

                         Standard orientation:
 ---------------------------------------------------------------------
 Center     Atomic      Atomic             Coordinates (Angstroms)
 Number     Number       Type             X           Y           Z
 ---------------------------------------------------------------------
      1          8           0        0.014783   -1.891760    0.000000
      2          1           0       -0.785171   -2.462355    0.000000
      3          1           0        0.813970   -2.463429    0.000000
      4          8           0        0.014783    1.895633    0.000000
      5          1           0        0.639800    2.653828    0.000000
      6          1           0       -0.905132    2.240978    0.000000
 ---------------------------------------------------------------------

 SCF Done:  E(RHF) =  -152.104842974     A.U. after   10 cycles
 E2 =    -0.5264191667D+00 EUMP2 =    -0.15263126214077D+03
 CCSD(T)
 CCSD(T)= -0.15265850935D+03

 The electronic state is 1-A'.
 Alpha  occ. eigenvalues --  -20.54511 -20.54446  -1.31794  -1.31722  -0.69214
 Alpha  occ. eigenvalues --   -0.69140  -0.55340  -0.54770  -0.48906  -0.48802
 Alpha virt. eigenvalues --    0.14163   0.15825   0.20598   0.21261   0.53895
 Alpha virt. eigenvalues --    0.56502   0.57937   0.58257   0.61652   0.75387
 Alpha virt. eigenvalues --    0.79359   0.80195   0.80620   0.80974   0.82637

 Mulliken charges:
               1
     1  O   -0.491278
     2  H    0.244345
     3  H    0.247022
     4  O   -0.491226
     5  H    0.243962
     6  H    0.247175
 Sum of Mulliken charges =   0.00000

 Dipole moment (field-independent basis, Debye):
    X=             -0.4974    Y=             -0.0709    Z=              0.0000  Tot=              0.5025
 Quadrupole moment (field-independent basis, Debye-Ang):
   XX=             -7.9788   YY=              2.8525   ZZ=            -14.7094
   XY=             -0.5286   XZ=              0.0000   YZ=              0.0000

 Normal termination of Gaussian 16 at Sat Aug 27 08:19:43 2022.
