 Gaussian 16, Revision A.03,
 Gaussian 16:  ES64L-G16RevA.03 25-Dec-2016

 ------------------
 #p CCSD(T)/cc-pVTZ
 ------------------

 -----------
 H2O_H2O_349
 -----------
 Symbolic Z-matrix:
 Charge =  0 Multiplicity = 1

                         Standard orientation:
 ---------------------------------------------------------------------
 Center     Atomic      Atomic             Coordinates (Angstroms)
 Number     Number       Type             X           Y           Z
 ---------------------------------------------------------------------
      1          8           0        0.057401   -0.914718    0.000000
      2          1           0       -0.745049   -1.481796    0.000000
      3          1           0        0.854072   -1.489889    0.000000
      4          8           0        0.057401    1.028365    0.000000
      5          1           0       -0.509677    1.830817    0.000000
      6          1           0       -0.517769    0.231694    0.000000
 ---------------------------------------------------------------------

 SCF Done:  E(RHF) =  -152.022250277     A.U. after   11 cycles
 E2 =    -0.5404023519D+00 EUMP2 =    -0.15256265262913D+03
 CCSD(T)
 CCSD(T)= -0.15258820007D+03

 The electronic state is 1-A'.
 Alpha  occ. eigenvalues --  -20.57722 -20.47618  -1.39400  -1.26252  -0.77099
 Alpha  occ. eigenvalues --   -0.72259  -0.54738  -0.50691  -0.48805  -0.43095
 Alpha virt. eigenvalues --    0.12391   0.18117   0.20149   0.28012   0.48438
 Alpha virt. eigenvalues --    0.53680   0.63309   0.69262   0.72684   0.74444
 Alpha virt. eigenvalues --    0.77117   0.79220   0.83819   0.85731   0.88088

 Mulliken charges:
               1
     1  O   -0.338435
     2  H    0.199129
     3  H    0.237289
     4  O   -0.549356
     5  H    0.178659
     6  H    0.272714
 Sum of Mulliken charges =  -0.00000

 Dipole moment (field-independent basis, Debye):
    X=             -1.6200    Y=             -2.9610    Z=              0.0000  Tot=              3.3752
 Quadrupole moment (field-independent basis, Debye-Ang):
   XX=             -9.8091   YY=             -7.7223   ZZ=            -14.5949
   XY=             -2.2462   XZ=              0.0000   YZ=              0.0000

 Normal termination of Gaussian 16 at Fri Aug 26 15:32:45 2022.
