 Gaussian 16, Revision A.03,
 Gaussian 16:  ES64L-G16RevA.03 25-Dec-2016

 ------------------
 #p CCSD(T)/cc-pVTZ
 ------------------

 ------------
 H2O_H2O_1410
 ------------
 Symbolic Z-matrix:
 Charge =  0 Multiplicity = 1

                         Standard orientation:
 ---------------------------------------------------------------------
 Center     Atomic      Atomic             Coordinates (Angstroms)
 Number     Number       Type             X           Y           Z
 ---------------------------------------------------------------------
      1          8           0        0.034791   -1.535422    0.000000
      2          1           0       -0.765883   -2.105006    0.000000
      3          1           0        0.833256   -2.108100    0.000000
      4          8           0        0.034791    1.558892    0.000000
      5          1           0        0.323269    2.498193    0.000000
      6          1           0       -0.947298    1.527153    0.000000
 ---------------------------------------------------------------------

 SCF Done:  E(RHF) =  -152.103481358     A.U. after   10 cycles
 E2 =    -0.5272004837D+00 EUMP2 =    -0.15263068184148D+03
 CCSD(T)
 CCSD(T)= -0.15265792833D+03

 The electronic state is 1-A'.
 Alpha  occ. eigenvalues --  -20.54452 -20.53879  -1.31762  -1.31134  -0.69188
 Alpha  occ. eigenvalues --   -0.68550  -0.55658  -0.53703  -0.48897  -0.48187
 Alpha virt. eigenvalues --    0.14061   0.16628   0.20386   0.22162   0.52990
 Alpha virt. eigenvalues --    0.57463   0.58053   0.58817   0.65493   0.76700
 Alpha virt. eigenvalues --    0.77753   0.78444   0.79376   0.82302   0.85669

 Mulliken charges:
               1
     1  O   -0.480296
     2  H    0.235629
     3  H    0.245845
     4  O   -0.477972
     5  H    0.231908
     6  H    0.244885
 Sum of Mulliken charges =  -0.00000

 Dipole moment (field-independent basis, Debye):
    X=             -1.1409    Y=             -0.4438    Z=              0.0000  Tot=              1.2242
 Quadrupole moment (field-independent basis, Debye-Ang):
   XX=             -8.6270   YY=             -0.5094   ZZ=            -14.7125
   XY=             -1.0587   XZ=              0.0000   YZ=              0.0000

 Normal termination of Gaussian 16 at Sat Aug 27 04:35:16 2022.
