 Gaussian 16, Revision A.03,
 Gaussian 16:  ES64L-G16RevA.03 25-Dec-2016

 ------------------
 #p CCSD(T)/cc-pVTZ
 ------------------

 -----------
 H2O_H2O_213
 -----------
 Symbolic Z-matrix:
 Charge =  0 Multiplicity = 1

                         Standard orientation:
 ---------------------------------------------------------------------
 Center     Atomic      Atomic             Coordinates (Angstroms)
 Number     Number       Type             X           Y           Z
 ---------------------------------------------------------------------
      1          8           0        0.043019   -0.889018    0.000000
      2          1           0       -0.758870   -1.456891    0.000000
      3          1           0        0.840259   -1.463399    0.000000
      4          8           0        0.043019    0.927580    0.000000
      5          1           0        0.144791    1.904897    0.000000
      6          1           0       -0.914481    0.706898    0.000000
 ---------------------------------------------------------------------

 SCF Done:  E(RHF) =  -152.013489706     A.U. after   11 cycles
 E2 =    -0.5406594544D+00 EUMP2 =    -0.15255414915994D+03
 CCSD(T)
 CCSD(T)= -0.15258034175D+03

 The electronic state is 1-A'.
 Alpha  occ. eigenvalues --  -20.52848 -20.51428  -1.34848  -1.27650  -0.71713
 Alpha  occ. eigenvalues --   -0.68526  -0.58790  -0.51334  -0.44306  -0.42468
 Alpha virt. eigenvalues --    0.14113   0.18653   0.19880   0.23828   0.53258
 Alpha virt. eigenvalues --    0.56782   0.58632   0.64698   0.72548   0.77142
 Alpha virt. eigenvalues --    0.80709   0.82146   0.82830   0.84586   0.88659

 Mulliken charges:
               1
     1  O   -0.396334
     2  H    0.186532
     3  H    0.211881
     4  O   -0.380472
     5  H    0.145168
     6  H    0.233226
 Sum of Mulliken charges =   0.00000

 Dipole moment (field-independent basis, Debye):
    X=             -1.1916    Y=             -0.8346    Z=              0.0000  Tot=              1.4548
 Quadrupole moment (field-independent basis, Debye-Ang):
   XX=             -9.1986   YY=             -7.1492   ZZ=            -14.6905
   XY=             -0.6840   XZ=              0.0000   YZ=              0.0000

 Normal termination of Gaussian 16 at Fri Aug 26 14:07:47 2022.
