 Gaussian 16, Revision A.03,
 Gaussian 16:  ES64L-G16RevA.03 25-Dec-2016

 ------------------
 #p CCSD(T)/cc-pVTZ
 ------------------

 ------------
 H2O_H2O_2773
 ------------
 Symbolic Z-matrix:
 Charge =  0 Multiplicity = 1

                         Standard orientation:
 ---------------------------------------------------------------------
 Center     Atomic      Atomic             Coordinates (Angstroms)
 Number     Number       Type             X           Y           Z
 ---------------------------------------------------------------------
      1          8           0        0.057107   -2.208305    0.000000
      2          1           0       -0.743701   -2.777701    0.000000
      3          1           0        0.855437   -2.781170    0.000000
      4          8           0        0.057107    2.314813    0.000000
      5          1           0       -0.458695    3.151147    0.000000
      6          1           0       -0.566746    1.555659    0.000000
 ---------------------------------------------------------------------

 SCF Done:  E(RHF) =  -152.108247682     A.U. after   10 cycles
 E2 =    -0.5259847844D+00 EUMP2 =    -0.15263423246666D+03
 CCSD(T)
 CCSD(T)= -0.15266141542D+03

 The electronic state is 1-A'.
 Alpha  occ. eigenvalues --  -20.55940 -20.54610  -1.33226  -1.31911  -0.70632
 Alpha  occ. eigenvalues --   -0.69291  -0.56700  -0.55373  -0.50344  -0.49034
 Alpha virt. eigenvalues --    0.13135   0.15554   0.19888   0.21831   0.53924
 Alpha virt. eigenvalues --    0.54822   0.56940   0.58167   0.66591   0.71171
 Alpha virt. eigenvalues --    0.78549   0.79464   0.79820   0.80447   0.82711

 Mulliken charges:
               1
     1  O   -0.509886
     2  H    0.252605
     3  H    0.258605
     4  O   -0.511843
     5  H    0.249005
     6  H    0.261514
 Sum of Mulliken charges =  -0.00000

 Dipole moment (field-independent basis, Debye):
    X=             -1.9451    Y=             -1.9158    Z=              0.0000  Tot=              2.7302
 Quadrupole moment (field-independent basis, Debye-Ang):
   XX=             -9.8525   YY=             -0.4692   ZZ=            -14.7154
   XY=             -4.5823   XZ=              0.0000   YZ=              0.0000

 Normal termination of Gaussian 16 at Fri Aug 26 15:59:36 2022.
