 Gaussian 16, Revision A.03,
 Gaussian 16:  ES64L-G16RevA.03 25-Dec-2016

 ------------------
 #p CCSD(T)/cc-pVTZ
 ------------------

 ------------
 H2O_H2O_3140
 ------------
 Symbolic Z-matrix:
 Charge =  0 Multiplicity = 1

                         Standard orientation:
 ---------------------------------------------------------------------
 Center     Atomic      Atomic             Coordinates (Angstroms)
 Number     Number       Type             X           Y           Z
 ---------------------------------------------------------------------
      1          8           0        0.047530   -2.438102    0.000000
      2          1           0       -0.752988   -3.007906    0.000000
      3          1           0        0.846152   -3.010560    0.000000
      4          8           0        0.047530    2.488710    0.000000
      5          1           0        0.018499    3.470883    0.000000
      6          1           0       -0.872142    2.142721    0.000000
 ---------------------------------------------------------------------

 SCF Done:  E(RHF) =  -152.106946183     A.U. after   10 cycles
 E2 =    -0.5259731532D+00 EUMP2 =    -0.15263291933593D+03
 CCSD(T)
 CCSD(T)= -0.15266014487D+03

 The electronic state is 1-A'.
 Alpha  occ. eigenvalues --  -20.55353 -20.54855  -1.32648  -1.32147  -0.70056
 Alpha  occ. eigenvalues --   -0.69542  -0.56072  -0.55571  -0.49756  -0.49258
 Alpha virt. eigenvalues --    0.13974   0.15023   0.20271   0.20966   0.54406
 Alpha virt. eigenvalues --    0.54998   0.57389   0.57847   0.67141   0.70002
 Alpha virt. eigenvalues --    0.79124   0.79611   0.80459   0.81055   0.82809

 Mulliken charges:
               1
     1  O   -0.506025
     2  H    0.250885
     3  H    0.255232
     4  O   -0.505590
     5  H    0.249259
     6  H    0.256240
 Sum of Mulliken charges =  -0.00000

 Dipole moment (field-independent basis, Debye):
    X=             -1.6240    Y=             -0.8962    Z=              0.0000  Tot=              1.8549
 Quadrupole moment (field-independent basis, Debye-Ang):
   XX=             -9.2261   YY=              4.6406   ZZ=            -14.7116
   XY=             -3.3044   XZ=              0.0000   YZ=              0.0000

 Normal termination of Gaussian 16 at Fri Aug 26 19:45:26 2022.
