 Gaussian 16, Revision A.03,
 Gaussian 16:  ES64L-G16RevA.03 25-Dec-2016

 ------------------
 #p CCSD(T)/cc-pVTZ
 ------------------

 ------------
 H2O_H2O_1093
 ------------
 Symbolic Z-matrix:
 Charge =  0 Multiplicity = 1

                         Standard orientation:
 ---------------------------------------------------------------------
 Center     Atomic      Atomic             Coordinates (Angstroms)
 Number     Number       Type             X           Y           Z
 ---------------------------------------------------------------------
      1          8           0        0.052882   -1.337213    0.000000
      2          1           0       -0.748575   -1.905696    0.000000
      3          1           0        0.850558   -1.910989    0.000000
      4          8           0        0.052882    1.407378    0.000000
      5          1           0       -0.165622    2.365376    0.000000
      6          1           0       -0.782475    0.889995    0.000000
 ---------------------------------------------------------------------

 SCF Done:  E(RHF) =  -152.104230749     A.U. after   10 cycles
 E2 =    -0.5282152246D+00 EUMP2 =    -0.15263244597388D+03
 CCSD(T)
 CCSD(T)= -0.15265958958D+03

 The electronic state is 1-A'.
 Alpha  occ. eigenvalues --  -20.55517 -20.53132  -1.32949  -1.30400  -0.70362
 Alpha  occ. eigenvalues --   -0.68038  -0.56241  -0.53549  -0.50065  -0.47479
 Alpha virt. eigenvalues --    0.13520   0.17356   0.19881   0.24026   0.53048
 Alpha virt. eigenvalues --    0.57172   0.57870   0.58797   0.70140   0.75323
 Alpha virt. eigenvalues --    0.75736   0.78798   0.81698   0.82643   0.84748

 Mulliken charges:
               1
     1  O   -0.479092
     2  H    0.235620
     3  H    0.253084
     4  O   -0.488933
     5  H    0.224999
     6  H    0.254322
 Sum of Mulliken charges =  -0.00000

 Dipole moment (field-independent basis, Debye):
    X=             -1.6920    Y=             -1.3851    Z=              0.0000  Tot=              2.1866
 Quadrupole moment (field-independent basis, Debye-Ang):
   XX=             -9.5963   YY=             -3.1433   ZZ=            -14.7238
   XY=             -2.0836   XZ=              0.0000   YZ=              0.0000

 Normal termination of Gaussian 16 at Sat Aug 27 02:04:45 2022.
