 Gaussian 16, Revision A.03,
 Gaussian 16:  ES64L-G16RevA.03 25-Dec-2016

 ------------------
 #p CCSD(T)/cc-pVTZ
 ------------------

 -----------
 H2O_H2O_790
 -----------
 Symbolic Z-matrix:
 Charge =  0 Multiplicity = 1

                         Standard orientation:
 ---------------------------------------------------------------------
 Center     Atomic      Atomic             Coordinates (Angstroms)
 Number     Number       Type             X           Y           Z
 ---------------------------------------------------------------------
      1          8           0        0.047573   -1.188371    0.000000
      2          1           0       -0.753917   -1.756807    0.000000
      3          1           0        0.845216   -1.762193    0.000000
      4          8           0        0.047573    1.238817    0.000000
      5          1           0        0.020221    2.221037    0.000000
      6          1           0       -0.872689    0.894400    0.000000
 ---------------------------------------------------------------------

 SCF Done:  E(RHF) =  -152.095239908     A.U. after   11 cycles
 E2 =    -0.5298079725D+00 EUMP2 =    -0.15262504788090D+03
 CCSD(T)
 CCSD(T)= -0.15265220603D+03

 The electronic state is 1-A'.
 Alpha  occ. eigenvalues --  -20.54592 -20.52764  -1.32409  -1.29970  -0.69777
 Alpha  occ. eigenvalues --   -0.67919  -0.56461  -0.51655  -0.49561  -0.46907
 Alpha virt. eigenvalues --    0.13863   0.17601   0.20063   0.23683   0.53077
 Alpha virt. eigenvalues --    0.57589   0.58542   0.60534   0.71013   0.75226
 Alpha virt. eigenvalues --    0.78051   0.80754   0.83183   0.85207   0.86372

 Mulliken charges:
               1
     1  O   -0.466749
     2  H    0.226746
     3  H    0.245486
     4  O   -0.461371
     5  H    0.208959
     6  H    0.246929
 Sum of Mulliken charges =  -0.00000

 Dipole moment (field-independent basis, Debye):
    X=             -1.4734    Y=             -1.0002    Z=              0.0000  Tot=              1.7809
 Quadrupole moment (field-independent basis, Debye-Ang):
   XX=             -9.3182   YY=             -3.8316   ZZ=            -14.7246
   XY=             -1.3382   XZ=              0.0000   YZ=              0.0000

 Normal termination of Gaussian 16 at Fri Aug 26 20:02:11 2022.
