 Gaussian 16, Revision A.03,
 Gaussian 16:  ES64L-G16RevA.03 25-Dec-2016

 ------------------
 #p CCSD(T)/cc-pVTZ
 ------------------

 ------------
 H2O_H2O_3599
 ------------
 Symbolic Z-matrix:
 Charge =  0 Multiplicity = 1

                         Standard orientation:
 ---------------------------------------------------------------------
 Center     Atomic      Atomic             Coordinates (Angstroms)
 Number     Number       Type             X           Y           Z
 ---------------------------------------------------------------------
      1          8           0        0.057217   -2.642993    0.000000
      2          1           0       -0.743393   -3.212668    0.000000
      3          1           0        0.855747   -3.215580    0.000000
      4          8           0        0.057217    2.757011    0.000000
      5          1           0       -0.512458    3.557621    0.000000
      6          1           0       -0.515370    1.958480    0.000000
 ---------------------------------------------------------------------

 SCF Done:  E(RHF) =  -152.107916779     A.U. after   10 cycles
 E2 =    -0.5258702101D+00 EUMP2 =    -0.15263378698907D+03
 CCSD(T)
 CCSD(T)= -0.15266099265D+03

 The electronic state is 1-A'.
 Alpha  occ. eigenvalues --  -20.55856 -20.54928  -1.33155  -1.32229  -0.70560
 Alpha  occ. eigenvalues --   -0.69622  -0.56625  -0.55688  -0.50270  -0.49348
 Alpha virt. eigenvalues --    0.13619   0.14929   0.19950   0.21030   0.53980
 Alpha virt. eigenvalues --    0.54878   0.56960   0.57808   0.67082   0.69000
 Alpha virt. eigenvalues --    0.78616   0.79514   0.79984   0.80375   0.82703

 Mulliken charges:
               1
     1  O   -0.511655
     2  H    0.254057
     3  H    0.257729
     4  O   -0.511042
     5  H    0.251335
     6  H    0.259575
 Sum of Mulliken charges =  -0.00000

 Dipole moment (field-independent basis, Debye):
    X=             -1.9612    Y=             -2.0106    Z=              0.0000  Tot=              2.8087
 Quadrupole moment (field-independent basis, Debye-Ang):
   XX=             -9.8632   YY=              0.6877   ZZ=            -14.7136
   XY=             -5.5757   XZ=              0.0000   YZ=              0.0000

 Normal termination of Gaussian 16 at Sat Aug 27 01:47:51 2022.
