 Gaussian 16, Revision A.03,
 Gaussian 16:  ES64L-G16RevA.03 25-Dec-2016

 ------------------
 #p CCSD(T)/cc-pVTZ
 ------------------

 ------------
 H2O_H2O_2274
 ------------
 Symbolic Z-matrix:
 Charge =  0 Multiplicity = 1

                         Standard orientation:
 ---------------------------------------------------------------------
 Center     Atomic      Atomic             Coordinates (Angstroms)
 Number     Number       Type             X           Y           Z
 ---------------------------------------------------------------------
      1          8           0        0.057254   -1.938348    0.000000
      2          1           0       -0.743722   -2.507508    0.000000
      3          1           0        0.855415   -2.511448    0.000000
      4          8           0        0.057254    2.052292    0.000000
      5          1           0       -0.511906    2.853269    0.000000
      6          1           0       -0.515847    1.254131    0.000000
 ---------------------------------------------------------------------

 SCF Done:  E(RHF) =  -152.109054477     A.U. after   10 cycles
 E2 =    -0.5261650296D+00 EUMP2 =    -0.15263521950671D+03
 CCSD(T)
 CCSD(T)= -0.15266236684D+03

 The electronic state is 1-A'.
 Alpha  occ. eigenvalues --  -20.56210 -20.54264  -1.33481  -1.31571  -0.70885
 Alpha  occ. eigenvalues --   -0.68939  -0.56975  -0.55045  -0.50604  -0.48700
 Alpha virt. eigenvalues --    0.12882   0.16122   0.19746   0.23191   0.53664
 Alpha virt. eigenvalues --    0.55253   0.56716   0.58577   0.66812   0.72899
 Alpha virt. eigenvalues --    0.78161   0.79319   0.80205   0.80586   0.82677

 Mulliken charges:
               1
     1  O   -0.506215
     2  H    0.251294
     3  H    0.259024
     4  O   -0.514984
     5  H    0.246934
     6  H    0.263947
 Sum of Mulliken charges =   0.00000

 Dipole moment (field-independent basis, Debye):
    X=             -1.9360    Y=             -2.0983    Z=              0.0000  Tot=              2.8550
 Quadrupole moment (field-independent basis, Debye-Ang):
   XX=             -9.8606   YY=             -2.1269   ZZ=            -14.7184
   XY=             -4.2150   XZ=              0.0000   YZ=              0.0000

 Normal termination of Gaussian 16 at Sat Aug 27 09:35:34 2022.
