 Gaussian 16, Revision A.03,
 Gaussian 16:  ES64L-G16RevA.03 25-Dec-2016

 ------------------
 #p CCSD(T)/cc-pVTZ
 ------------------

 ------------
 H2O_H2O_1308
 ------------
 Symbolic Z-matrix:
 Charge =  0 Multiplicity = 1

                         Standard orientation:
 ---------------------------------------------------------------------
 Center     Atomic      Atomic             Coordinates (Angstroms)
 Number     Number       Type             X           Y           Z
 ---------------------------------------------------------------------
      1          8           0        0.028569   -1.486725    0.000000
      2          1           0       -0.771940   -2.056541    0.000000
      3          1           0        0.827199   -2.059171    0.000000
      4          8           0        0.028569    1.501934    0.000000
      5          1           0        0.436924    2.395664    0.000000
      6          1           0       -0.949289    1.598372    0.000000
 ---------------------------------------------------------------------

 SCF Done:  E(RHF) =  -152.102201263     A.U. after   11 cycles
 E2 =    -0.5274201933D+00 EUMP2 =    -0.15262962145618D+03
 CCSD(T)
 CCSD(T)= -0.15265689127D+03

 The electronic state is 1-A'.
 Alpha  occ. eigenvalues --  -20.54167 -20.53786  -1.31512  -1.31038  -0.68933
 Alpha  occ. eigenvalues --   -0.68473  -0.55711  -0.53204  -0.48679  -0.48040
 Alpha virt. eigenvalues --    0.14197   0.16734   0.20458   0.22109   0.52465
 Alpha virt. eigenvalues --    0.58231   0.58375   0.59164   0.66534   0.76627
 Alpha virt. eigenvalues --    0.77540   0.78423   0.79456   0.82674   0.85874

 Mulliken charges:
               1
     1  O   -0.476434
     2  H    0.233794
     3  H    0.243121
     4  O   -0.472425
     5  H    0.230617
     6  H    0.241327
 Sum of Mulliken charges =  -0.00000

 Dipole moment (field-independent basis, Debye):
    X=             -0.9320    Y=             -0.2882    Z=              0.0000  Tot=              0.9756
 Quadrupole moment (field-independent basis, Debye-Ang):
   XX=             -8.3974   YY=             -0.7621   ZZ=            -14.7124
   XY=             -0.7479   XZ=              0.0000   YZ=              0.0000

 Normal termination of Gaussian 16 at Sat Aug 27 03:47:57 2022.
