 Gaussian 16, Revision A.03,
 Gaussian 16:  ES64L-G16RevA.03 25-Dec-2016

 ------------------
 #p CCSD(T)/cc-pVTZ
 ------------------

 ------------
 H2O_H2O_2305
 ------------
 Symbolic Z-matrix:
 Charge =  0 Multiplicity = 1

                         Standard orientation:
 ---------------------------------------------------------------------
 Center     Atomic      Atomic             Coordinates (Angstroms)
 Number     Number       Type             X           Y           Z
 ---------------------------------------------------------------------
      1          8           0        0.018361   -2.023545    0.000000
      2          1           0       -0.781655   -2.594054    0.000000
      3          1           0        0.817486   -2.595301    0.000000
      4          8           0        0.018361    2.029579    0.000000
      5          1           0        0.592537    2.826967    0.000000
      6          1           0       -0.922140    2.314121    0.000000
 ---------------------------------------------------------------------

 SCF Done:  E(RHF) =  -152.105342675     A.U. after   10 cycles
 E2 =    -0.5262580780D+00 EUMP2 =    -0.15263160075254D+03
 CCSD(T)
 CCSD(T)= -0.15265884656D+03

 The electronic state is 1-A'.
 Alpha  occ. eigenvalues --  -20.54664 -20.54576  -1.31949  -1.31859  -0.69366
 Alpha  occ. eigenvalues --   -0.69271  -0.55399  -0.55073  -0.49051  -0.48954
 Alpha virt. eigenvalues --    0.14162   0.15576   0.20588   0.21120   0.54286
 Alpha virt. eigenvalues --    0.55930   0.57868   0.58121   0.62999   0.74368
 Alpha virt. eigenvalues --    0.79524   0.80198   0.80746   0.81258   0.82119

 Mulliken charges:
               1
     1  O   -0.495549
     2  H    0.246404
     3  H    0.249217
     4  O   -0.495379
     5  H    0.245927
     6  H    0.249380
 Sum of Mulliken charges =  -0.00000

 Dipole moment (field-independent basis, Debye):
    X=             -0.6210    Y=             -0.1091    Z=              0.0000  Tot=              0.6305
 Quadrupole moment (field-independent basis, Debye-Ang):
   XX=             -8.0429   YY=              3.8546   ZZ=            -14.7097
   XY=             -0.7501   XZ=              0.0000   YZ=              0.0000

 Normal termination of Gaussian 16 at Sat Aug 27 09:46:05 2022.
