 Gaussian 16, Revision A.03,
 Gaussian 16:  ES64L-G16RevA.03 25-Dec-2016

 ------------------
 #p CCSD(T)/cc-pVTZ
 ------------------

 ------------
 H2O_H2O_1143
 ------------
 Symbolic Z-matrix:
 Charge =  0 Multiplicity = 1

                         Standard orientation:
 ---------------------------------------------------------------------
 Center     Atomic      Atomic             Coordinates (Angstroms)
 Number     Number       Type             X           Y           Z
 ---------------------------------------------------------------------
      1          8           0        0.052880   -1.363802    0.000000
      2          1           0       -0.748541   -1.932335    0.000000
      3          1           0        0.850592   -1.937527    0.000000
      4          8           0        0.052880    1.433973    0.000000
      5          1           0       -0.165684    2.391958    0.000000
      6          1           0       -0.782445    0.916538    0.000000
 ---------------------------------------------------------------------

 SCF Done:  E(RHF) =  -152.104832814     A.U. after   10 cycles
 E2 =    -0.5280091520D+00 EUMP2 =    -0.15263284196581D+03
 CCSD(T)
 CCSD(T)= -0.15265998975D+03

 The electronic state is 1-A'.
 Alpha  occ. eigenvalues --  -20.55534 -20.53221  -1.32933  -1.30487  -0.70348
 Alpha  occ. eigenvalues --   -0.68070  -0.56255  -0.53677  -0.50050  -0.47574
 Alpha virt. eigenvalues --    0.13515   0.17282   0.19887   0.23951   0.53199
 Alpha virt. eigenvalues --    0.57164   0.57486   0.58681   0.69739   0.75536
 Alpha virt. eigenvalues --    0.75537   0.78232   0.81359   0.82556   0.84760

 Mulliken charges:
               1
     1  O   -0.480597
     2  H    0.236358
     3  H    0.253440
     4  O   -0.490351
     5  H    0.226624
     6  H    0.254525
 Sum of Mulliken charges =  -0.00000

 Dipole moment (field-independent basis, Debye):
    X=             -1.6991    Y=             -1.3796    Z=              0.0000  Tot=              2.1886
 Quadrupole moment (field-independent basis, Debye-Ang):
   XX=             -9.5936   YY=             -2.9634   ZZ=            -14.7234
   XY=             -2.1290   XZ=              0.0000   YZ=              0.0000

 Normal termination of Gaussian 16 at Sat Aug 27 02:27:34 2022.
