 Gaussian 16, Revision A.03,
 Gaussian 16:  ES64L-G16RevA.03 25-Dec-2016

 ------------------
 #p CCSD(T)/cc-pVTZ
 ------------------

 ------------
 H2O_H2O_4652
 ------------
 Symbolic Z-matrix:
 Charge =  0 Multiplicity = 1

                         Standard orientation:
 ---------------------------------------------------------------------
 Center     Atomic      Atomic             Coordinates (Angstroms)
 Number     Number       Type             X           Y           Z
 ---------------------------------------------------------------------
      1          8           0        0.007455   -3.276109    0.000000
      2          1           0       -0.792228   -3.847084    0.000000
      3          1           0        0.806914   -3.847397    0.000000
      4          8           0        0.007455    3.277083    0.000000
      5          1           0        0.725769    3.947554    0.000000
      6          1           0       -0.859734    3.739134    0.000000
 ---------------------------------------------------------------------

 SCF Done:  E(RHF) =  -152.106889821     A.U. after   10 cycles
 E2 =    -0.5259215323D+00 EUMP2 =    -0.15263281135330D+03
 CCSD(T)
 CCSD(T)= -0.15266004269D+03

 The electronic state is 1-A'.
 Alpha  occ. eigenvalues --  -20.55225 -20.55220  -1.32521  -1.32516  -0.69928
 Alpha  occ. eigenvalues --   -0.69922  -0.55944  -0.55939  -0.49629  -0.49623
 Alpha virt. eigenvalues --    0.14405   0.14420   0.20456   0.20465   0.54640
 Alpha virt. eigenvalues --    0.54647   0.57512   0.57519   0.68275   0.68301
 Alpha virt. eigenvalues --    0.79251   0.79256   0.80693   0.80699   0.82620

 Mulliken charges:
               1
     1  O   -0.505806
     2  H    0.252751
     3  H    0.253055
     4  O   -0.505801
     5  H    0.252685
     6  H    0.253116
 Sum of Mulliken charges =  -0.00000

 Dipole moment (field-independent basis, Debye):
    X=             -0.2563    Y=             -0.0170    Z=              0.0000  Tot=              0.2568
 Quadrupole moment (field-independent basis, Debye-Ang):
   XX=             -7.8368   YY=             14.1000   ZZ=            -14.7108
   XY=             -0.6076   XZ=              0.0000   YZ=              0.0000

 4956\MP4DQ=-152.6419378\MP4SDQ=-152.6449972\CCSD=-152.6444091\CCSD(T)=
 Normal termination of Gaussian 16 at Sat Aug 27 08:33:29 2022.
