 Gaussian 16, Revision A.03,
 Gaussian 16:  ES64L-G16RevA.03 25-Dec-2016

 ------------------
 #p CCSD(T)/cc-pVTZ
 ------------------

 ------------
 H2O_H2O_1625
 ------------
 Symbolic Z-matrix:
 Charge =  0 Multiplicity = 1

                         Standard orientation:
 ---------------------------------------------------------------------
 Center     Atomic      Atomic             Coordinates (Angstroms)
 Number     Number       Type             X           Y           Z
 ---------------------------------------------------------------------
      1          8           0        0.000000   -0.000000    1.667833
      2          1           0        0.000000    0.799571    2.238965
      3          1           0       -0.000000   -0.799571    2.238965
      4          8           0        0.000000   -0.000000   -1.667833
      5          1           0       -0.000000   -0.799571   -2.238965
      6          1           0        0.000000    0.799571   -2.238965
 ---------------------------------------------------------------------

 SCF Done:  E(RHF) =  -152.103315208     A.U. after   10 cycles
 E2 =    -0.5268556778D+00 EUMP2 =    -0.15263017088554D+03
 CCSD(T)
 CCSD(T)= -0.15265744001D+03

 The electronic state is 1-AG.
 Alpha  occ. eigenvalues --  -20.54147 -20.54147  -1.31476  -1.31384  -0.68897
 Alpha  occ. eigenvalues --   -0.68822  -0.55362  -0.53922  -0.48632  -0.48404
 Alpha virt. eigenvalues --    0.14300   0.16298   0.20596   0.21554   0.52808
 Alpha virt. eigenvalues --    0.58091   0.58430   0.58503   0.61895   0.75987
 Alpha virt. eigenvalues --    0.78663   0.78834   0.79881   0.81723   0.84991

 Mulliken charges:
               1
     1  O   -0.480655
     2  H    0.240328
     3  H    0.240328
     4  O   -0.480655
     5  H    0.240328
     6  H    0.240328
 Sum of Mulliken charges =   0.00000

 Dipole moment (field-independent basis, Debye):
    X=             -0.0000    Y=              0.0000    Z=             -0.0000  Tot=              0.0000
 Quadrupole moment (field-independent basis, Debye-Ang):
   XX=            -14.7087   YY=             -7.8692   ZZ=              1.0525
   XY=              0.0000   XZ=              0.0000   YZ=             -0.0000

 \MP4DQ=-152.6391576\MP4SDQ=-152.6422772\CCSD=-152.6416642\CCSD(T)=-152
 Normal termination of Gaussian 16 at Sat Aug 27 05:51:00 2022.
