 Gaussian 16, Revision A.03,
 Gaussian 16:  ES64L-G16RevA.03 25-Dec-2016

 ------------------
 #p CCSD(T)/cc-pVTZ
 ------------------

 ------------
 H2O_H2O_2614
 ------------
 Symbolic Z-matrix:
 Charge =  0 Multiplicity = 1

                         Standard orientation:
 ---------------------------------------------------------------------
 Center     Atomic      Atomic             Coordinates (Angstroms)
 Number     Number       Type             X           Y           Z
 ---------------------------------------------------------------------
      1          8           0        0.045351   -2.162190    0.000000
      2          1           0       -0.755239   -2.731893    0.000000
      3          1           0        0.843901   -2.734748    0.000000
      4          8           0        0.045351    2.206717    0.000000
      5          1           0        0.080743    3.188682    0.000000
      6          1           0       -0.895018    1.921736    0.000000
 ---------------------------------------------------------------------

 SCF Done:  E(RHF) =  -152.106635556     A.U. after   10 cycles
 E2 =    -0.5260841492D+00 EUMP2 =    -0.15263271970500D+03
 CCSD(T)
 CCSD(T)= -0.15265994328D+03

 The electronic state is 1-A'.
 Alpha  occ. eigenvalues --  -20.55228 -20.54657  -1.32518  -1.31944  -0.69929
 Alpha  occ. eigenvalues --   -0.69336  -0.55923  -0.55347  -0.49624  -0.49054
 Alpha virt. eigenvalues --    0.13779   0.15441   0.20283   0.21270   0.54136
 Alpha virt. eigenvalues --    0.55069   0.57505   0.58013   0.65731   0.72785
 Alpha virt. eigenvalues --    0.79222   0.79844   0.80354   0.81685   0.83158

 Mulliken charges:
               1
     1  O   -0.503251
     2  H    0.248947
     3  H    0.254666
     4  O   -0.503166
     5  H    0.247089
     6  H    0.255715
 Sum of Mulliken charges =  -0.00000

 Dipole moment (field-independent basis, Debye):
    X=             -1.5411    Y=             -0.7986    Z=              0.0000  Tot=              1.7357
 Quadrupole moment (field-independent basis, Debye-Ang):
   XX=             -9.1028   YY=              3.2229   ZZ=            -14.7117
   XY=             -2.6399   XZ=              0.0000   YZ=              0.0000

 Normal termination of Gaussian 16 at Fri Aug 26 14:21:22 2022.
