 Gaussian 16, Revision A.03,
 Gaussian 16:  ES64L-G16RevA.03 25-Dec-2016

 ------------------
 #p CCSD(T)/cc-pVTZ
 ------------------

 -----------
 H2O_H2O_492
 -----------
 Symbolic Z-matrix:
 Charge =  0 Multiplicity = 1

                         Standard orientation:
 ---------------------------------------------------------------------
 Center     Atomic      Atomic             Coordinates (Angstroms)
 Number     Number       Type             X           Y           Z
 ---------------------------------------------------------------------
      1          8           0        0.051356   -1.021850    0.000000
      2          1           0       -0.750598   -1.589631    0.000000
      3          1           0        0.848530   -1.596324    0.000000
      4          8           0        0.051356    1.085126    0.000000
      5          1           0       -0.103175    2.055501    0.000000
      6          1           0       -0.816455    0.624246    0.000000
 ---------------------------------------------------------------------

 SCF Done:  E(RHF) =  -152.072133629     A.U. after   11 cycles
 E2 =    -0.5338915442D+00 EUMP2 =    -0.15260602517329D+03
 CCSD(T)
 CCSD(T)= -0.15263288840D+03

 The electronic state is 1-A'.
 Alpha  occ. eigenvalues --  -20.54566 -20.51742  -1.33684  -1.28853  -0.71046
 Alpha  occ. eigenvalues --   -0.68517  -0.55980  -0.50572  -0.49591  -0.45724
 Alpha virt. eigenvalues --    0.13724   0.18286   0.19806   0.24473   0.52086
 Alpha virt. eigenvalues --    0.56916   0.59866   0.62859   0.71921   0.75178
 Alpha virt. eigenvalues --    0.79512   0.82764   0.83866   0.84352   0.87926

 Mulliken charges:
               1
     1  O   -0.431636
     2  H    0.209982
     3  H    0.233550
     4  O   -0.443981
     5  H    0.185512
     6  H    0.246573
 Sum of Mulliken charges =  -0.00000

 Dipole moment (field-independent basis, Debye):
    X=             -1.5140    Y=             -1.3136    Z=              0.0000  Tot=              2.0044
 Quadrupole moment (field-independent basis, Debye-Ang):
   XX=             -9.5551   YY=             -5.5687   ZZ=            -14.7056
   XY=             -1.3756   XZ=              0.0000   YZ=              0.0000

 Normal termination of Gaussian 16 at Fri Aug 26 16:57:42 2022.
