 Gaussian 16, Revision A.03,
 Gaussian 16:  ES64L-G16RevA.03 25-Dec-2016

 ------------------
 #p CCSD(T)/cc-pVTZ
 ------------------

 ------------
 H2O_H2O_3875
 ------------
 Symbolic Z-matrix:
 Charge =  0 Multiplicity = 1

                         Standard orientation:
 ---------------------------------------------------------------------
 Center     Atomic      Atomic             Coordinates (Angstroms)
 Number     Number       Type             X           Y           Z
 ---------------------------------------------------------------------
      1          8           0        0.000000   -0.000000    2.864465
      2          1           0        0.000000    0.799571    3.435597
      3          1           0       -0.000000   -0.799571    3.435597
      4          8           0        0.000000   -0.000000   -2.864465
      5          1           0       -0.000000   -0.799571   -3.435597
      6          1           0        0.000000    0.799571   -3.435597
 ---------------------------------------------------------------------

 SCF Done:  E(RHF) =  -152.106587173     A.U. after   10 cycles
 E2 =    -0.5259596246D+00 EUMP2 =    -0.15263254679797D+03
 CCSD(T)
 CCSD(T)= -0.15265978388D+03

 The electronic state is 1-AG.
 Alpha  occ. eigenvalues --  -20.55088 -20.55088  -1.32383  -1.32383  -0.69791
 Alpha  occ. eigenvalues --   -0.69791  -0.55793  -0.55791  -0.49489  -0.49489
 Alpha virt. eigenvalues --    0.14472   0.14569   0.20535   0.20571   0.54764
 Alpha virt. eigenvalues --    0.54795   0.57618   0.57636   0.68296   0.68631
 Alpha virt. eigenvalues --    0.79388   0.79391   0.80830   0.80845   0.82758

 Mulliken charges:
               1
     1  O   -0.504027
     2  H    0.252014
     3  H    0.252014
     4  O   -0.504027
     5  H    0.252014
     6  H    0.252014
 Sum of Mulliken charges =   0.00000

 Dipole moment (field-independent basis, Debye):
    X=             -0.0000    Y=              0.0000    Z=              0.0000  Tot=              0.0000
 Quadrupole moment (field-independent basis, Debye-Ang):
   XX=            -14.7103   YY=             -7.8069   ZZ=             10.8755
   XY=              0.0000   XZ=              0.0000   YZ=             -0.0000

 6\MP4DQ=-152.6416712\MP4SDQ=-152.6447335\CCSD=-152.6441444\CCSD(T)=-15
 Normal termination of Gaussian 16 at Sat Aug 27 03:57:49 2022.
