 Gaussian 16, Revision A.03,
 Gaussian 16:  ES64L-G16RevA.03 25-Dec-2016

 ------------------
 #p CCSD(T)/cc-pVTZ
 ------------------

 ------------
 H2O_H2O_1859
 ------------
 Symbolic Z-matrix:
 Charge =  0 Multiplicity = 1

                         Standard orientation:
 ---------------------------------------------------------------------
 Center     Atomic      Atomic             Coordinates (Angstroms)
 Number     Number       Type             X           Y           Z
 ---------------------------------------------------------------------
      1          8           0        0.031745   -1.777093    0.000000
      2          1           0       -0.768698   -2.347002    0.000000
      3          1           0        0.830442   -2.349447    0.000000
      4          8           0        0.031745    1.796246    0.000000
      5          1           0        0.380665    2.714811    0.000000
      6          1           0       -0.950330    1.828409    0.000000
 ---------------------------------------------------------------------

 SCF Done:  E(RHF) =  -152.104979253     A.U. after   10 cycles
 E2 =    -0.5265716258D+00 EUMP2 =    -0.15263155087850D+03
 CCSD(T)
 CCSD(T)= -0.15265878415D+03

 The electronic state is 1-A'.
 Alpha  occ. eigenvalues --  -20.54653 -20.54286  -1.31932  -1.31555  -0.69355
 Alpha  occ. eigenvalues --   -0.68960  -0.55466  -0.54621  -0.49040  -0.48647
 Alpha virt. eigenvalues --    0.13981   0.16099   0.20448   0.21604   0.53160
 Alpha virt. eigenvalues --    0.56061   0.57924   0.58416   0.62828   0.76398
 Alpha virt. eigenvalues --    0.78950   0.79199   0.80537   0.80988   0.83807

 Mulliken charges:
               1
     1  O   -0.489536
     2  H    0.241775
     3  H    0.248439
     4  O   -0.489827
     5  H    0.240315
     6  H    0.248833
 Sum of Mulliken charges =  -0.00000

 Dipole moment (field-independent basis, Debye):
    X=             -1.0618    Y=             -0.3544    Z=              0.0000  Tot=              1.1193
 Quadrupole moment (field-independent basis, Debye-Ang):
   XX=             -8.4735   YY=              1.5052   ZZ=            -14.7105
   XY=             -1.1731   XZ=              0.0000   YZ=              0.0000

 Normal termination of Gaussian 16 at Sat Aug 27 07:12:55 2022.
