 Gaussian 16, Revision A.03,
 Gaussian 16:  ES64L-G16RevA.03 25-Dec-2016

 ------------------
 #p CCSD(T)/cc-pVTZ
 ------------------

 ------------
 H2O_H2O_2681
 ------------
 Symbolic Z-matrix:
 Charge =  0 Multiplicity = 1

                         Standard orientation:
 ---------------------------------------------------------------------
 Center     Atomic      Atomic             Coordinates (Angstroms)
 Number     Number       Type             X           Y           Z
 ---------------------------------------------------------------------
      1          8           0        0.021860   -2.221559    0.000000
      2          1           0       -0.778194   -2.792015    0.000000
      3          1           0        0.820948   -2.793366    0.000000
      4          8           0        0.021860    2.230217    0.000000
      5          1           0        0.542709    3.063417    0.000000
      6          1           0       -0.935222    2.452700    0.000000
 ---------------------------------------------------------------------

 SCF Done:  E(RHF) =  -152.105848817     A.U. after   10 cycles
 E2 =    -0.5261095176D+00 EUMP2 =    -0.15263195833426D+03
 CCSD(T)
 CCSD(T)= -0.15265920388D+03

 The electronic state is 1-A'.
 Alpha  occ. eigenvalues --  -20.54840 -20.54738  -1.32130  -1.32026  -0.69543
 Alpha  occ. eigenvalues --   -0.69435  -0.55524  -0.55367  -0.49231  -0.49127
 Alpha virt. eigenvalues --    0.14246   0.15236   0.20568   0.20942   0.54643
 Alpha virt. eigenvalues --    0.55413   0.57774   0.57956   0.65413   0.72200
 Alpha virt. eigenvalues --    0.79569   0.79816   0.81057   0.81194   0.82306

 Mulliken charges:
               1
     1  O   -0.499496
     2  H    0.248451
     3  H    0.251077
     4  O   -0.499255
     5  H    0.247942
     6  H    0.251282
 Sum of Mulliken charges =  -0.00000

 Dipole moment (field-independent basis, Debye):
    X=             -0.7435    Y=             -0.1543    Z=              0.0000  Tot=              0.7593
 Quadrupole moment (field-independent basis, Debye-Ang):
   XX=             -8.1209   YY=              5.3253   ZZ=            -14.7099
   XY=             -1.0568   XZ=              0.0000   YZ=              0.0000

 Normal termination of Gaussian 16 at Fri Aug 26 15:01:28 2022.
