 Gaussian 16, Revision A.03,
 Gaussian 16:  ES64L-G16RevA.03 25-Dec-2016

 ------------------
 #p CCSD(T)/cc-pVTZ
 ------------------

 ------------
 H2O_H2O_1138
 ------------
 Symbolic Z-matrix:
 Charge =  0 Multiplicity = 1

                         Standard orientation:
 ---------------------------------------------------------------------
 Center     Atomic      Atomic             Coordinates (Angstroms)
 Number     Number       Type             X           Y           Z
 ---------------------------------------------------------------------
      1          8           0        0.042991   -1.380902    0.000000
      2          1           0       -0.758085   -1.949922    0.000000
      3          1           0        0.841052   -1.954143    0.000000
      4          8           0        0.042991    1.419587    0.000000
      5          1           0        0.143366    2.397049    0.000000
      6          1           0       -0.914192    1.197537    0.000000
 ---------------------------------------------------------------------

 SCF Done:  E(RHF) =  -152.102288751     A.U. after   11 cycles
 E2 =    -0.5279160457D+00 EUMP2 =    -0.15263020479697D+03
 CCSD(T)
 CCSD(T)= -0.15265743177D+03

 The electronic state is 1-A'.
 Alpha  occ. eigenvalues --  -20.54610 -20.53473  -1.32003  -1.30715  -0.69422
 Alpha  occ. eigenvalues --   -0.68187  -0.56027  -0.53081  -0.49154  -0.47743
 Alpha virt. eigenvalues --    0.13953   0.17025   0.20218   0.22888   0.53533
 Alpha virt. eigenvalues --    0.57869   0.58138   0.58729   0.68720   0.76243
 Alpha virt. eigenvalues --    0.76520   0.76906   0.81493   0.82922   0.85485

 Mulliken charges:
               1
     1  O   -0.476813
     2  H    0.232547
     3  H    0.247183
     4  O   -0.472653
     5  H    0.223968
     6  H    0.245767
 Sum of Mulliken charges =  -0.00000

 Dipole moment (field-independent basis, Debye):
    X=             -1.3816    Y=             -0.7460    Z=              0.0000  Tot=              1.5702
 Quadrupole moment (field-independent basis, Debye-Ang):
   XX=             -9.0376   YY=             -2.0484   ZZ=            -14.7185
   XY=             -1.3074   XZ=              0.0000   YZ=              0.0000

 Normal termination of Gaussian 16 at Sat Aug 27 02:25:24 2022.
