 Gaussian 16, Revision A.03,
 Gaussian 16:  ES64L-G16RevA.03 25-Dec-2016

 ------------------
 #p CCSD(T)/cc-pVTZ
 ------------------

 ------------
 H2O_H2O_4114
 ------------
 Symbolic Z-matrix:
 Charge =  0 Multiplicity = 1

                         Standard orientation:
 ---------------------------------------------------------------------
 Center     Atomic      Atomic             Coordinates (Angstroms)
 Number     Number       Type             X           Y           Z
 ---------------------------------------------------------------------
      1          8           0        0.045340   -2.959921    0.000000
      2          1           0       -0.754977   -3.530007    0.000000
      3          1           0        0.844163   -3.532099    0.000000
      4          8           0        0.045340    3.004493    0.000000
      5          1           0        0.080264    3.986474    0.000000
      6          1           0       -0.894892    2.719063    0.000000
 ---------------------------------------------------------------------

 SCF Done:  E(RHF) =  -152.107103360     A.U. after   10 cycles
 E2 =    -0.5259123749D+00 EUMP2 =    -0.15263301573465D+03
 CCSD(T)
 CCSD(T)= -0.15266024193D+03

 The electronic state is 1-A'.
 Alpha  occ. eigenvalues --  -20.55400 -20.55109  -1.32698  -1.32405  -0.70105
 Alpha  occ. eigenvalues --   -0.69806  -0.56131  -0.55838  -0.49807  -0.49515
 Alpha virt. eigenvalues --    0.14228   0.14560   0.20305   0.20623   0.54458
 Alpha virt. eigenvalues --    0.54774   0.57352   0.57645   0.68027   0.68435
 Alpha virt. eigenvalues --    0.79072   0.79360   0.80509   0.80821   0.82446

 Mulliken charges:
               1
     1  O   -0.507096
     2  H    0.252344
     3  H    0.254753
     4  O   -0.506860
     5  H    0.251465
     6  H    0.255394
 Sum of Mulliken charges =  -0.00000

 Dipole moment (field-independent basis, Debye):
    X=             -1.5567    Y=             -0.7801    Z=              0.0000  Tot=              1.7412
 Quadrupole moment (field-independent basis, Debye-Ang):
   XX=             -9.0971   YY=              8.4017   ZZ=            -14.7114
   XY=             -3.8643   XZ=              0.0000   YZ=              0.0000

 Normal termination of Gaussian 16 at Sat Aug 27 05:27:24 2022.
