 Gaussian 16, Revision A.03,
 Gaussian 16:  ES64L-G16RevA.03 25-Dec-2016

 ------------------
 #p CCSD(T)/cc-pVTZ
 ------------------

 ------------
 H2O_H2O_1061
 ------------
 Symbolic Z-matrix:
 Charge =  0 Multiplicity = 1

                         Standard orientation:
 ---------------------------------------------------------------------
 Center     Atomic      Atomic             Coordinates (Angstroms)
 Number     Number       Type             X           Y           Z
 ---------------------------------------------------------------------
      1          8           0        0.037691   -1.346727    0.000000
      2          1           0       -0.763238   -1.915953    0.000000
      3          1           0        0.835899   -1.919762    0.000000
      4          8           0        0.037691    1.374894    0.000000
      5          1           0        0.264545    2.330951    0.000000
      6          1           0       -0.940263    1.279430    0.000000
 ---------------------------------------------------------------------

 SCF Done:  E(RHF) =  -152.100360105     A.U. after   11 cycles
 E2 =    -0.5281810520D+00 EUMP2 =    -0.15262854115675D+03
 CCSD(T)
 CCSD(T)= -0.15265579281D+03

 The electronic state is 1-A'.
 Alpha  occ. eigenvalues --  -20.54236 -20.53409  -1.31689  -1.30643  -0.69095
 Alpha  occ. eigenvalues --   -0.68134  -0.56147  -0.52454  -0.48875  -0.47612
 Alpha virt. eigenvalues --    0.14110   0.17079   0.20327   0.22708   0.53015
 Alpha virt. eigenvalues --    0.58118   0.58388   0.59754   0.69300   0.76526
 Alpha virt. eigenvalues --    0.76707   0.77211   0.82157   0.83215   0.85749

 Mulliken charges:
               1
     1  O   -0.473803
     2  H    0.230499
     3  H    0.244414
     4  O   -0.465106
     5  H    0.221827
     6  H    0.242170
 Sum of Mulliken charges =  -0.00000

 Dipole moment (field-independent basis, Debye):
    X=             -1.2042    Y=             -0.5428    Z=              0.0000  Tot=              1.3209
 Quadrupole moment (field-independent basis, Debye-Ang):
   XX=             -8.7918   YY=             -2.1487   ZZ=            -14.7185
   XY=             -0.9762   XZ=              0.0000   YZ=              0.0000

 Normal termination of Gaussian 16 at Sat Aug 27 01:46:02 2022.
