 Gaussian 16, Revision A.03,
 Gaussian 16:  ES64L-G16RevA.03 25-Dec-2016

 ------------------
 #p CCSD(T)/cc-pVTZ
 ------------------

 ------------
 H2O_H2O_2192
 ------------
 Symbolic Z-matrix:
 Charge =  0 Multiplicity = 1

                         Standard orientation:
 ---------------------------------------------------------------------
 Center     Atomic      Atomic             Coordinates (Angstroms)
 Number     Number       Type             X           Y           Z
 ---------------------------------------------------------------------
      1          8           0        0.051295   -1.925869    0.000000
      2          1           0       -0.749561   -2.495198    0.000000
      3          1           0        0.849577   -2.498800    0.000000
      4          8           0        0.051295    1.989343    0.000000
      5          1           0       -0.105111    2.959417    0.000000
      6          1           0       -0.815623    1.526786    0.000000
 ---------------------------------------------------------------------

 SCF Done:  E(RHF) =  -152.107098791     A.U. after   10 cycles
 E2 =    -0.5262494495D+00 EUMP2 =    -0.15263334823999D+03
 CCSD(T)
 CCSD(T)= -0.15266054268D+03

 The electronic state is 1-A'.
 Alpha  occ. eigenvalues --  -20.55454 -20.54382  -1.32732  -1.31664  -0.70145
 Alpha  occ. eigenvalues --   -0.69041  -0.56145  -0.55075  -0.49843  -0.48781
 Alpha virt. eigenvalues --    0.13417   0.15955   0.20104   0.22052   0.53850
 Alpha virt. eigenvalues --    0.54612   0.57338   0.58417   0.64980   0.75148
 Alpha virt. eigenvalues --    0.78843   0.79297   0.80253   0.81282   0.84225

 Mulliken charges:
               1
     1  O   -0.501157
     2  H    0.247291
     3  H    0.255603
     4  O   -0.504229
     5  H    0.244460
     6  H    0.258033
 Sum of Mulliken charges =   0.00000

 Dipole moment (field-independent basis, Debye):
    X=             -1.7297    Y=             -1.1618    Z=              0.0000  Tot=              2.0837
 Quadrupole moment (field-independent basis, Debye-Ang):
   XX=             -9.4631   YY=              0.7857   ZZ=            -14.7139
   XY=             -2.9006   XZ=              0.0000   YZ=              0.0000

 Normal termination of Gaussian 16 at Sat Aug 27 09:07:57 2022.
