 Gaussian 16, Revision A.03,
 Gaussian 16:  ES64L-G16RevA.03 25-Dec-2016

 ------------------
 #p CCSD(T)/cc-pVTZ
 ------------------

 ------------
 H2O_H2O_1598
 ------------
 Symbolic Z-matrix:
 Charge =  0 Multiplicity = 1

                         Standard orientation:
 ---------------------------------------------------------------------
 Center     Atomic      Atomic             Coordinates (Angstroms)
 Number     Number       Type             X           Y           Z
 ---------------------------------------------------------------------
      1          8           0        0.057151   -1.583447    0.000000
      2          1           0       -0.744129   -2.152179    0.000000
      3          1           0        0.855006   -2.156973    0.000000
      4          8           0        0.057151    1.689860    0.000000
      5          1           0       -0.457958    2.526622    0.000000
      6          1           0       -0.567330    0.931224    0.000000
 ---------------------------------------------------------------------

 SCF Done:  E(RHF) =  -152.109539468     A.U. after   10 cycles
 E2 =    -0.5268835177D+00 EUMP2 =    -0.15263642298566D+03
 CCSD(T)
 CCSD(T)= -0.15266352427D+03

 The electronic state is 1-A'.
 Alpha  occ. eigenvalues --  -20.56442 -20.53567  -1.33721  -1.30881  -0.71120
 Alpha  occ. eigenvalues --   -0.68307  -0.57175  -0.54372  -0.50842  -0.48017
 Alpha virt. eigenvalues --    0.12968   0.16966   0.19625   0.25031   0.52597
 Alpha virt. eigenvalues --    0.55574   0.56653   0.58193   0.67715   0.75422
 Alpha virt. eigenvalues --    0.76427   0.76552   0.80429   0.81370   0.84152

 Mulliken charges:
               1
     1  O   -0.495853
     2  H    0.246722
     3  H    0.259615
     4  O   -0.515495
     5  H    0.240314
     6  H    0.264698
 Sum of Mulliken charges =  -0.00000

 Dipole moment (field-independent basis, Debye):
    X=             -1.8928    Y=             -2.0557    Z=              0.0000  Tot=              2.7944
 Quadrupole moment (field-independent basis, Debye-Ang):
   XX=             -9.8526   YY=             -3.2191   ZZ=            -14.7242
   XY=             -3.3937   XZ=              0.0000   YZ=              0.0000

 Normal termination of Gaussian 16 at Sat Aug 27 05:41:27 2022.
