 Gaussian 16, Revision A.03,
 Gaussian 16:  ES64L-G16RevA.03 25-Dec-2016

 ------------------
 #p CCSD(T)/cc-pVTZ
 ------------------

 ------------
 H2O_H2O_2033
 ------------
 Symbolic Z-matrix:
 Charge =  0 Multiplicity = 1

                         Standard orientation:
 ---------------------------------------------------------------------
 Center     Atomic      Atomic             Coordinates (Angstroms)
 Number     Number       Type             X           Y           Z
 ---------------------------------------------------------------------
      1          8           0        0.028567   -1.872296    0.000000
      2          1           0       -0.771751   -2.442382    0.000000
      3          1           0        0.827390   -2.444473    0.000000
      4          8           0        0.028567    1.887525    0.000000
      5          1           0        0.436620    2.781392    0.000000
      6          1           0       -0.949324    1.983633    0.000000
 ---------------------------------------------------------------------

 SCF Done:  E(RHF) =  -152.105194577     A.U. after   10 cycles
 E2 =    -0.5264224374D+00 EUMP2 =    -0.15263161701451D+03
 CCSD(T)
 CCSD(T)= -0.15265885333D+03

 The electronic state is 1-A'.
 Alpha  occ. eigenvalues --  -20.54674 -20.54410  -1.31954  -1.31685  -0.69373
 Alpha  occ. eigenvalues --   -0.69092  -0.55435  -0.54834  -0.49058  -0.48780
 Alpha virt. eigenvalues --    0.14012   0.15895   0.20493   0.21399   0.53502
 Alpha virt. eigenvalues --    0.55978   0.57898   0.58273   0.62564   0.75665
 Alpha virt. eigenvalues --    0.79238   0.79814   0.80612   0.80954   0.82984

 Mulliken charges:
               1
     1  O   -0.492529
     2  H    0.243816
     3  H    0.249097
     4  O   -0.492562
     5  H    0.242733
     6  H    0.249446
 Sum of Mulliken charges =  -0.00000

 Dipole moment (field-independent basis, Debye):
    X=             -0.9604    Y=             -0.2792    Z=              0.0000  Tot=              1.0001
 Quadrupole moment (field-independent basis, Debye-Ang):
   XX=             -8.3480   YY=              2.3634   ZZ=            -14.7101
   XY=             -1.1092   XZ=              0.0000   YZ=              0.0000

 Normal termination of Gaussian 16 at Sat Aug 27 08:12:44 2022.
