 Gaussian 16, Revision A.03,
 Gaussian 16:  ES64L-G16RevA.03 25-Dec-2016

 ------------------
 #p CCSD(T)/cc-pVTZ
 ------------------

 ------------
 H2O_H2O_4618
 ------------
 Symbolic Z-matrix:
 Charge =  0 Multiplicity = 1

                         Standard orientation:
 ---------------------------------------------------------------------
 Center     Atomic      Atomic             Coordinates (Angstroms)
 Number     Number       Type             X           Y           Z
 ---------------------------------------------------------------------
      1          8           0        0.052815   -3.211831    0.000000
      2          1           0       -0.747554   -3.781844    0.000000
      3          1           0        0.851586   -3.784081    0.000000
      4          8           0        0.052815    3.282197    0.000000
      5          1           0       -0.167520    4.239777    0.000000
      6          1           0       -0.781552    2.763220    0.000000
 ---------------------------------------------------------------------

 SCF Done:  E(RHF) =  -152.107377647     A.U. after   10 cycles
 E2 =    -0.5258805644D+00 EUMP2 =    -0.15263325821170D+03
 CCSD(T)
 CCSD(T)= -0.15266047904D+03

 The electronic state is 1-A'.
 Alpha  occ. eigenvalues --  -20.55568 -20.55183  -1.32867  -1.32481  -0.70273
 Alpha  occ. eigenvalues --   -0.69881  -0.56313  -0.55925  -0.49978  -0.49593
 Alpha virt. eigenvalues --    0.14102   0.14494   0.20178   0.20587   0.54289
 Alpha virt. eigenvalues --    0.54693   0.57205   0.57591   0.67871   0.68281
 Alpha virt. eigenvalues --    0.78902   0.79281   0.80333   0.80743   0.82260

 Mulliken charges:
               1
     1  O   -0.508708
     2  H    0.253281
     3  H    0.255428
     4  O   -0.508480
     5  H    0.252271
     6  H    0.256209
 Sum of Mulliken charges =  -0.00000

 Dipole moment (field-independent basis, Debye):
    X=             -1.8160    Y=             -1.2283    Z=              0.0000  Tot=              2.1923
 Quadrupole moment (field-independent basis, Debye-Ang):
   XX=             -9.5595   YY=              7.6002   ZZ=            -14.7119
   XY=             -5.4081   XZ=              0.0000   YZ=              0.0000

 Normal termination of Gaussian 16 at Sat Aug 27 08:22:03 2022.
