 Gaussian 16, Revision A.03,
 Gaussian 16:  ES64L-G16RevA.03 25-Dec-2016

 ------------------
 #p CCSD(T)/cc-pVTZ
 ------------------

 ------------
 H2O_H2O_4135
 ------------
 Symbolic Z-matrix:
 Charge =  0 Multiplicity = 1

                         Standard orientation:
 ---------------------------------------------------------------------
 Center     Atomic      Atomic             Coordinates (Angstroms)
 Number     Number       Type             X           Y           Z
 ---------------------------------------------------------------------
      1          8           0        0.034780   -2.984642    0.000000
      2          1           0       -0.765361   -3.554975    0.000000
      3          1           0        0.833780   -3.556572    0.000000
      4          8           0        0.034780    3.008177    0.000000
      5          1           0        0.322379    3.947748    0.000000
      6          1           0       -0.947279    2.975519    0.000000
 ---------------------------------------------------------------------

 SCF Done:  E(RHF) =  -152.106912639     A.U. after   10 cycles
 E2 =    -0.5259276145D+00 EUMP2 =    -0.15263284025340D+03
 CCSD(T)
 CCSD(T)= -0.15266007062D+03

 The electronic state is 1-A'.
 Alpha  occ. eigenvalues --  -20.55277 -20.55125  -1.32573  -1.32420  -0.69980
 Alpha  occ. eigenvalues --   -0.69824  -0.55997  -0.55845  -0.49681  -0.49529
 Alpha virt. eigenvalues --    0.14344   0.14524   0.20404   0.20571   0.54585
 Alpha virt. eigenvalues --    0.54753   0.57461   0.57615   0.68184   0.68432
 Alpha virt. eigenvalues --    0.79198   0.79348   0.80639   0.80805   0.82569

 Mulliken charges:
               1
     1  O   -0.505959
     2  H    0.252063
     3  H    0.253896
     4  O   -0.505811
     5  H    0.251530
     6  H    0.254281
 Sum of Mulliken charges =  -0.00000

 Dipole moment (field-independent basis, Debye):
    X=             -1.1940    Y=             -0.4116    Z=              0.0000  Tot=              1.2630
 Quadrupole moment (field-independent basis, Debye-Ang):
   XX=             -8.5650   YY=             10.1962   ZZ=            -14.7110
   XY=             -2.7504   XZ=              0.0000   YZ=              0.0000

 Normal termination of Gaussian 16 at Sat Aug 27 05:34:37 2022.
