 Gaussian 16, Revision A.03,
 Gaussian 16:  ES64L-G16RevA.03 25-Dec-2016

 ------------------
 #p CCSD(T)/cc-pVTZ
 ------------------

 -----------
 H2O_H2O_510
 -----------
 Symbolic Z-matrix:
 Charge =  0 Multiplicity = 1

                         Standard orientation:
 ---------------------------------------------------------------------
 Center     Atomic      Atomic             Coordinates (Angstroms)
 Number     Number       Type             X           Y           Z
 ---------------------------------------------------------------------
      1          8           0        0.034801   -1.056800    0.000000
      2          1           0       -0.766366   -1.625690    0.000000
      3          1           0        0.832769   -1.630170    0.000000
      4          8           0        0.034801    1.080210    0.000000
      5          1           0        0.324093    2.019261    0.000000
      6          1           0       -0.947315    1.049322    0.000000
 ---------------------------------------------------------------------

 SCF Done:  E(RHF) =  -152.073270105     A.U. after   11 cycles
 E2 =    -0.5327018667D+00 EUMP2 =    -0.15260597197158D+03
 CCSD(T)
 CCSD(T)= -0.15263300462D+03

 The electronic state is 1-A'.
 Alpha  occ. eigenvalues --  -20.53052 -20.52264  -1.32012  -1.29188  -0.69101
 Alpha  occ. eigenvalues --   -0.67408  -0.58498  -0.49227  -0.47325  -0.45837
 Alpha virt. eigenvalues --    0.14344   0.17902   0.20303   0.23229   0.52747
 Alpha virt. eigenvalues --    0.57925   0.58432   0.63380   0.70761   0.76554
 Alpha virt. eigenvalues --    0.78491   0.81577   0.83707   0.85984   0.87806

 Mulliken charges:
               1
     1  O   -0.452002
     2  H    0.215952
     3  H    0.234131
     4  O   -0.424319
     5  H    0.189141
     6  H    0.237095
 Sum of Mulliken charges =  -0.00000

 Dipole moment (field-independent basis, Debye):
    X=             -1.0336    Y=             -0.4711    Z=              0.0000  Tot=              1.1359
 Quadrupole moment (field-independent basis, Debye-Ang):
   XX=             -8.7739   YY=             -4.9259   ZZ=            -14.7321
   XY=             -0.5527   XZ=              0.0000   YZ=              0.0000

 1863\MP4DQ=-152.6137939\MP4SDQ=-152.6171981\CCSD=-152.6164755\CCSD(T)=
 Normal termination of Gaussian 16 at Fri Aug 26 17:11:05 2022.
