 Gaussian 16, Revision A.03,
 Gaussian 16:  ES64L-G16RevA.03 25-Dec-2016

 ------------------
 #p CCSD(T)/cc-pVTZ
 ------------------

 ----------
 H2O_H2O_62
 ----------
 Symbolic Z-matrix:
 Charge =  0 Multiplicity = 1

                         Standard orientation:
 ---------------------------------------------------------------------
 Center     Atomic      Atomic             Coordinates (Angstroms)
 Number     Number       Type             X           Y           Z
 ---------------------------------------------------------------------
      1          8           0        0.040455   -0.812199    0.000000
      2          1           0       -0.761505   -1.379972    0.000000
      3          1           0        0.837623   -1.386680    0.000000
      4          8           0        0.040455    0.845316    0.000000
      5          1           0        0.206050    1.813864    0.000000
      6          1           0       -0.929448    0.687852    0.000000
 ---------------------------------------------------------------------

 SCF Done:  E(RHF) =  -151.946770870     A.U. after   12 cycles
 E2 =    -0.5482813482D+00 EUMP2 =    -0.15249505221809D+03
 CCSD(T)
 CCSD(T)= -0.15252010938D+03

 The electronic state is 1-A'.
 Alpha  occ. eigenvalues --  -20.52585 -20.51428  -1.37497  -1.26780  -0.73526
 Alpha  occ. eigenvalues --   -0.69710  -0.60032  -0.53208  -0.43422  -0.37095
 Alpha virt. eigenvalues --    0.14024   0.19064   0.19779   0.23747   0.53389
 Alpha virt. eigenvalues --    0.55989   0.58591   0.65623   0.73082   0.77605
 Alpha virt. eigenvalues --    0.80488   0.82220   0.82293   0.84151   0.89079

 Mulliken charges:
               1
     1  O   -0.346577
     2  H    0.160643
     3  H    0.191547
     4  O   -0.339382
     5  H    0.103725
     6  H    0.230046
 Sum of Mulliken charges =  -0.00000

 Dipole moment (field-independent basis, Debye):
    X=             -1.0851    Y=             -0.7931    Z=              0.0000  Tot=              1.3440
 Quadrupole moment (field-independent basis, Debye-Ang):
   XX=             -9.1635   YY=             -8.6939   ZZ=            -14.6689
   XY=             -0.5757   XZ=              0.0000   YZ=              0.0000

 Normal termination of Gaussian 16 at Fri Aug 26 12:22:55 2022.
