 Gaussian 16, Revision A.03,
 Gaussian 16:  ES64L-G16RevA.03 25-Dec-2016

 ------------------
 #p CCSD(T)/cc-pVTZ
 ------------------

 -----------
 H2O_H2O_994
 -----------
 Symbolic Z-matrix:
 Charge =  0 Multiplicity = 1

                         Standard orientation:
 ---------------------------------------------------------------------
 Center     Atomic      Atomic             Coordinates (Angstroms)
 Number     Number       Type             X           Y           Z
 ---------------------------------------------------------------------
      1          8           0        0.054219   -1.280248    0.000000
      2          1           0       -0.747363   -1.848554    0.000000
      3          1           0        0.851769   -1.854199    0.000000
      4          8           0        0.054219    1.357375    0.000000
      5          1           0       -0.226268    2.299094    0.000000
      6          1           0       -0.745637    0.786641    0.000000
 ---------------------------------------------------------------------

 SCF Done:  E(RHF) =  -152.103135636     A.U. after   10 cycles
 E2 =    -0.5287839333D+00 EUMP2 =    -0.15263191956884D+03
 CCSD(T)
 CCSD(T)= -0.15265902339D+03

 The electronic state is 1-A'.
 Alpha  occ. eigenvalues --  -20.55716 -20.52836  -1.33249  -1.30127  -0.70651
 Alpha  occ. eigenvalues --   -0.68002  -0.56248  -0.53358  -0.50349  -0.47197
 Alpha virt. eigenvalues --    0.13425   0.17595   0.19788   0.24507   0.52434
 Alpha virt. eigenvalues --    0.56963   0.58659   0.59376   0.70828   0.74679
 Alpha virt. eigenvalues --    0.76085   0.81122   0.82532   0.82734   0.84518

 Mulliken charges:
               1
     1  O   -0.475368
     2  H    0.234879
     3  H    0.252829
     4  O   -0.490983
     5  H    0.222270
     6  H    0.256373
 Sum of Mulliken charges =  -0.00000

 Dipole moment (field-independent basis, Debye):
    X=             -1.7193    Y=             -1.5473    Z=              0.0000  Tot=              2.3130
 Quadrupole moment (field-independent basis, Debye-Ang):
   XX=             -9.6814   YY=             -3.7395   ZZ=            -14.7247
   XY=             -2.1617   XZ=              0.0000   YZ=              0.0000

 Normal termination of Gaussian 16 at Sat Aug 27 01:14:29 2022.
