 Gaussian 16, Revision A.03,
 Gaussian 16:  ES64L-G16RevA.03 25-Dec-2016

 ------------------
 #p CCSD(T)/cc-pVTZ
 ------------------

 ------------
 H2O_H2O_4508
 ------------
 Symbolic Z-matrix:
 Charge =  0 Multiplicity = 1

                         Standard orientation:
 ---------------------------------------------------------------------
 Center     Atomic      Atomic             Coordinates (Angstroms)
 Number     Number       Type             X           Y           Z
 ---------------------------------------------------------------------
      1          8           0        0.028562   -3.188575    0.000000
      2          1           0       -0.771448   -3.759092    0.000000
      3          1           0        0.827694   -3.760322    0.000000
      4          8           0        0.028562    3.203835    0.000000
      5          1           0        0.436134    4.097921    0.000000
      6          1           0       -0.949379    3.299416    0.000000
 ---------------------------------------------------------------------

 SCF Done:  E(RHF) =  -152.106950460     A.U. after   10 cycles
 E2 =    -0.5259183290D+00 EUMP2 =    -0.15263286878883D+03
 CCSD(T)
 CCSD(T)= -0.15266009871D+03

 The electronic state is 1-A'.
 Alpha  occ. eigenvalues --  -20.55278 -20.55192  -1.32575  -1.32488  -0.69982
 Alpha  occ. eigenvalues --   -0.69893  -0.56001  -0.55915  -0.49683  -0.49597
 Alpha virt. eigenvalues --    0.14358   0.14450   0.20411   0.20502   0.54586
 Alpha virt. eigenvalues --    0.54680   0.57464   0.57550   0.68217   0.68319
 Alpha virt. eigenvalues --    0.79196   0.79282   0.80637   0.80731   0.82564

 Mulliken charges:
               1
     1  O   -0.506171
     2  H    0.252459
     3  H    0.253712
     4  O   -0.506093
     5  H    0.252122
     6  H    0.253972
 Sum of Mulliken charges =  -0.00000

 Dipole moment (field-independent basis, Debye):
    X=             -0.9816    Y=             -0.2663    Z=              0.0000  Tot=              1.0170
 Quadrupole moment (field-independent basis, Debye-Ang):
   XX=             -8.3160   YY=             12.3208   ZZ=            -14.7109
   XY=             -2.3786   XZ=              0.0000   YZ=              0.0000

 Normal termination of Gaussian 16 at Sat Aug 27 07:43:09 2022.
