 Gaussian 16, Revision A.03,
 Gaussian 16:  ES64L-G16RevA.03 25-Dec-2016

 ------------------
 #p CCSD(T)/cc-pVTZ
 ------------------

 ------------
 H2O_H2O_2562
 ------------
 Symbolic Z-matrix:
 Charge =  0 Multiplicity = 1

                         Standard orientation:
 ---------------------------------------------------------------------
 Center     Atomic      Atomic             Coordinates (Angstroms)
 Number     Number       Type             X           Y           Z
 ---------------------------------------------------------------------
      1          8           0        0.040412   -2.141682    0.000000
      2          1           0       -0.760078   -2.711525    0.000000
      3          1           0        0.839062   -2.714101    0.000000
      4          8           0        0.040412    2.175008    0.000000
      5          1           0        0.203504    3.143979    0.000000
      6          1           0       -0.929081    2.015038    0.000000
 ---------------------------------------------------------------------

 SCF Done:  E(RHF) =  -152.106323434     A.U. after   10 cycles
 E2 =    -0.5261139892D+00 EUMP2 =    -0.15263243742273D+03
 CCSD(T)
 CCSD(T)= -0.15265966766D+03

 The electronic state is 1-A'.
 Alpha  occ. eigenvalues --  -20.55086 -20.54653  -1.32375  -1.31938  -0.69787
 Alpha  occ. eigenvalues --   -0.69334  -0.55770  -0.55321  -0.49479  -0.49046
 Alpha virt. eigenvalues --    0.13898   0.15441   0.20366   0.21199   0.54175
 Alpha virt. eigenvalues --    0.55215   0.57612   0.58015   0.65324   0.73049
 Alpha virt. eigenvalues --    0.79341   0.79877   0.80547   0.81473   0.82822

 Mulliken charges:
               1
     1  O   -0.501619
     2  H    0.248304
     3  H    0.253577
     4  O   -0.501330
     5  H    0.246785
     6  H    0.254282
 Sum of Mulliken charges =  -0.00000

 Dipole moment (field-independent basis, Debye):
    X=             -1.3723    Y=             -0.5979    Z=              0.0000  Tot=              1.4968
 Quadrupole moment (field-independent basis, Debye-Ang):
   XX=             -8.8403   YY=              3.6392   ZZ=            -14.7111
   XY=             -2.1748   XZ=              0.0000   YZ=              0.0000

 Normal termination of Gaussian 16 at Fri Aug 26 13:45:37 2022.
