 Gaussian 16, Revision A.03,
 Gaussian 16:  ES64L-G16RevA.03 25-Dec-2016

 ------------------
 #p CCSD(T)/cc-pVTZ
 ------------------

 ------------
 H2O_H2O_4774
 ------------
 Symbolic Z-matrix:
 Charge =  0 Multiplicity = 1

                         Standard orientation:
 ---------------------------------------------------------------------
 Center     Atomic      Atomic             Coordinates (Angstroms)
 Number     Number       Type             X           Y           Z
 ---------------------------------------------------------------------
      1          8           0        0.057198   -3.267880    0.000000
      2          1           0       -0.743217   -3.837829    0.000000
      3          1           0        0.855923   -3.840194    0.000000
      4          8           0        0.057198    3.381938    0.000000
      5          1           0       -0.512751    4.182353    0.000000
      6          1           0       -0.515116    2.583211    0.000000
 ---------------------------------------------------------------------

 SCF Done:  E(RHF) =  -152.107674121     A.U. after   10 cycles
 E2 =    -0.5258515990D+00 EUMP2 =    -0.15263352571989D+03
 CCSD(T)
 CCSD(T)= -0.15266074047D+03

 The electronic state is 1-A'.
 Alpha  occ. eigenvalues --  -20.55771 -20.55186  -1.33071  -1.32486  -0.70477
 Alpha  occ. eigenvalues --   -0.69886  -0.56530  -0.55940  -0.50185  -0.49601
 Alpha virt. eigenvalues --    0.13923   0.14515   0.20015   0.20637   0.54082
 Alpha virt. eigenvalues --    0.54683   0.57024   0.57608   0.67629   0.68252
 Alpha virt. eigenvalues --    0.78695   0.79270   0.80121   0.80732   0.82052

 Mulliken charges:
               1
     1  O   -0.510461
     2  H    0.254233
     3  H    0.256229
     4  O   -0.510134
     5  H    0.252814
     6  H    0.257319
 Sum of Mulliken charges =  -0.00000

 Dipole moment (field-independent basis, Debye):
    X=             -1.9674    Y=             -1.9899    Z=              0.0000  Tot=              2.7983
 Quadrupole moment (field-independent basis, Debye-Ang):
   XX=             -9.8647   YY=              3.1812   ZZ=            -14.7127
   XY=             -6.7964   XZ=              0.0000   YZ=              0.0000

 Normal termination of Gaussian 16 at Sat Aug 27 09:15:51 2022.
