 Gaussian 16, Revision A.03,
 Gaussian 16:  ES64L-G16RevA.03 25-Dec-2016

 ------------------
 #p CCSD(T)/cc-pVTZ
 ------------------

 ------------
 H2O_H2O_4530
 ------------
 Symbolic Z-matrix:
 Charge =  0 Multiplicity = 1

                         Standard orientation:
 ---------------------------------------------------------------------
 Center     Atomic      Atomic             Coordinates (Angstroms)
 Number     Number       Type             X           Y           Z
 ---------------------------------------------------------------------
      1          8           0        0.018360   -3.206876    0.000000
      2          1           0       -0.781492   -3.777614    0.000000
      3          1           0        0.817650   -3.778402    0.000000
      4          8           0        0.018360    3.212920    0.000000
      5          1           0        0.592307    4.010473    0.000000
      6          1           0       -0.922222    3.497192    0.000000
 ---------------------------------------------------------------------

 SCF Done:  E(RHF) =  -152.106889193     A.U. after   10 cycles
 E2 =    -0.5259230860D+00 EUMP2 =    -0.15263281227942D+03
 CCSD(T)
 CCSD(T)= -0.15266004354D+03

 The electronic state is 1-A'.
 Alpha  occ. eigenvalues --  -20.55233 -20.55200  -1.32529  -1.32496  -0.69936
 Alpha  occ. eigenvalues --   -0.69902  -0.55953  -0.55919  -0.49637  -0.49603
 Alpha virt. eigenvalues --    0.14397   0.14438   0.20448   0.20485   0.54632
 Alpha virt. eigenvalues --    0.54669   0.57504   0.57538   0.68267   0.68322
 Alpha virt. eigenvalues --    0.79242   0.79275   0.80684   0.80721   0.82611

 Mulliken charges:
               1
     1  O   -0.505805
     2  H    0.252505
     3  H    0.253300
     4  O   -0.505772
     5  H    0.252317
     6  H    0.253455
 Sum of Mulliken charges =  -0.00000

 Dipole moment (field-independent basis, Debye):
    X=             -0.6309    Y=             -0.1054    Z=              0.0000  Tot=              0.6397
 Quadrupole moment (field-independent basis, Debye-Ang):
   XX=             -8.0146   YY=             13.1697   ZZ=            -14.7108
   XY=             -1.4841   XZ=              0.0000   YZ=              0.0000

 Normal termination of Gaussian 16 at Sat Aug 27 07:50:47 2022.
