 Gaussian 16, Revision A.03,
 Gaussian 16:  ES64L-G16RevA.03 25-Dec-2016

 ------------------
 #p CCSD(T)/cc-pVTZ
 ------------------

 ------------
 H2O_H2O_4954
 ------------
 Symbolic Z-matrix:
 Charge =  0 Multiplicity = 1

                         Standard orientation:
 ---------------------------------------------------------------------
 Center     Atomic      Atomic             Coordinates (Angstroms)
 Number     Number       Type             X           Y           Z
 ---------------------------------------------------------------------
      1          8           0        0.014783   -3.434081    0.000000
      2          1           0       -0.785000   -4.004917    0.000000
      3          1           0        0.814142   -4.005509    0.000000
      4          8           0        0.014783    3.437962    0.000000
      5          1           0        0.639571    4.196347    0.000000
      6          1           0       -0.905237    3.783030    0.000000
 ---------------------------------------------------------------------

 SCF Done:  E(RHF) =  -152.106986572     A.U. after   10 cycles
 E2 =    -0.5259105483D+00 EUMP2 =    -0.15263289712023D+03
 CCSD(T)
 CCSD(T)= -0.15266012656D+03

 The electronic state is 1-A'.
 Alpha  occ. eigenvalues --  -20.55277 -20.55258  -1.32574  -1.32555  -0.69980
 Alpha  occ. eigenvalues --   -0.69961  -0.56002  -0.55983  -0.49682  -0.49663
 Alpha virt. eigenvalues --    0.14365   0.14385   0.20418   0.20438   0.54587
 Alpha virt. eigenvalues --    0.54608   0.57468   0.57487   0.68220   0.68241
 Alpha virt. eigenvalues --    0.79197   0.79216   0.80638   0.80659   0.82563

 Mulliken charges:
               1
     1  O   -0.506377
     2  H    0.252925
     3  H    0.253452
     4  O   -0.506362
     5  H    0.252800
     6  H    0.253562
 Sum of Mulliken charges =  -0.00000

 Dipole moment (field-independent basis, Debye):
    X=             -0.5085    Y=             -0.0676    Z=              0.0000  Tot=              0.5129
 Quadrupole moment (field-independent basis, Debye-Ang):
   XX=             -7.9382   YY=             15.1166   ZZ=            -14.7109
   XY=             -1.2990   XZ=              0.0000   YZ=              0.0000

 Normal termination of Gaussian 16 at Sat Aug 27 10:19:01 2022.
