 Gaussian 16, Revision A.03,
 Gaussian 16:  ES64L-G16RevA.03 25-Dec-2016

 ------------------
 #p CCSD(T)/cc-pVTZ
 ------------------

 ------------
 H2O_H2O_2634
 ------------
 Symbolic Z-matrix:
 Charge =  0 Multiplicity = 1

                         Standard orientation:
 ---------------------------------------------------------------------
 Center     Atomic      Atomic             Coordinates (Angstroms)
 Number     Number       Type             X           Y           Z
 ---------------------------------------------------------------------
      1          8           0        0.031742   -2.189256    0.000000
      2          1           0       -0.768538   -2.759395    0.000000
      3          1           0        0.830603   -2.761381    0.000000
      4          8           0        0.031742    2.208428    0.000000
      5          1           0        0.380399    3.127093    0.000000
      6          1           0       -0.950342    2.240309    0.000000
 ---------------------------------------------------------------------

 SCF Done:  E(RHF) =  -152.106037415     A.U. after   10 cycles
 E2 =    -0.5261093192D+00 EUMP2 =    -0.15263214673440D+03
 CCSD(T)
 CCSD(T)= -0.15265938646D+03

 The electronic state is 1-A'.
 Alpha  occ. eigenvalues --  -20.54941 -20.54705  -1.32231  -1.31992  -0.69643
 Alpha  occ. eigenvalues --   -0.69395  -0.55620  -0.55355  -0.49333  -0.49096
 Alpha virt. eigenvalues --    0.14106   0.15316   0.20483   0.21034   0.54449
 Alpha virt. eigenvalues --    0.55350   0.57710   0.57975   0.65351   0.72494
 Alpha virt. eigenvalues --    0.79482   0.79833   0.80865   0.81262   0.82472

 Mulliken charges:
               1
     1  O   -0.500439
     2  H    0.248294
     3  H    0.252242
     4  O   -0.500041
     5  H    0.247342
     6  H    0.252602
 Sum of Mulliken charges =  -0.00000

 Dipole moment (field-independent basis, Debye):
    X=             -1.0789    Y=             -0.3426    Z=              0.0000  Tot=              1.1320
 Quadrupole moment (field-independent basis, Debye-Ang):
   XX=             -8.4508   YY=              4.6282   ZZ=            -14.7103
   XY=             -1.6104   XZ=              0.0000   YZ=              0.0000

 Normal termination of Gaussian 16 at Fri Aug 26 14:33:58 2022.
