 Gaussian 16, Revision A.03,
 Gaussian 16:  ES64L-G16RevA.03 25-Dec-2016

 ------------------
 #p CCSD(T)/cc-pVTZ
 ------------------

 ------------
 H2O_H2O_2371
 ------------
 Symbolic Z-matrix:
 Charge =  0 Multiplicity = 1

                         Standard orientation:
 ---------------------------------------------------------------------
 Center     Atomic      Atomic             Coordinates (Angstroms)
 Number     Number       Type             X           Y           Z
 ---------------------------------------------------------------------
      1          8           0        0.056124   -2.003624    0.000000
      2          1           0       -0.744789   -2.572873    0.000000
      3          1           0        0.854349   -2.576635    0.000000
      4          8           0        0.056124    2.095302    0.000000
      5          1           0       -0.345937    2.991880    0.000000
      6          1           0       -0.661604    1.424204    0.000000
 ---------------------------------------------------------------------

 SCF Done:  E(RHF) =  -152.108095215     A.U. after   10 cycles
 E2 =    -0.5261306423D+00 EUMP2 =    -0.15263422585746D+03
 CCSD(T)
 CCSD(T)= -0.15266140137D+03

 The electronic state is 1-A'.
 Alpha  occ. eigenvalues --  -20.55852 -20.54412  -1.33130  -1.31706  -0.70538
 Alpha  occ. eigenvalues --   -0.69079  -0.56586  -0.55161  -0.50247  -0.48830
 Alpha virt. eigenvalues --    0.13128   0.15900   0.19922   0.22361   0.54094
 Alpha virt. eigenvalues --    0.54593   0.57022   0.58457   0.66051   0.73484
 Alpha virt. eigenvalues --    0.78576   0.79356   0.80075   0.81573   0.82451

 Mulliken charges:
               1
     1  O   -0.505731
     2  H    0.250171
     3  H    0.257898
     4  O   -0.510481
     5  H    0.246680
     6  H    0.261463
 Sum of Mulliken charges =  -0.00000

 Dipole moment (field-independent basis, Debye):
    X=             -1.9001    Y=             -1.6730    Z=              0.0000  Tot=              2.5317
 Quadrupole moment (field-independent basis, Debye-Ang):
   XX=             -9.7824   YY=             -0.3787   ZZ=            -14.7158
   XY=             -3.8435   XZ=              0.0000   YZ=              0.0000

 Normal termination of Gaussian 16 at Sat Aug 27 10:11:23 2022.
