 Gaussian 16, Revision A.03,
 Gaussian 16:  ES64L-G16RevA.03 25-Dec-2016

 ------------------
 #p CCSD(T)/cc-pVTZ
 ------------------

 ------------
 H2O_H2O_4767
 ------------
 Symbolic Z-matrix:
 Charge =  0 Multiplicity = 1

                         Standard orientation:
 ---------------------------------------------------------------------
 Center     Atomic      Atomic             Coordinates (Angstroms)
 Number     Number       Type             X           Y           Z
 ---------------------------------------------------------------------
      1          8           0        0.051265   -3.295298    0.000000
      2          1           0       -0.749062   -3.865370    0.000000
      3          1           0        0.850079   -3.867489    0.000000
      4          8           0        0.051265    3.358868    0.000000
      5          1           0       -0.106040    4.328796    0.000000
      6          1           0       -0.815223    2.895507    0.000000
 ---------------------------------------------------------------------

 SCF Done:  E(RHF) =  -152.107338094     A.U. after   10 cycles
 E2 =    -0.5258822703D+00 EUMP2 =    -0.15263322036425D+03
 CCSD(T)
 CCSD(T)= -0.15266044215D+03

 The electronic state is 1-A'.
 Alpha  occ. eigenvalues --  -20.55539 -20.55209  -1.32838  -1.32506  -0.70244
 Alpha  occ. eigenvalues --   -0.69908  -0.56282  -0.55949  -0.49949  -0.49619
 Alpha virt. eigenvalues --    0.14130   0.14463   0.20202   0.20551   0.54318
 Alpha virt. eigenvalues --    0.54666   0.57231   0.57562   0.67910   0.68253
 Alpha virt. eigenvalues --    0.78930   0.79257   0.80363   0.80716   0.82288

 Mulliken charges:
               1
     1  O   -0.508470
     2  H    0.253258
     3  H    0.255212
     4  O   -0.508278
     5  H    0.252392
     6  H    0.255886
 Sum of Mulliken charges =  -0.00000

 Dipole moment (field-independent basis, Debye):
    X=             -1.7632    Y=             -1.1087    Z=              0.0000  Tot=              2.0828
 Quadrupole moment (field-independent basis, Debye-Ang):
   XX=             -9.4579   YY=              8.7427   ZZ=            -14.7118
   XY=             -5.2799   XZ=              0.0000   YZ=              0.0000

 Normal termination of Gaussian 16 at Sat Aug 27 09:13:35 2022.
