 Gaussian 16, Revision A.03,
 Gaussian 16:  ES64L-G16RevA.03 25-Dec-2016

 ------------------
 #p CCSD(T)/cc-pVTZ
 ------------------

 ------------
 H2O_H2O_4724
 ------------
 Symbolic Z-matrix:
 Charge =  0 Multiplicity = 1

                         Standard orientation:
 ---------------------------------------------------------------------
 Center     Atomic      Atomic             Coordinates (Angstroms)
 Number     Number       Type             X           Y           Z
 ---------------------------------------------------------------------
      1          8           0        0.057198   -3.241289    0.000000
      2          1           0       -0.743223   -3.811229    0.000000
      3          1           0        0.855917   -3.813612    0.000000
      4          8           0        0.057198    3.355345    0.000000
      5          1           0       -0.512741    4.155767    0.000000
      6          1           0       -0.515125    2.556625    0.000000
 ---------------------------------------------------------------------

 SCF Done:  E(RHF) =  -152.107679695     A.U. after   10 cycles
 E2 =    -0.5258517170D+00 EUMP2 =    -0.15263353141187D+03
 CCSD(T)
 CCSD(T)= -0.15266074600D+03

 The electronic state is 1-A'.
 Alpha  occ. eigenvalues --  -20.55773 -20.55178  -1.33073  -1.32478  -0.70479
 Alpha  occ. eigenvalues --   -0.69878  -0.56533  -0.55932  -0.50187  -0.49593
 Alpha virt. eigenvalues --    0.13919   0.14524   0.20014   0.20647   0.54079
 Alpha virt. eigenvalues --    0.54691   0.57022   0.57616   0.67623   0.68263
 Alpha virt. eigenvalues --    0.78693   0.79278   0.80119   0.80739   0.82053

 Mulliken charges:
               1
     1  O   -0.510496
     2  H    0.254226
     3  H    0.256270
     4  O   -0.510157
     5  H    0.252771
     6  H    0.257385
 Sum of Mulliken charges =   0.00000

 Dipole moment (field-independent basis, Debye):
    X=             -1.9672    Y=             -1.9904    Z=              0.0000  Tot=              2.7985
 Quadrupole moment (field-independent basis, Debye-Ang):
   XX=             -9.8647   YY=              3.0752   ZZ=            -14.7127
   XY=             -6.7443   XZ=              0.0000   YZ=              0.0000

 Normal termination of Gaussian 16 at Sat Aug 27 08:58:11 2022.
