 Gaussian 16, Revision A.03,
 Gaussian 16:  ES64L-G16RevA.03 25-Dec-2016

 ------------------
 #p CCSD(T)/cc-pVTZ
 ------------------

 -----------
 H2O_H2O_637
 -----------
 Symbolic Z-matrix:
 Charge =  0 Multiplicity = 1

                         Standard orientation:
 ---------------------------------------------------------------------
 Center     Atomic      Atomic             Coordinates (Angstroms)
 Number     Number       Type             X           Y           Z
 ---------------------------------------------------------------------
      1          8           0        0.040436   -1.117958    0.000000
      2          1           0       -0.760881   -1.686637    0.000000
      3          1           0        0.838253   -1.691537    0.000000
      4          8           0        0.040436    1.151166    0.000000
      5          1           0        0.204936    2.119901    0.000000
      6          1           0       -0.929288    0.992606    0.000000
 ---------------------------------------------------------------------

 SCF Done:  E(RHF) =  -152.085604401     A.U. after   11 cycles
 E2 =    -0.5310711756D+00 EUMP2 =    -0.15261667557637D+03
 CCSD(T)
 CCSD(T)= -0.15264381193D+03

 The electronic state is 1-A'.
 Alpha  occ. eigenvalues --  -20.53712 -20.52557  -1.32005  -1.29643  -0.69261
 Alpha  occ. eigenvalues --   -0.67698  -0.57394  -0.49496  -0.49217  -0.46420
 Alpha virt. eigenvalues --    0.14166   0.17706   0.20233   0.23342   0.53096
 Alpha virt. eigenvalues --    0.57881   0.58216   0.62090   0.70938   0.75889
 Alpha virt. eigenvalues --    0.78406   0.80915   0.83508   0.85703   0.87678

 Mulliken charges:
               1
     1  O   -0.460325
     2  H    0.221060
     3  H    0.239654
     4  O   -0.439643
     5  H    0.198058
     6  H    0.241196
 Sum of Mulliken charges =   0.00000

 Dipole moment (field-independent basis, Debye):
    X=             -1.2258    Y=             -0.6585    Z=              0.0000  Tot=              1.3915
 Quadrupole moment (field-independent basis, Debye-Ang):
   XX=             -8.9847   YY=             -4.2953   ZZ=            -14.7279
   XY=             -0.8281   XZ=              0.0000   YZ=              0.0000

 Normal termination of Gaussian 16 at Fri Aug 26 18:33:32 2022.
