 Gaussian 16, Revision A.03,
 Gaussian 16:  ES64L-G16RevA.03 25-Dec-2016

 ------------------
 #p CCSD(T)/cc-pVTZ
 ------------------

 ------------
 H2O_H2O_4763
 ------------
 Symbolic Z-matrix:
 Charge =  0 Multiplicity = 1

                         Standard orientation:
 ---------------------------------------------------------------------
 Center     Atomic      Atomic             Coordinates (Angstroms)
 Number     Number       Type             X           Y           Z
 ---------------------------------------------------------------------
      1          8           0        0.042962   -3.308741    0.000000
      2          1           0       -0.757243   -3.878984    0.000000
      3          1           0        0.841898   -3.880761    0.000000
      4          8           0        0.042962    3.347557    0.000000
      5          1           0        0.141841    4.325171    0.000000
      6          1           0       -0.913881    3.124044    0.000000
 ---------------------------------------------------------------------

 SCF Done:  E(RHF) =  -152.107169965     A.U. after   10 cycles
 E2 =    -0.5258968825D+00 EUMP2 =    -0.15263306684728D+03
 CCSD(T)
 CCSD(T)= -0.15266029223D+03

 The electronic state is 1-A'.
 Alpha  occ. eigenvalues --  -20.55421 -20.55219  -1.32719  -1.32516  -0.70125
 Alpha  occ. eigenvalues --   -0.69919  -0.56155  -0.55952  -0.49829  -0.49627
 Alpha virt. eigenvalues --    0.14235   0.14438   0.20298   0.20510   0.54440
 Alpha virt. eigenvalues --    0.54654   0.57337   0.57539   0.68052   0.68259
 Alpha virt. eigenvalues --    0.79051   0.79250   0.80487   0.80704   0.82412

 Mulliken charges:
               1
     1  O   -0.507471
     2  H    0.252903
     3  H    0.254568
     4  O   -0.507336
     5  H    0.252315
     6  H    0.255021
 Sum of Mulliken charges =  -0.00000

 Dipole moment (field-independent basis, Debye):
    X=             -1.4774    Y=             -0.6767    Z=              0.0000  Tot=              1.6250
 Quadrupole moment (field-independent basis, Debye-Ang):
   XX=             -8.9643   YY=             11.1759   ZZ=            -14.7114
   XY=             -4.0907   XZ=              0.0000   YZ=              0.0000

 Normal termination of Gaussian 16 at Sat Aug 27 09:12:19 2022.
