 Gaussian 16, Revision A.03,
 Gaussian 16:  ES64L-G16RevA.03 25-Dec-2016

 ------------------
 #p CCSD(T)/cc-pVTZ
 ------------------

 ------------
 H2O_H2O_2038
 ------------
 Symbolic Z-matrix:
 Charge =  0 Multiplicity = 1

                         Standard orientation:
 ---------------------------------------------------------------------
 Center     Atomic      Atomic             Coordinates (Angstroms)
 Number     Number       Type             X           Y           Z
 ---------------------------------------------------------------------
      1          8           0        0.042978   -1.859525    0.000000
      2          1           0       -0.757715   -2.429083    0.000000
      3          1           0        0.841424   -2.432229    0.000000
      4          8           0        0.042978    1.898267    0.000000
      5          1           0        0.142696    2.875796    0.000000
      6          1           0       -0.914056    1.675574    0.000000
 ---------------------------------------------------------------------

 SCF Done:  E(RHF) =  -152.106064589     A.U. after   10 cycles
 E2 =    -0.5263866484D+00 EUMP2 =    -0.15263245123761D+03
 CCSD(T)
 CCSD(T)= -0.15265966476D+03

 The electronic state is 1-A'.
 Alpha  occ. eigenvalues --  -20.55046 -20.54355  -1.32324  -1.31628  -0.69741
 Alpha  occ. eigenvalues --   -0.69017  -0.55733  -0.54939  -0.49430  -0.48737
 Alpha virt. eigenvalues --    0.13711   0.15997   0.20288   0.21752   0.53366
 Alpha virt. eigenvalues --    0.55189   0.57653   0.58387   0.63856   0.75999
 Alpha virt. eigenvalues --    0.78999   0.79285   0.80529   0.80922   0.83988

 Mulliken charges:
               1
     1  O   -0.495893
     2  H    0.244566
     3  H    0.252460
     4  O   -0.497177
     5  H    0.242368
     6  H    0.253675
 Sum of Mulliken charges =  -0.00000

 Dipole moment (field-independent basis, Debye):
    X=             -1.4440    Y=             -0.7116    Z=              0.0000  Tot=              1.6098
 Quadrupole moment (field-independent basis, Debye-Ang):
   XX=             -8.9830   YY=              1.4513   ZZ=            -14.7121
   XY=             -1.9832   XZ=              0.0000   YZ=              0.0000

 Normal termination of Gaussian 16 at Sat Aug 27 08:14:23 2022.
