 Gaussian 16, Revision A.03,
 Gaussian 16:  ES64L-G16RevA.03 25-Dec-2016

 ------------------
 #p CCSD(T)/cc-pVTZ
 ------------------

 ------------
 H2O_H2O_2631
 ------------
 Symbolic Z-matrix:
 Charge =  0 Multiplicity = 1

                         Standard orientation:
 ---------------------------------------------------------------------
 Center     Atomic      Atomic             Coordinates (Angstroms)
 Number     Number       Type             X           Y           Z
 ---------------------------------------------------------------------
      1          8           0        0.021860   -2.194967    0.000000
      2          1           0       -0.778199   -2.765415    0.000000
      3          1           0        0.820942   -2.766783    0.000000
      4          8           0        0.021860    2.203625    0.000000
      5          1           0        0.542718    3.036819    0.000000
      6          1           0       -0.935220    2.426118    0.000000
 ---------------------------------------------------------------------

 SCF Done:  E(RHF) =  -152.105798459     A.U. after   10 cycles
 E2 =    -0.5261238989D+00 EUMP2 =    -0.15263192235789D+03
 CCSD(T)
 CCSD(T)= -0.15265916794D+03

 The electronic state is 1-A'.
 Alpha  occ. eigenvalues --  -20.54823 -20.54718  -1.32112  -1.32006  -0.69525
 Alpha  occ. eigenvalues --   -0.69414  -0.55509  -0.55337  -0.49213  -0.49106
 Alpha virt. eigenvalues --    0.14228   0.15279   0.20569   0.20965   0.54606
 Alpha virt. eigenvalues --    0.55463   0.57784   0.57975   0.65124   0.72498
 Alpha virt. eigenvalues --    0.79570   0.79853   0.81073   0.81181   0.82261

 Mulliken charges:
               1
     1  O   -0.499131
     2  H    0.248229
     3  H    0.250940
     4  O   -0.498884
     5  H    0.247706
     6  H    0.251140
 Sum of Mulliken charges =  -0.00000

 Dipole moment (field-independent basis, Debye):
    X=             -0.7430    Y=             -0.1546    Z=              0.0000  Tot=              0.7589
 Quadrupole moment (field-independent basis, Debye-Ang):
   XX=             -8.1219   YY=              5.1166   ZZ=            -14.7098
   XY=             -1.0373   XZ=              0.0000   YZ=              0.0000

 Normal termination of Gaussian 16 at Fri Aug 26 14:31:57 2022.
