 Gaussian 16, Revision A.03,
 Gaussian 16:  ES64L-G16RevA.03 25-Dec-2016

 ------------------
 #p CCSD(T)/cc-pVTZ
 ------------------

 -----------
 H2O_H2O_194
 -----------
 Symbolic Z-matrix:
 Charge =  0 Multiplicity = 1

                         Standard orientation:
 ---------------------------------------------------------------------
 Center     Atomic      Atomic             Coordinates (Angstroms)
 Number     Number       Type             X           Y           Z
 ---------------------------------------------------------------------
      1          8           0        0.054283   -0.854874    0.000000
      2          1           0       -0.748253   -1.421831    0.000000
      3          1           0        0.850867   -1.430165    0.000000
      4          8           0        0.054283    0.931819    0.000000
      5          1           0       -0.224619    1.874008    0.000000
      6          1           0       -0.746531    0.362430    0.000000
 ---------------------------------------------------------------------

 SCF Done:  E(RHF) =  -151.988779045     A.U. after   11 cycles
 E2 =    -0.5438103681D+00 EUMP2 =    -0.15253258941353D+03
 CCSD(T)
 CCSD(T)= -0.15255828705D+03

 The electronic state is 1-A'.
 Alpha  occ. eigenvalues --  -20.54739 -20.49959  -1.37798  -1.26893  -0.75291
 Alpha  occ. eigenvalues --   -0.70719  -0.53667  -0.53213  -0.44693  -0.43837
 Alpha virt. eigenvalues --    0.13421   0.18936   0.19639   0.25204   0.50792
 Alpha virt. eigenvalues --    0.55343   0.61254   0.66460   0.72969   0.76391
 Alpha virt. eigenvalues --    0.79887   0.80523   0.84054   0.84811   0.88467

 Mulliken charges:
               1
     1  O   -0.348564
     2  H    0.171984
     3  H    0.215267
     4  O   -0.433528
     5  H    0.143467
     6  H    0.251374
 Sum of Mulliken charges =  -0.00000

 Dipole moment (field-independent basis, Debye):
    X=             -1.4724    Y=             -1.7737    Z=              0.0000  Tot=              2.3052
 Quadrupole moment (field-independent basis, Debye-Ang):
   XX=             -9.7359   YY=             -7.7778   ZZ=            -14.6161
   XY=             -1.3379   XZ=              0.0000   YZ=              0.0000

 Normal termination of Gaussian 16 at Fri Aug 26 13:51:41 2022.
