 Gaussian 16, Revision A.03,
 Gaussian 16:  ES64L-G16RevA.03 25-Dec-2016

 ------------------
 #p CCSD(T)/cc-pVTZ
 ------------------

 ------------
 H2O_H2O_4390
 ------------
 Symbolic Z-matrix:
 Charge =  0 Multiplicity = 1

                         Standard orientation:
 ---------------------------------------------------------------------
 Center     Atomic      Atomic             Coordinates (Angstroms)
 Number     Number       Type             X           Y           Z
 ---------------------------------------------------------------------
      1          8           0        0.047521   -3.102880    0.000000
      2          1           0       -0.752796   -3.672967    0.000000
      3          1           0        0.846345   -3.675056    0.000000
      4          8           0        0.047521    3.153521    0.000000
      5          1           0        0.018144    4.135684    0.000000
      6          1           0       -0.872029    2.807208    0.000000
 ---------------------------------------------------------------------

 SCF Done:  E(RHF) =  -152.107203346     A.U. after   10 cycles
 E2 =    -0.5258988560D+00 EUMP2 =    -0.15263310220233D+03
 CCSD(T)
 CCSD(T)= -0.15266032656D+03

 The electronic state is 1-A'.
 Alpha  occ. eigenvalues --  -20.55456 -20.55156  -1.32753  -1.32452  -0.70160
 Alpha  occ. eigenvalues --   -0.69854  -0.56191  -0.55890  -0.49863  -0.49563
 Alpha virt. eigenvalues --    0.14196   0.14510   0.20266   0.20587   0.54403
 Alpha virt. eigenvalues --    0.54723   0.57304   0.57605   0.67997   0.68337
 Alpha virt. eigenvalues --    0.79016   0.79312   0.80451   0.80773   0.82380

 Mulliken charges:
               1
     1  O   -0.507680
     2  H    0.252744
     3  H    0.254936
     4  O   -0.507470
     5  H    0.251890
     6  H    0.255580
 Sum of Mulliken charges =  -0.00000

 Dipole moment (field-independent basis, Debye):
    X=             -1.6329    Y=             -0.8848    Z=              0.0000  Tot=              1.8572
 Quadrupole moment (field-independent basis, Debye-Ang):
   XX=             -9.2244   YY=              8.7971   ZZ=            -14.7116
   XY=             -4.3776   XZ=              0.0000   YZ=              0.0000

 Normal termination of Gaussian 16 at Sat Aug 27 07:03:36 2022.
