 Gaussian 16, Revision A.03,
 Gaussian 16:  ES64L-G16RevA.03 25-Dec-2016

 ------------------
 #p CCSD(T)/cc-pVTZ
 ------------------

 ------------
 H2O_H2O_1789
 ------------
 Symbolic Z-matrix:
 Charge =  0 Multiplicity = 1

                         Standard orientation:
 ---------------------------------------------------------------------
 Center     Atomic      Atomic             Coordinates (Angstroms)
 Number     Number       Type             X           Y           Z
 ---------------------------------------------------------------------
      1          8           0        0.045361   -1.723446    0.000000
      2          1           0       -0.755484   -2.292790    0.000000
      3          1           0        0.843654   -2.296363    0.000000
      4          8           0        0.045361    1.767933    0.000000
      5          1           0        0.081194    2.749881    0.000000
      6          1           0       -0.895135    1.483374    0.000000
 ---------------------------------------------------------------------

 SCF Done:  E(RHF) =  -152.105964289     A.U. after   10 cycles
 E2 =    -0.5266130260D+00 EUMP2 =    -0.15263257731487D+03
 CCSD(T)
 CCSD(T)= -0.15265978064D+03

 The electronic state is 1-A'.
 Alpha  occ. eigenvalues --  -20.55081 -20.54155  -1.32358  -1.31420  -0.69779
 Alpha  occ. eigenvalues --   -0.68804  -0.55796  -0.54676  -0.49467  -0.48528
 Alpha virt. eigenvalues --    0.13688   0.16295   0.20217   0.22177   0.53514
 Alpha virt. eigenvalues --    0.55125   0.57618   0.58575   0.64110   0.76750
 Alpha virt. eigenvalues --    0.78485   0.78511   0.79774   0.81077   0.85199

 Mulliken charges:
               1
     1  O   -0.491768
     2  H    0.242016
     3  H    0.251833
     4  O   -0.494469
     5  H    0.239004
     6  H    0.253383
 Sum of Mulliken charges =  -0.00000

 Dipole moment (field-independent basis, Debye):
    X=             -1.5118    Y=             -0.8287    Z=              0.0000  Tot=              1.7240
 Quadrupole moment (field-independent basis, Debye-Ang):
   XX=             -9.1203   YY=              0.3001   ZZ=            -14.7133
   XY=             -1.9735   XZ=              0.0000   YZ=              0.0000

 Normal termination of Gaussian 16 at Sat Aug 27 06:47:53 2022.
