 Gaussian 16, Revision A.03,
 Gaussian 16:  ES64L-G16RevA.03 25-Dec-2016

 ------------------
 #p CCSD(T)/cc-pVTZ
 ------------------

 ------------
 H2O_H2O_2315
 ------------
 Symbolic Z-matrix:
 Charge =  0 Multiplicity = 1

                         Standard orientation:
 ---------------------------------------------------------------------
 Center     Atomic      Atomic             Coordinates (Angstroms)
 Number     Number       Type             X           Y           Z
 ---------------------------------------------------------------------
      1          8           0        0.047539   -1.999355    0.000000
      2          1           0       -0.753184   -2.568871    0.000000
      3          1           0        0.845955   -2.572100    0.000000
      4          8           0        0.047539    2.049928    0.000000
      5          1           0        0.018861    3.032111    0.000000
      6          1           0       -0.872258    1.704270    0.000000
 ---------------------------------------------------------------------

 SCF Done:  E(RHF) =  -152.106684675     A.U. after   10 cycles
 E2 =    -0.5261956644D+00 EUMP2 =    -0.15263288033902D+03
 CCSD(T)
 CCSD(T)= -0.15266009129D+03

 The electronic state is 1-A'.
 Alpha  occ. eigenvalues --  -20.55270 -20.54493  -1.32553  -1.31775  -0.69966
 Alpha  occ. eigenvalues --   -0.69160  -0.55956  -0.55169  -0.49661  -0.48887
 Alpha virt. eigenvalues --    0.13590   0.15764   0.20215   0.21642   0.53754
 Alpha virt. eigenvalues --    0.54931   0.57481   0.58234   0.64915   0.74689
 Alpha virt. eigenvalues --    0.79086   0.79812   0.80101   0.81640   0.83685

 Mulliken charges:
               1
     1  O   -0.501311
     2  H    0.247516
     3  H    0.254731
     4  O   -0.502432
     5  H    0.245216
     6  H    0.256280
 Sum of Mulliken charges =  -0.00000

 Dipole moment (field-independent basis, Debye):
    X=             -1.6074    Y=             -0.9183    Z=              0.0000  Tot=              1.8512
 Quadrupole moment (field-independent basis, Debye-Ang):
   XX=             -9.2322   YY=              1.8689   ZZ=            -14.7125
   XY=             -2.6023   XZ=              0.0000   YZ=              0.0000

 Normal termination of Gaussian 16 at Sat Aug 27 09:49:28 2022.
