 Gaussian 16, Revision A.03,
 Gaussian 16:  ES64L-G16RevA.03 25-Dec-2016

 ------------------
 #p CCSD(T)/cc-pVTZ
 ------------------

 ------------
 H2O_H2O_3487
 ------------
 Symbolic Z-matrix:
 Charge =  0 Multiplicity = 1

                         Standard orientation:
 ---------------------------------------------------------------------
 Center     Atomic      Atomic             Coordinates (Angstroms)
 Number     Number       Type             X           Y           Z
 ---------------------------------------------------------------------
      1          8           0        0.040407   -2.633618    0.000000
      2          1           0       -0.759912   -3.203700    0.000000
      3          1           0        0.839228   -3.205798    0.000000
      4          8           0        0.040407    2.666968    0.000000
      5          1           0        0.203209    3.635988    0.000000
      6          1           0       -0.929038    2.506708    0.000000
 ---------------------------------------------------------------------

 SCF Done:  E(RHF) =  -152.106797670     A.U. after   10 cycles
 E2 =    -0.5259574647D+00 EUMP2 =    -0.15263275513446D+03
 CCSD(T)
 CCSD(T)= -0.15265998663D+03

 The electronic state is 1-A'.
 Alpha  occ. eigenvalues --  -20.55253 -20.54975  -1.32548  -1.32268  -0.69957
 Alpha  occ. eigenvalues --   -0.69669  -0.55967  -0.55688  -0.49655  -0.49377
 Alpha virt. eigenvalues --    0.14247   0.14759   0.20385   0.20745   0.54583
 Alpha virt. eigenvalues --    0.54922   0.57473   0.57754   0.67807   0.69061
 Alpha virt. eigenvalues --    0.79223   0.79497   0.80653   0.80960   0.82659

 Mulliken charges:
               1
     1  O   -0.505303
     2  H    0.251148
     3  H    0.254166
     4  O   -0.504976
     5  H    0.250194
     6  H    0.254772
 Sum of Mulliken charges =  -0.00000

 Dipole moment (field-independent basis, Debye):
    X=             -1.3835    Y=             -0.5868    Z=              0.0000  Tot=              1.5028
 Quadrupole moment (field-independent basis, Debye-Ang):
   XX=             -8.8330   YY=              7.0427   ZZ=            -14.7110
   XY=             -2.8453   XZ=              0.0000   YZ=              0.0000

 Normal termination of Gaussian 16 at Fri Aug 26 22:44:38 2022.
