 Gaussian 16, Revision A.03,
 Gaussian 16:  ES64L-G16RevA.03 25-Dec-2016

 ------------------
 #p CCSD(T)/cc-pVTZ
 ------------------

 -----------
 H2O_H2O_995
 -----------
 Symbolic Z-matrix:
 Charge =  0 Multiplicity = 1

                         Standard orientation:
 ---------------------------------------------------------------------
 Center     Atomic      Atomic             Coordinates (Angstroms)
 Number     Number       Type             X           Y           Z
 ---------------------------------------------------------------------
      1          8           0        0.055319   -1.276372    0.000000
      2          1           0       -0.746304   -1.844620    0.000000
      3          1           0        0.852828   -1.850380    0.000000
      4          8           0        0.055319    1.360636    0.000000
      5          1           0       -0.286091    2.282018    0.000000
      6          1           0       -0.705540    0.738866    0.000000
 ---------------------------------------------------------------------

 SCF Done:  E(RHF) =  -152.103683482     A.U. after   10 cycles
 E2 =    -0.5288800425D+00 EUMP2 =    -0.15263256352448D+03
 CCSD(T)
 CCSD(T)= -0.15265963666D+03

 The electronic state is 1-A'.
 Alpha  occ. eigenvalues --  -20.55974 -20.52714  -1.33522  -1.30033  -0.70916
 Alpha  occ. eigenvalues --   -0.68012  -0.56341  -0.53412  -0.50610  -0.47111
 Alpha virt. eigenvalues --    0.13315   0.17688   0.19702   0.24896   0.52082
 Alpha virt. eigenvalues --    0.56762   0.58679   0.59693   0.70905   0.74413
 Alpha virt. eigenvalues --    0.75814   0.81300   0.82692   0.83293   0.84313

 Mulliken charges:
               1
     1  O   -0.475212
     2  H    0.235982
     3  H    0.253701
     4  O   -0.496831
     5  H    0.223312
     6  H    0.259049
 Sum of Mulliken charges =  -0.00000

 Dipole moment (field-independent basis, Debye):
    X=             -1.7549    Y=             -1.7054    Z=              0.0000  Tot=              2.4470
 Quadrupole moment (field-independent basis, Debye-Ang):
   XX=             -9.7469   YY=             -3.9882   ZZ=            -14.7247
   XY=             -2.3292   XZ=              0.0000   YZ=              0.0000

 Normal termination of Gaussian 16 at Sat Aug 27 01:14:51 2022.
