 Gaussian 16, Revision A.03,
 Gaussian 16:  ES64L-G16RevA.03 25-Dec-2016

 ------------------
 #p CCSD(T)/cc-pVTZ
 ------------------

 ------------
 H2O_H2O_4587
 ------------
 Symbolic Z-matrix:
 Charge =  0 Multiplicity = 1

                         Standard orientation:
 ---------------------------------------------------------------------
 Center     Atomic      Atomic             Coordinates (Angstroms)
 Number     Number       Type             X           Y           Z
 ---------------------------------------------------------------------
      1          8           0        0.040403   -3.218628    0.000000
      2          1           0       -0.759781   -3.788900    0.000000
      3          1           0        0.839360   -3.790619    0.000000
      4          8           0        0.040403    3.251997    0.000000
      5          1           0        0.202975    4.221056    0.000000
      6          1           0       -0.929004    3.091508    0.000000
 ---------------------------------------------------------------------

 SCF Done:  E(RHF) =  -152.107101970     A.U. after   10 cycles
 E2 =    -0.5259046646D+00 EUMP2 =    -0.15263300663466D+03
 CCSD(T)
 CCSD(T)= -0.15266023335D+03

 The electronic state is 1-A'.
 Alpha  occ. eigenvalues --  -20.55380 -20.55196  -1.32677  -1.32492  -0.70084
 Alpha  occ. eigenvalues --   -0.69896  -0.56110  -0.55926  -0.49786  -0.49602
 Alpha virt. eigenvalues --    0.14269   0.14457   0.20330   0.20523   0.54482
 Alpha virt. eigenvalues --    0.54679   0.57373   0.57557   0.68099   0.68294
 Alpha virt. eigenvalues --    0.79093   0.79275   0.80530   0.80730   0.82456

 Mulliken charges:
               1
     1  O   -0.507071
     2  H    0.252683
     3  H    0.254387
     4  O   -0.506934
     5  H    0.252118
     6  H    0.254817
 Sum of Mulliken charges =   0.00000

 Dipole moment (field-independent basis, Debye):
    X=             -1.3889    Y=             -0.5822    Z=              0.0000  Tot=              1.5060
 Quadrupole moment (field-independent basis, Debye-Ang):
   XX=             -8.8300   YY=             11.0505   ZZ=            -14.7113
   XY=             -3.6495   XZ=              0.0000   YZ=              0.0000

 Normal termination of Gaussian 16 at Sat Aug 27 08:11:59 2022.
