 Gaussian 16, Revision A.03,
 Gaussian 16:  ES64L-G16RevA.03 25-Dec-2016

 ------------------
 #p CCSD(T)/cc-pVTZ
 ------------------

 ----------
 H2O_H2O_88
 ----------
 Symbolic Z-matrix:
 Charge =  0 Multiplicity = 1

                         Standard orientation:
 ---------------------------------------------------------------------
 Center     Atomic      Atomic             Coordinates (Angstroms)
 Number     Number       Type             X           Y           Z
 ---------------------------------------------------------------------
      1          8           0        0.043025   -0.822553    0.000000
      2          1           0       -0.759046   -1.390168    0.000000
      3          1           0        0.840080   -1.397190    0.000000
      4          8           0        0.043025    0.861087    0.000000
      5          1           0        0.145111    1.838371    0.000000
      6          1           0       -0.914546    0.640713    0.000000
 ---------------------------------------------------------------------

 SCF Done:  E(RHF) =  -151.959829412     A.U. after   12 cycles
 E2 =    -0.5467766597D+00 EUMP2 =    -0.15250660607162D+03
 CCSD(T)
 CCSD(T)= -0.15253193814D+03

 The electronic state is 1-A'.
 Alpha  occ. eigenvalues --  -20.52757 -20.51329  -1.37159  -1.26877  -0.73510
 Alpha  occ. eigenvalues --   -0.69641  -0.59159  -0.52934  -0.43569  -0.38546
 Alpha virt. eigenvalues --    0.13997   0.19012   0.19746   0.23855   0.53083
 Alpha virt. eigenvalues --    0.56366   0.58631   0.65549   0.73176   0.77417
 Alpha virt. eigenvalues --    0.81013   0.82105   0.82114   0.84121   0.89013

 Mulliken charges:
               1
     1  O   -0.353553
     2  H    0.163746
     3  H    0.196358
     4  O   -0.349968
     5  H    0.111337
     6  H    0.232080
 Sum of Mulliken charges =  -0.00000

 Dipole moment (field-independent basis, Debye):
    X=             -1.1527    Y=             -0.8934    Z=              0.0000  Tot=              1.4584
 Quadrupole moment (field-independent basis, Debye-Ang):
   XX=             -9.2497   YY=             -8.3931   ZZ=            -14.6612
   XY=             -0.6380   XZ=              0.0000   YZ=              0.0000

 Normal termination of Gaussian 16 at Fri Aug 26 12:38:38 2022.
