 Gaussian 16, Revision A.03,
 Gaussian 16:  ES64L-G16RevA.03 25-Dec-2016

 ------------------
 #p CCSD(T)/cc-pVTZ
 ------------------

 ------------
 H2O_H2O_1479
 ------------
 Symbolic Z-matrix:
 Charge =  0 Multiplicity = 1

                         Standard orientation:
 ---------------------------------------------------------------------
 Center     Atomic      Atomic             Coordinates (Angstroms)
 Number     Number       Type             X           Y           Z
 ---------------------------------------------------------------------
      1          8           0        0.014784   -1.585956    0.000000
      2          1           0       -0.785245   -2.156447    0.000000
      3          1           0        0.813897   -2.157729    0.000000
      4          8           0        0.014784    1.589825    0.000000
      5          1           0        0.639898    2.347940    0.000000
      6          1           0       -0.905087    1.935289    0.000000
 ---------------------------------------------------------------------

 SCF Done:  E(RHF) =  -152.102711937     A.U. after   10 cycles
 E2 =    -0.5270781676D+00 EUMP2 =    -0.15262979010469D+03
 CCSD(T)
 CCSD(T)= -0.15265706626D+03

 The electronic state is 1-A'.
 Alpha  occ. eigenvalues --  -20.54086 -20.53999  -1.31417  -1.31246  -0.68837
 Alpha  occ. eigenvalues --   -0.68687  -0.55475  -0.53568  -0.48587  -0.48247
 Alpha virt. eigenvalues --    0.14296   0.16496   0.20554   0.21739   0.52338
 Alpha virt. eigenvalues --    0.58209   0.58457   0.58833   0.63883   0.76421
 Alpha virt. eigenvalues --    0.78220   0.78348   0.79515   0.82175   0.85968

 Mulliken charges:
               1
     1  O   -0.477521
     2  H    0.236690
     3  H    0.240979
     4  O   -0.476878
     5  H    0.236271
     6  H    0.240460
 Sum of Mulliken charges =  -0.00000

 Dipole moment (field-independent basis, Debye):
    X=             -0.4878    Y=             -0.0727    Z=              0.0000  Tot=              0.4932
 Quadrupole moment (field-independent basis, Debye-Ang):
   XX=             -8.0156   YY=              0.2739   ZZ=            -14.7095
   XY=             -0.3802   XZ=              0.0000   YZ=              0.0000

 Normal termination of Gaussian 16 at Sat Aug 27 04:59:38 2022.
