 Gaussian 16, Revision A.03,
 Gaussian 16:  ES64L-G16RevA.03 25-Dec-2016

 ------------------
 #p CCSD(T)/cc-pVTZ
 ------------------

 -----------
 H2O_H2O_898
 -----------
 Symbolic Z-matrix:
 Charge =  0 Multiplicity = 1

                         Standard orientation:
 ---------------------------------------------------------------------
 Center     Atomic      Atomic             Coordinates (Angstroms)
 Number     Number       Type             X           Y           Z
 ---------------------------------------------------------------------
      1          8           0        0.057198   -1.211214    0.000000
      2          1           0       -0.744583   -1.779239    0.000000
      3          1           0        0.854547   -1.785444    0.000000
      4          8           0        0.057198    1.317526    0.000000
      5          1           0       -0.457173    2.154742    0.000000
      6          1           0       -0.567953    0.559441    0.000000
 ---------------------------------------------------------------------

 SCF Done:  E(RHF) =  -152.102426590     A.U. after   10 cycles
 E2 =    -0.5300412481D+00 EUMP2 =    -0.15263246783787D+03
 CCSD(T)
 CCSD(T)= -0.15265936642D+03

 The electronic state is 1-A'.
 Alpha  occ. eigenvalues --  -20.56889 -20.51863  -1.34673  -1.29362  -0.72001
 Alpha  occ. eigenvalues --   -0.68321  -0.56540  -0.52945  -0.51673  -0.46435
 Alpha virt. eigenvalues --    0.12945   0.18206   0.19331   0.26703   0.50577
 Alpha virt. eigenvalues --    0.55948   0.60037   0.61270   0.71225   0.73498
 Alpha virt. eigenvalues --    0.75259   0.81560   0.82678   0.83574   0.86659

 Mulliken charges:
               1
     1  O   -0.463998
     2  H    0.236085
     3  H    0.254577
     4  O   -0.517820
     5  H    0.222549
     6  H    0.268607
 Sum of Mulliken charges =  -0.00000

 Dipole moment (field-independent basis, Debye):
    X=             -1.7990    Y=             -2.2660    Z=              0.0000  Tot=              2.8933
 Quadrupole moment (field-independent basis, Debye-Ang):
   XX=             -9.8488   YY=             -5.1875   ZZ=            -14.7169
   XY=             -2.6998   XZ=              0.0000   YZ=              0.0000

 Normal termination of Gaussian 16 at Fri Aug 26 20:58:35 2022.
