 Gaussian 16, Revision A.03,
 Gaussian 16:  ES64L-G16RevA.03 25-Dec-2016

 ------------------
 #p CCSD(T)/cc-pVTZ
 ------------------

 ------------
 H2O_H2O_2567
 ------------
 Symbolic Z-matrix:
 Charge =  0 Multiplicity = 1

                         Standard orientation:
 ---------------------------------------------------------------------
 Center     Atomic      Atomic             Coordinates (Angstroms)
 Number     Number       Type             X           Y           Z
 ---------------------------------------------------------------------
      1          8           0        0.051288   -2.125297    0.000000
      2          1           0       -0.749449   -2.694793    0.000000
      3          1           0        0.849690   -2.698062    0.000000
      4          8           0        0.051288    2.188792    0.000000
      5          1           0       -0.105320    3.158834    0.000000
      6          1           0       -0.815533    1.726054    0.000000
 ---------------------------------------------------------------------

 SCF Done:  E(RHF) =  -152.107133632     A.U. after   10 cycles
 E2 =    -0.5260788501D+00 EUMP2 =    -0.15263321248188D+03
 CCSD(T)
 CCSD(T)= -0.15266042094D+03

 The electronic state is 1-A'.
 Alpha  occ. eigenvalues --  -20.55455 -20.54598  -1.32743  -1.31887  -0.70153
 Alpha  occ. eigenvalues --   -0.69271  -0.56165  -0.55312  -0.49852  -0.49002
 Alpha virt. eigenvalues --    0.13519   0.15570   0.20141   0.21540   0.54022
 Alpha virt. eigenvalues --    0.54836   0.57332   0.58108   0.65879   0.73077
 Alpha virt. eigenvalues --    0.79002   0.79889   0.79944   0.81947   0.82792

 Mulliken charges:
               1
     1  O   -0.504917
     2  H    0.249555
     3  H    0.256137
     4  O   -0.505806
     5  H    0.247069
     6  H    0.257963
 Sum of Mulliken charges =  -0.00000

 Dipole moment (field-independent basis, Debye):
    X=             -1.7417    Y=             -1.1438    Z=              0.0000  Tot=              2.0837
 Quadrupole moment (field-independent basis, Debye-Ang):
   XX=             -9.4598   YY=              1.9603   ZZ=            -14.7130
   XY=             -3.2439   XZ=              0.0000   YZ=              0.0000

 Normal termination of Gaussian 16 at Fri Aug 26 13:49:02 2022.
