 Gaussian 16, Revision A.03,
 Gaussian 16:  ES64L-G16RevA.03 25-Dec-2016

 ------------------
 #p CCSD(T)/cc-pVTZ
 ------------------

 ------------
 H2O_H2O_1402
 ------------
 Symbolic Z-matrix:
 Charge =  0 Multiplicity = 1

                         Standard orientation:
 ---------------------------------------------------------------------
 Center     Atomic      Atomic             Coordinates (Angstroms)
 Number     Number       Type             X           Y           Z
 ---------------------------------------------------------------------
      1          8           0        0.007455   -1.547643    0.000000
      2          1           0       -0.792353   -2.118443    0.000000
      3          1           0        0.806789   -2.119106    0.000000
      4          8           0        0.007455    1.548614    0.000000
      5          1           0        0.725916    2.218926    0.000000
      6          1           0       -0.859633    2.010853    0.000000
 ---------------------------------------------------------------------

 SCF Done:  E(RHF) =  -152.102012977     A.U. after   10 cycles
 E2 =    -0.5272150370D+00 EUMP2 =    -0.15262922801434D+03
 CCSD(T)
 CCSD(T)= -0.15265651708D+03

 The electronic state is 1-A'.
 Alpha  occ. eigenvalues --  -20.53945 -20.53923  -1.31321  -1.31143  -0.68735
 Alpha  occ. eigenvalues --   -0.68596  -0.55528  -0.53261  -0.48508  -0.48117
 Alpha virt. eigenvalues --    0.14362   0.16597   0.20570   0.21773   0.51984
 Alpha virt. eigenvalues --    0.58255   0.58613   0.59481   0.64648   0.76190
 Alpha virt. eigenvalues --    0.78027   0.78109   0.79400   0.82436   0.86066

 Mulliken charges:
               1
     1  O   -0.474693
     2  H    0.236192
     3  H    0.238530
     4  O   -0.474427
     5  H    0.236166
     6  H    0.238234
 Sum of Mulliken charges =   0.00000

 Dipole moment (field-independent basis, Debye):
    X=             -0.2451    Y=             -0.0183    Z=              0.0000  Tot=              0.2458
 Quadrupole moment (field-independent basis, Debye-Ang):
   XX=             -7.9235   YY=             -0.0221   ZZ=            -14.7097
   XY=             -0.1756   XZ=              0.0000   YZ=              0.0000

 8291\MP4DQ=-152.6381627\MP4SDQ=-152.6413036\CCSD=-152.6406838\CCSD(T)=
 Normal termination of Gaussian 16 at Sat Aug 27 04:32:02 2022.
