 Gaussian 16, Revision A.03,
 Gaussian 16:  ES64L-G16RevA.03 25-Dec-2016

 ------------------
 #p CCSD(T)/cc-pVTZ
 ------------------

 -----------
 H2O_H2O_511
 -----------
 Symbolic Z-matrix:
 Charge =  0 Multiplicity = 1

                         Standard orientation:
 ---------------------------------------------------------------------
 Center     Atomic      Atomic             Coordinates (Angstroms)
 Number     Number       Type             X           Y           Z
 ---------------------------------------------------------------------
      1          8           0        0.037700   -1.054243    0.000000
      2          1           0       -0.763600   -1.622946    0.000000
      3          1           0        0.835535   -1.627799    0.000000
      4          8           0        0.037700    1.082361    0.000000
      5          1           0        0.265178    2.038269    0.000000
      6          1           0       -0.940316    0.987534    0.000000
 ---------------------------------------------------------------------

 SCF Done:  E(RHF) =  -152.073923229     A.U. after   11 cycles
 E2 =    -0.5327222059D+00 EUMP2 =    -0.15260664543506D+03
 CCSD(T)
 CCSD(T)= -0.15263367163D+03

 The electronic state is 1-A'.
 Alpha  occ. eigenvalues --  -20.53227 -20.52258  -1.32160  -1.29195  -0.69285
 Alpha  occ. eigenvalues --   -0.67524  -0.58248  -0.49349  -0.47629  -0.45872
 Alpha virt. eigenvalues --    0.14277   0.17904   0.20249   0.23342   0.53010
 Alpha virt. eigenvalues --    0.57764   0.58342   0.63100   0.70975   0.76362
 Alpha virt. eigenvalues --    0.78786   0.81499   0.83590   0.85804   0.87888

 Mulliken charges:
               1
     1  O   -0.451847
     2  H    0.215850
     3  H    0.234637
     4  O   -0.424551
     5  H    0.187665
     6  H    0.238247
 Sum of Mulliken charges =  -0.00000

 Dipole moment (field-independent basis, Debye):
    X=             -1.1189    Y=             -0.5652    Z=              0.0000  Tot=              1.2535
 Quadrupole moment (field-independent basis, Debye-Ang):
   XX=             -8.8910   YY=             -4.9577   ZZ=            -14.7296
   XY=             -0.6471   XZ=              0.0000   YZ=              0.0000

 Normal termination of Gaussian 16 at Fri Aug 26 17:11:34 2022.
