 Gaussian 16, Revision A.03,
 Gaussian 16:  ES64L-G16RevA.03 25-Dec-2016

 ------------------
 #p CCSD(T)/cc-pVTZ
 ------------------

 ------------
 H2O_H2O_2221
 ------------
 Symbolic Z-matrix:
 Charge =  0 Multiplicity = 1

                         Standard orientation:
 ---------------------------------------------------------------------
 Center     Atomic      Atomic             Coordinates (Angstroms)
 Number     Number       Type             X           Y           Z
 ---------------------------------------------------------------------
      1          8           0        0.056128   -1.923854    0.000000
      2          1           0       -0.744839   -2.493027    0.000000
      3          1           0        0.854299   -2.496941    0.000000
      4          8           0        0.056128    2.015521    0.000000
      5          1           0       -0.345847    2.912138    0.000000
      6          1           0       -0.661664    1.344491    0.000000
 ---------------------------------------------------------------------

 SCF Done:  E(RHF) =  -152.108202543     A.U. after   10 cycles
 E2 =    -0.5262074927D+00 EUMP2 =    -0.15263441003552D+03
 CCSD(T)
 CCSD(T)= -0.15266157720D+03

 The electronic state is 1-A'.
 Alpha  occ. eigenvalues --  -20.55889 -20.54306  -1.33163  -1.31600  -0.70572
 Alpha  occ. eigenvalues --   -0.68969  -0.56617  -0.55055  -0.50281  -0.48725
 Alpha virt. eigenvalues --    0.13106   0.16066   0.19896   0.22702   0.54043
 Alpha virt. eigenvalues --    0.54640   0.56985   0.58546   0.65892   0.74096
 Alpha virt. eigenvalues --    0.78458   0.79201   0.80233   0.80898   0.83336

 Mulliken charges:
               1
     1  O   -0.504042
     2  H    0.249343
     3  H    0.257778
     4  O   -0.510593
     5  H    0.245691
     6  H    0.261822
 Sum of Mulliken charges =  -0.00000

 Dipole moment (field-independent basis, Debye):
    X=             -1.8946    Y=             -1.6855    Z=              0.0000  Tot=              2.5358
 Quadrupole moment (field-independent basis, Debye-Ang):
   XX=             -9.7827   YY=             -0.7671   ZZ=            -14.7165
   XY=             -3.6937   XZ=              0.0000   YZ=              0.0000

 0021\MP4DQ=-152.6434355\MP4SDQ=-152.6465078\CCSD=-152.645909\CCSD(T)=-
 Normal termination of Gaussian 16 at Sat Aug 27 09:17:30 2022.
