 Gaussian 16, Revision A.03,
 Gaussian 16:  ES64L-G16RevA.03 25-Dec-2016

 ------------------
 #p CCSD(T)/cc-pVTZ
 ------------------

 ------------
 H2O_H2O_2891
 ------------
 Symbolic Z-matrix:
 Charge =  0 Multiplicity = 1

                         Standard orientation:
 ---------------------------------------------------------------------
 Center     Atomic      Atomic             Coordinates (Angstroms)
 Number     Number       Type             X           Y           Z
 ---------------------------------------------------------------------
      1          8           0        0.049514   -2.301708    0.000000
      2          1           0       -0.751100   -2.871378    0.000000
      3          1           0        0.848040   -2.874300    0.000000
      4          8           0        0.049514    2.358640    0.000000
      5          1           0       -0.043528    3.336828    0.000000
      6          1           0       -0.845628    1.953392    0.000000
 ---------------------------------------------------------------------

 SCF Done:  E(RHF) =  -152.107011989     A.U. after   10 cycles
 E2 =    -0.5260042322D+00 EUMP2 =    -0.15263301622107D+03
 CCSD(T)
 CCSD(T)= -0.15266023634D+03

 The electronic state is 1-A'.
 Alpha  occ. eigenvalues --  -20.55393 -20.54755  -1.32686  -1.32046  -0.70095
 Alpha  occ. eigenvalues --   -0.69437  -0.56110  -0.55471  -0.49795  -0.49159
 Alpha virt. eigenvalues --    0.13772   0.15244   0.20214   0.21166   0.54257
 Alpha virt. eigenvalues --    0.54984   0.57365   0.57919   0.66599   0.71126
 Alpha virt. eigenvalues --    0.79083   0.79711   0.80280   0.81265   0.82877

 Mulliken charges:
               1
     1  O   -0.505921
     2  H    0.250467
     3  H    0.255715
     4  O   -0.505701
     5  H    0.248444
     6  H    0.256997
 Sum of Mulliken charges =  -0.00000

 Dipole moment (field-independent basis, Debye):
    X=             -1.6881    Y=             -1.0144    Z=              0.0000  Tot=              1.9695
 Quadrupole moment (field-independent basis, Debye-Ang):
   XX=             -9.3471   YY=              3.4012   ZZ=            -14.7121
   XY=             -3.3181   XZ=              0.0000   YZ=              0.0000

 Normal termination of Gaussian 16 at Fri Aug 26 17:11:58 2022.
