 Gaussian 16, Revision A.03,
 Gaussian 16:  ES64L-G16RevA.03 25-Dec-2016

 ------------------
 #p CCSD(T)/cc-pVTZ
 ------------------

 ------------
 H2O_H2O_1188
 ------------
 Symbolic Z-matrix:
 Charge =  0 Multiplicity = 1

                         Standard orientation:
 ---------------------------------------------------------------------
 Center     Atomic      Atomic             Coordinates (Angstroms)
 Number     Number       Type             X           Y           Z
 ---------------------------------------------------------------------
      1          8           0        0.042990   -1.407492    0.000000
      2          1           0       -0.758058   -1.976551    0.000000
      3          1           0        0.841079   -1.980694    0.000000
      4          8           0        0.042990    1.446181    0.000000
      5          1           0        0.143317    2.423648    0.000000
      6          1           0       -0.914182    1.224084    0.000000
 ---------------------------------------------------------------------

 SCF Done:  E(RHF) =  -152.102836967     A.U. after   10 cycles
 E2 =    -0.5277545333D+00 EUMP2 =    -0.15263059150001D+03
 CCSD(T)
 CCSD(T)= -0.15265781750D+03

 The electronic state is 1-A'.
 Alpha  occ. eigenvalues --  -20.54653 -20.53544  -1.32020  -1.30788  -0.69442
 Alpha  occ. eigenvalues --   -0.68242  -0.55967  -0.53271  -0.49165  -0.47829
 Alpha virt. eigenvalues --    0.13940   0.16962   0.20221   0.22822   0.53576
 Alpha virt. eigenvalues --    0.57857   0.57972   0.58589   0.68172   0.76104
 Alpha virt. eigenvalues --    0.76699   0.76955   0.81080   0.82809   0.85467

 Mulliken charges:
               1
     1  O   -0.477874
     2  H    0.233322
     3  H    0.247444
     4  O   -0.474676
     5  H    0.225514
     6  H    0.246271
 Sum of Mulliken charges =  -0.00000

 Dipole moment (field-independent basis, Debye):
    X=             -1.3871    Y=             -0.7441    Z=              0.0000  Tot=              1.5741
 Quadrupole moment (field-independent basis, Debye-Ang):
   XX=             -9.0325   YY=             -1.8394   ZZ=            -14.7177
   XY=             -1.3441   XZ=              0.0000   YZ=              0.0000

 Normal termination of Gaussian 16 at Sat Aug 27 02:50:27 2022.
