 Gaussian 16, Revision A.03,
 Gaussian 16:  ES64L-G16RevA.03 25-Dec-2016

 ------------------
 #p CCSD(T)/cc-pVTZ
 ------------------

 -----------
 H2O_H2O_234
 -----------
 Symbolic Z-matrix:
 Charge =  0 Multiplicity = 1

                         Standard orientation:
 ---------------------------------------------------------------------
 Center     Atomic      Atomic             Coordinates (Angstroms)
 Number     Number       Type             X           Y           Z
 ---------------------------------------------------------------------
      1          8           0        0.031759   -0.912906    0.000000
      2          1           0       -0.769500   -1.481668    0.000000
      3          1           0        0.829635   -1.486403    0.000000
      4          8           0        0.031759    0.931969    0.000000
      5          1           0        0.381994    1.850033    0.000000
      6          1           0       -0.950269    0.965538    0.000000
 ---------------------------------------------------------------------

 SCF Done:  E(RHF) =  -152.019646352     A.U. after   11 cycles
 E2 =    -0.5395761458D+00 EUMP2 =    -0.15255922249770D+03
 CCSD(T)
 CCSD(T)= -0.15258550707D+03

 The electronic state is 1-A'.
 Alpha  occ. eigenvalues --  -20.52124 -20.51521  -1.33728  -1.27836  -0.70194
 Alpha  occ. eigenvalues --   -0.67414  -0.60990  -0.50555  -0.44314  -0.41427
 Alpha virt. eigenvalues --    0.14401   0.18579   0.20111   0.23401   0.52934
 Alpha virt. eigenvalues --    0.57184   0.58709   0.65065   0.70916   0.77905
 Alpha virt. eigenvalues --    0.79395   0.82663   0.83606   0.85680   0.88392

 Mulliken charges:
               1
     1  O   -0.413964
     2  H    0.196333
     3  H    0.215685
     4  O   -0.384026
     5  H    0.157068
     6  H    0.228905
 Sum of Mulliken charges =  -0.00000

 Dipole moment (field-independent basis, Debye):
    X=             -0.8956    Y=             -0.4204    Z=              0.0000  Tot=              0.9893
 Quadrupole moment (field-independent basis, Debye-Ang):
   XX=             -8.7626   YY=             -6.8917   ZZ=            -14.7260
   XY=             -0.3935   XZ=              0.0000   YZ=              0.0000

 Normal termination of Gaussian 16 at Fri Aug 26 14:20:16 2022.
