 Gaussian 16, Revision A.03,
 Gaussian 16:  ES64L-G16RevA.03 25-Dec-2016

 ------------------
 #p CCSD(T)/cc-pVTZ
 ------------------

 ------------
 H2O_H2O_3045
 ------------
 Symbolic Z-matrix:
 Charge =  0 Multiplicity = 1

                         Standard orientation:
 ---------------------------------------------------------------------
 Center     Atomic      Atomic             Coordinates (Angstroms)
 Number     Number       Type             X           Y           Z
 ---------------------------------------------------------------------
      1          8           0        0.055250   -2.366542    0.000000
      2          1           0       -0.745445   -2.936097    0.000000
      3          1           0        0.853694   -2.939250    0.000000
      4          8           0        0.055250    2.450987    0.000000
      5          1           0       -0.287662    3.371811    0.000000
      6          1           0       -0.704594    1.827977    0.000000
 ---------------------------------------------------------------------

 SCF Done:  E(RHF) =  -152.107596557     A.U. after   10 cycles
 E2 =    -0.5259511519D+00 EUMP2 =    -0.15263354770860D+03
 CCSD(T)
 CCSD(T)= -0.15266075463D+03

 The electronic state is 1-A'.
 Alpha  occ. eigenvalues --  -20.55669 -20.54774  -1.32963  -1.32070  -0.70370
 Alpha  occ. eigenvalues --   -0.69457  -0.56414  -0.55517  -0.50075  -0.49187
 Alpha virt. eigenvalues --    0.13548   0.15225   0.20053   0.21263   0.54096
 Alpha virt. eigenvalues --    0.54901   0.57139   0.57907   0.66784   0.70357
 Alpha virt. eigenvalues --    0.78812   0.79674   0.79941   0.80673   0.82790

 Mulliken charges:
               1
     1  O   -0.508999
     2  H    0.252092
     3  H    0.257298
     4  O   -0.508970
     5  H    0.249407
     6  H    0.259172
 Sum of Mulliken charges =  -0.00000

 Dipole moment (field-independent basis, Debye):
    X=             -1.8867    Y=             -1.5032    Z=              0.0000  Tot=              2.4123
 Quadrupole moment (field-independent basis, Debye-Ang):
   XX=             -9.7226   YY=              1.9099   ZZ=            -14.7133
   XY=             -4.3264   XZ=              0.0000   YZ=              0.0000

 Normal termination of Gaussian 16 at Fri Aug 26 18:49:51 2022.
