 Gaussian 16, Revision A.03,
 Gaussian 16:  ES64L-G16RevA.03 25-Dec-2016

 ------------------
 #p CCSD(T)/cc-pVTZ
 ------------------

 ------------
 H2O_H2O_2993
 ------------
 Symbolic Z-matrix:
 Charge =  0 Multiplicity = 1

                         Standard orientation:
 ---------------------------------------------------------------------
 Center     Atomic      Atomic             Coordinates (Angstroms)
 Number     Number       Type             X           Y           Z
 ---------------------------------------------------------------------
      1          8           0        0.052833   -2.347625    0.000000
      2          1           0       -0.747826   -2.917232    0.000000
      3          1           0        0.851314   -2.920280    0.000000
      4          8           0        0.052833    2.417938    0.000000
      5          1           0       -0.167016    3.375629    0.000000
      6          1           0       -0.781797    1.899383    0.000000
 ---------------------------------------------------------------------

 SCF Done:  E(RHF) =  -152.107307310     A.U. after   10 cycles
 E2 =    -0.5259729404D+00 EUMP2 =    -0.15263328025016D+03
 CCSD(T)
 CCSD(T)= -0.15266049420D+03

 The electronic state is 1-A'.
 Alpha  occ. eigenvalues --  -20.55532 -20.54775  -1.32826  -1.32069  -0.70234
 Alpha  occ. eigenvalues --   -0.69458  -0.56264  -0.55506  -0.49937  -0.49184
 Alpha virt. eigenvalues --    0.13674   0.15212   0.20134   0.21195   0.54190
 Alpha virt. eigenvalues --    0.54936   0.57251   0.57903   0.66772   0.70617
 Alpha virt. eigenvalues --    0.78947   0.79681   0.80120   0.80946   0.82803

 Mulliken charges:
               1
     1  O   -0.507558
     2  H    0.251319
     3  H    0.256540
     4  O   -0.507407
     5  H    0.248993
     6  H    0.258113
 Sum of Mulliken charges =  -0.00000

 Dipole moment (field-independent basis, Debye):
    X=             -1.8032    Y=             -1.2515    Z=              0.0000  Tot=              2.1949
 Quadrupole moment (field-independent basis, Debye-Ang):
   XX=             -9.5591   YY=              2.8058   ZZ=            -14.7126
   XY=             -3.8564   XZ=              0.0000   YZ=              0.0000

 Normal termination of Gaussian 16 at Fri Aug 26 18:13:53 2022.
