 Gaussian 16, Revision A.03,
 Gaussian 16:  ES64L-G16RevA.03 25-Dec-2016

 ------------------
 #p CCSD(T)/cc-pVTZ
 ------------------

 ------------
 H2O_H2O_2080
 ------------
 Symbolic Z-matrix:
 Charge =  0 Multiplicity = 1

                         Standard orientation:
 ---------------------------------------------------------------------
 Center     Atomic      Atomic             Coordinates (Angstroms)
 Number     Number       Type             X           Y           Z
 ---------------------------------------------------------------------
      1          8           0        0.018361   -1.903883    0.000000
      2          1           0       -0.781683   -2.474352    0.000000
      3          1           0        0.817458   -2.475678    0.000000
      4          8           0        0.018361    1.909915    0.000000
      5          1           0        0.592576    2.707275    0.000000
      6          1           0       -0.922126    2.194503    0.000000
 ---------------------------------------------------------------------

 SCF Done:  E(RHF) =  -152.104968036     A.U. after   10 cycles
 E2 =    -0.5263977001D+00 EUMP2 =    -0.15263136573638D+03
 CCSD(T)
 CCSD(T)= -0.15265861077D+03

 The electronic state is 1-A'.
 Alpha  occ. eigenvalues --  -20.54557 -20.54457  -1.31839  -1.31734  -0.69259
 Alpha  occ. eigenvalues --   -0.69149  -0.55359  -0.54823  -0.48947  -0.48820
 Alpha virt. eigenvalues --    0.14134   0.15806   0.20579   0.21263   0.53870
 Alpha virt. eigenvalues --    0.56325   0.57926   0.58240   0.61932   0.75327
 Alpha virt. eigenvalues --    0.79368   0.80187   0.80560   0.81046   0.82590

 Mulliken charges:
               1
     1  O   -0.492070
     2  H    0.244465
     3  H    0.247736
     4  O   -0.491991
     5  H    0.243941
     6  H    0.247919
 Sum of Mulliken charges =  -0.00000

 Dipole moment (field-independent basis, Debye):
    X=             -0.6181    Y=             -0.1103    Z=              0.0000  Tot=              0.6279
 Quadrupole moment (field-independent basis, Debye-Ang):
   XX=             -8.0509   YY=              2.8902   ZZ=            -14.7095
   XY=             -0.6769   XZ=              0.0000   YZ=              0.0000

 Normal termination of Gaussian 16 at Sat Aug 27 08:28:24 2022.
