 Gaussian 16, Revision A.03,
 Gaussian 16:  ES64L-G16RevA.03 25-Dec-2016

 ------------------
 #p CCSD(T)/cc-pVTZ
 ------------------

 ------------
 H2O_H2O_1726
 ------------
 Symbolic Z-matrix:
 Charge =  0 Multiplicity = 1

                         Standard orientation:
 ---------------------------------------------------------------------
 Center     Atomic      Atomic             Coordinates (Angstroms)
 Number     Number       Type             X           Y           Z
 ---------------------------------------------------------------------
      1          8           0        0.003735   -1.720884    0.000000
      2          1           0       -0.795942   -2.291867    0.000000
      3          1           0        0.803200   -2.292166    0.000000
      4          8           0        0.003735    1.721128    0.000000
      5          1           0        0.764358    2.343190    0.000000
      6          1           0       -0.831381    2.238899    0.000000
 ---------------------------------------------------------------------

 SCF Done:  E(RHF) =  -152.103758506     A.U. after   10 cycles
 E2 =    -0.5267304733D+00 EUMP2 =    -0.15263048897902D+03
 CCSD(T)
 CCSD(T)= -0.15265775063D+03

 The electronic state is 1-A'.
 Alpha  occ. eigenvalues --  -20.54235 -20.54231  -1.31547  -1.31479  -0.68969
 Alpha  occ. eigenvalues --   -0.68911  -0.55330  -0.54163  -0.48693  -0.48513
 Alpha virt. eigenvalues --    0.14265   0.16176   0.20604   0.21472   0.53154
 Alpha virt. eigenvalues --    0.57932   0.58043   0.58449   0.61311   0.75932
 Alpha virt. eigenvalues --    0.78888   0.79241   0.80104   0.81427   0.84308

 Mulliken charges:
               1
     1  O   -0.483361
     2  H    0.241255
     3  H    0.242115
     4  O   -0.483356
     5  H    0.241211
     6  H    0.242135
 Sum of Mulliken charges =  -0.00000

 Dipole moment (field-independent basis, Debye):
    X=             -0.1245    Y=             -0.0045    Z=              0.0000  Tot=              0.1246
 Quadrupole moment (field-independent basis, Debye-Ang):
   XX=             -7.8706   YY=              1.5064   ZZ=            -14.7087
   XY=             -0.1081   XZ=              0.0000   YZ=              0.0000

 Normal termination of Gaussian 16 at Sat Aug 27 06:26:20 2022.
