 Gaussian 16, Revision A.03,
 Gaussian 16:  ES64L-G16RevA.03 25-Dec-2016

 ------------------
 #p CCSD(T)/cc-pVTZ
 ------------------

 ----------
 H2O_H2O_39
 ----------
 Symbolic Z-matrix:
 Charge =  0 Multiplicity = 1

                         Standard orientation:
 ---------------------------------------------------------------------
 Center     Atomic      Atomic             Coordinates (Angstroms)
 Number     Number       Type             X           Y           Z
 ---------------------------------------------------------------------
      1          8           0        0.045417   -0.792853    0.000000
      2          1           0       -0.756878   -1.360152    0.000000
      3          1           0        0.842246   -1.367805    0.000000
      4          8           0        0.045417    0.837109    0.000000
      5          1           0        0.083756    1.818961    0.000000
      6          1           0       -0.895802    0.554950    0.000000
 ---------------------------------------------------------------------

 SCF Done:  E(RHF) =  -151.928714626     A.U. after   12 cycles
 E2 =    -0.5501511858D+00 EUMP2 =    -0.15247886581159D+03
 CCSD(T)
 CCSD(T)= -0.15250369521D+03

 The electronic state is 1-A'.
 Alpha  occ. eigenvalues --  -20.53108 -20.51313  -1.38857  -1.26525  -0.74944
 Alpha  occ. eigenvalues --   -0.70658  -0.58429  -0.54040  -0.43323  -0.37162
 Alpha virt. eigenvalues --    0.13837   0.19029   0.19799   0.23961   0.52435
 Alpha virt. eigenvalues --    0.56428   0.58702   0.66033   0.73466   0.77172
 Alpha virt. eigenvalues --    0.81156   0.81590   0.82131   0.83846   0.89194

 Mulliken charges:
               1
     1  O   -0.324925
     2  H    0.148321
     3  H    0.189353
     4  O   -0.338997
     5  H    0.091115
     6  H    0.235133
 Sum of Mulliken charges =  -0.00000

 Dipole moment (field-independent basis, Debye):
    X=             -1.1898    Y=             -1.0509    Z=              0.0000  Tot=              1.5875
 Quadrupole moment (field-independent basis, Debye-Ang):
   XX=             -9.3832   YY=             -9.0151   ZZ=            -14.6334
   XY=             -0.6908   XZ=              0.0000   YZ=              0.0000

 1991\MP4DQ=-152.4823386\MP4SDQ=-152.486534\CCSD=-152.4852798\CCSD(T)=-
 Normal termination of Gaussian 16 at Fri Aug 26 12:10:18 2022.
