 Gaussian 16, Revision A.03,
 Gaussian 16:  ES64L-G16RevA.03 25-Dec-2016

 ------------------
 #p CCSD(T)/cc-pVTZ
 ------------------

 ------------
 H2O_H2O_3775
 ------------
 Symbolic Z-matrix:
 Charge =  0 Multiplicity = 1

                         Standard orientation:
 ---------------------------------------------------------------------
 Center     Atomic      Atomic             Coordinates (Angstroms)
 Number     Number       Type             X           Y           Z
 ---------------------------------------------------------------------
      1          8           0        0.000000   -0.000000    2.811281
      2          1           0        0.000000    0.799571    3.382413
      3          1           0       -0.000000   -0.799571    3.382413
      4          8           0        0.000000   -0.000000   -2.811281
      5          1           0       -0.000000   -0.799571   -3.382413
      6          1           0        0.000000    0.799571   -3.382413
 ---------------------------------------------------------------------

 SCF Done:  E(RHF) =  -152.106536279     A.U. after   10 cycles
 E2 =    -0.5259664470D+00 EUMP2 =    -0.15263250272648D+03
 CCSD(T)
 CCSD(T)= -0.15265974075D+03

 The electronic state is 1-AG.
 Alpha  occ. eigenvalues --  -20.55068 -20.55068  -1.32362  -1.32362  -0.69770
 Alpha  occ. eigenvalues --   -0.69770  -0.55770  -0.55767  -0.49467  -0.49467
 Alpha virt. eigenvalues --    0.14476   0.14598   0.20545   0.20589   0.54781
 Alpha virt. eigenvalues --    0.54822   0.57633   0.57655   0.68263   0.68719
 Alpha virt. eigenvalues --    0.79409   0.79412   0.80849   0.80871   0.82771

 Mulliken charges:
               1
     1  O   -0.503729
     2  H    0.251864
     3  H    0.251864
     4  O   -0.503729
     5  H    0.251864
     6  H    0.251864
 Sum of Mulliken charges =   0.00000

 Dipole moment (field-independent basis, Debye):
    X=             -0.0000    Y=              0.0000    Z=             -0.0000  Tot=              0.0000
 Quadrupole moment (field-independent basis, Debye-Ang):
   XX=            -14.7103   YY=             -7.8078   ZZ=             10.4478
   XY=              0.0000   XZ=              0.0000   YZ=             -0.0000

 8\MP4DQ=-152.6416268\MP4SDQ=-152.6446895\CCSD=-152.6441002\CCSD(T)=-15
 Normal termination of Gaussian 16 at Sat Aug 27 03:12:44 2022.
