 Gaussian 16, Revision A.03,
 Gaussian 16:  ES64L-G16RevA.03 25-Dec-2016

 ------------------
 #p CCSD(T)/cc-pVTZ
 ------------------

 ------------
 H2O_H2O_2698
 ------------
 Symbolic Z-matrix:
 Charge =  0 Multiplicity = 1

                         Standard orientation:
 ---------------------------------------------------------------------
 Center     Atomic      Atomic             Coordinates (Angstroms)
 Number     Number       Type             X           Y           Z
 ---------------------------------------------------------------------
      1          8           0        0.057109   -2.168420    0.000000
      2          1           0       -0.743722   -2.737785    0.000000
      3          1           0        0.855417   -2.741316    0.000000
      4          8           0        0.057109    2.274923    0.000000
      5          1           0       -0.458661    3.111278    0.000000
      6          1           0       -0.566773    1.515794    0.000000
 ---------------------------------------------------------------------

 SCF Done:  E(RHF) =  -152.108309725     A.U. after   10 cycles
 E2 =    -0.5260041551D+00 EUMP2 =    -0.15263431388014D+03
 CCSD(T)
 CCSD(T)= -0.15266149324D+03

 The electronic state is 1-A'.
 Alpha  occ. eigenvalues --  -20.55959 -20.54570  -1.33244  -1.31871  -0.70650
 Alpha  occ. eigenvalues --   -0.69249  -0.56718  -0.55333  -0.50362  -0.48994
 Alpha virt. eigenvalues --    0.13094   0.15628   0.19877   0.21966   0.53927
 Alpha virt. eigenvalues --    0.54815   0.56929   0.58242   0.66571   0.71480
 Alpha virt. eigenvalues --    0.78528   0.79434   0.79861   0.80535   0.82647

 Mulliken charges:
               1
     1  O   -0.509465
     2  H    0.252389
     3  H    0.258650
     4  O   -0.512054
     5  H    0.248722
     6  H    0.261758
 Sum of Mulliken charges =  -0.00000

 Dipole moment (field-independent basis, Debye):
    X=             -1.9434    Y=             -1.9210    Z=              0.0000  Tot=              2.7326
 Quadrupole moment (field-independent basis, Debye-Ang):
   XX=             -9.8524   YY=             -0.6393   ZZ=            -14.7157
   XY=             -4.5057   XZ=              0.0000   YZ=              0.0000

 Normal termination of Gaussian 16 at Fri Aug 26 15:12:12 2022.
