 Gaussian 16, Revision A.03,
 Gaussian 16:  ES64L-G16RevA.03 25-Dec-2016

 ------------------
 #p CCSD(T)/cc-pVTZ
 ------------------

 ------------
 H2O_H2O_3016
 ------------
 Symbolic Z-matrix:
 Charge =  0 Multiplicity = 1

                         Standard orientation:
 ---------------------------------------------------------------------
 Center     Atomic      Atomic             Coordinates (Angstroms)
 Number     Number       Type             X           Y           Z
 ---------------------------------------------------------------------
      1          8           0        0.049512   -2.368185    0.000000
      2          1           0       -0.751072   -2.937895    0.000000
      3          1           0        0.848067   -2.940736    0.000000
      4          8           0        0.049512    2.425122    0.000000
      5          1           0       -0.043579    3.403305    0.000000
      6          1           0       -0.845609    2.019829    0.000000
 ---------------------------------------------------------------------

 SCF Done:  E(RHF) =  -152.107036144     A.U. after   10 cycles
 E2 =    -0.5259831990D+00 EUMP2 =    -0.15263301934334D+03
 CCSD(T)
 CCSD(T)= -0.15266024095D+03

 The electronic state is 1-A'.
 Alpha  occ. eigenvalues --  -20.55402 -20.54803  -1.32696  -1.32095  -0.70105
 Alpha  occ. eigenvalues --   -0.69487  -0.56123  -0.55522  -0.49805  -0.49208
 Alpha virt. eigenvalues --    0.13841   0.15141   0.20222   0.21079   0.54311
 Alpha virt. eigenvalues --    0.54989   0.57354   0.57882   0.66865   0.70515
 Alpha virt. eigenvalues --    0.79076   0.79661   0.80333   0.81104   0.82844

 Mulliken charges:
               1
     1  O   -0.506321
     2  H    0.250815
     3  H    0.255683
     4  O   -0.505971
     5  H    0.248901
     6  H    0.256893
 Sum of Mulliken charges =  -0.00000

 Dipole moment (field-independent basis, Debye):
    X=             -1.6901    Y=             -1.0114    Z=              0.0000  Tot=              1.9696
 Quadrupole moment (field-independent basis, Debye-Ang):
   XX=             -9.3467   YY=              3.8043   ZZ=            -14.7119
   XY=             -3.4291   XZ=              0.0000   YZ=              0.0000

 Normal termination of Gaussian 16 at Fri Aug 26 18:32:52 2022.
