 Gaussian 16, Revision A.03,
 Gaussian 16:  ES64L-G16RevA.03 25-Dec-2016

 ------------------
 #p CCSD(T)/cc-pVTZ
 ------------------

 -----------
 H2O_H2O_303
 -----------
 Symbolic Z-matrix:
 Charge =  0 Multiplicity = 1

                         Standard orientation:
 ---------------------------------------------------------------------
 Center     Atomic      Atomic             Coordinates (Angstroms)
 Number     Number       Type             X           Y           Z
 ---------------------------------------------------------------------
      1          8           0        0.011143   -0.961970    0.000000
      2          1           0       -0.788996   -1.532305    0.000000
      3          1           0        0.810145   -1.533898    0.000000
      4          8           0        0.011143    0.964142    0.000000
      5          1           0        0.684641    1.679618    0.000000
      6          1           0       -0.884084    1.369203    0.000000
 ---------------------------------------------------------------------

 SCF Done:  E(RHF) =  -152.034572665     A.U. after   11 cycles
 E2 =    -0.5372964106D+00 EUMP2 =    -0.15257186907573D+03
 CCSD(T)
 CCSD(T)= -0.15259844462D+03

 The electronic state is 1-A'.
 Alpha  occ. eigenvalues --  -20.51618 -20.51552  -1.32450  -1.28150  -0.68784
 Alpha  occ. eigenvalues --   -0.66291  -0.62074  -0.49570  -0.44525  -0.41896
 Alpha virt. eigenvalues --    0.14654   0.18626   0.20381   0.22932   0.50582
 Alpha virt. eigenvalues --    0.59092   0.59162   0.66529   0.69225   0.78400
 Alpha virt. eigenvalues --    0.79478   0.83302   0.84387   0.86595   0.87504

 Mulliken charges:
               1
     1  O   -0.419738
     2  H    0.205790
     3  H    0.213413
     4  O   -0.413013
     5  H    0.193606
     6  H    0.219943
 Sum of Mulliken charges =  -0.00000

 Dipole moment (field-independent basis, Debye):
    X=             -0.3222    Y=             -0.0482    Z=              0.0000  Tot=              0.3258
 Quadrupole moment (field-independent basis, Debye-Ang):
   XX=             -8.2701   YY=             -6.3021   ZZ=            -14.7532
   XY=             -0.1053   XZ=              0.0000   YZ=              0.0000

 Normal termination of Gaussian 16 at Fri Aug 26 15:04:46 2022.
