 Gaussian 16, Revision A.03,
 Gaussian 16:  ES64L-G16RevA.03 25-Dec-2016

 ------------------
 #p CCSD(T)/cc-pVTZ
 ------------------

 ----------
 H2O_H2O_27
 ----------
 Symbolic Z-matrix:
 Charge =  0 Multiplicity = 1

                         Standard orientation:
 ---------------------------------------------------------------------
 Center     Atomic      Atomic             Coordinates (Angstroms)
 Number     Number       Type             X           Y           Z
 ---------------------------------------------------------------------
      1          8           0        0.007455   -0.816370    0.000000
      2          1           0       -0.792564   -1.386874    0.000000
      3          1           0        0.806577   -1.388130    0.000000
      4          8           0        0.007455    0.817335    0.000000
      5          1           0        0.726165    1.487382    0.000000
      6          1           0       -0.859461    1.279897    0.000000
 ---------------------------------------------------------------------

 SCF Done:  E(RHF) =  -151.921148296     A.U. after   11 cycles
 E2 =    -0.5517793775D+00 EUMP2 =    -0.15247292767375D+03
 CCSD(T)
 CCSD(T)= -0.15249719481D+03

 The electronic state is 1-A'.
 Alpha  occ. eigenvalues --  -20.51433 -20.51405  -1.36817  -1.26946  -0.71077
 Alpha  occ. eigenvalues --   -0.68669  -0.65271  -0.52935  -0.43159  -0.32523
 Alpha virt. eigenvalues --    0.14408   0.19673   0.19928   0.23040   0.50574
 Alpha virt. eigenvalues --    0.58580   0.59178   0.66294   0.68180   0.79191
 Alpha virt. eigenvalues --    0.80919   0.83922   0.84020   0.85770   0.87984

 Mulliken charges:
               1
     1  O   -0.338146
     2  H    0.164459
     3  H    0.173919
     4  O   -0.334939
     5  H    0.148384
     6  H    0.186323
 Sum of Mulliken charges =  -0.00000

 Dipole moment (field-independent basis, Debye):
    X=             -0.2163    Y=             -0.0284    Z=              0.0000  Tot=              0.2182
 Quadrupole moment (field-independent basis, Debye-Ang):
   XX=             -8.5943   YY=             -9.1838   ZZ=            -14.7803
   XY=             -0.1229   XZ=              0.0000   YZ=              0.0000

 4447\MP4DQ=-152.4754217\MP4SDQ=-152.4798696\CCSD=-152.478438\CCSD(T)=-
 Normal termination of Gaussian 16 at Fri Aug 26 12:01:38 2022.
