 Gaussian 16, Revision A.03,
 Gaussian 16:  ES64L-G16RevA.03 25-Dec-2016

 ------------------
 #p CCSD(T)/cc-pVTZ
 ------------------

 ------------
 H2O_H2O_1835
 ------------
 Symbolic Z-matrix:
 Charge =  0 Multiplicity = 1

                         Standard orientation:
 ---------------------------------------------------------------------
 Center     Atomic      Atomic             Coordinates (Angstroms)
 Number     Number       Type             X           Y           Z
 ---------------------------------------------------------------------
      1          8           0        0.034788   -1.761443    0.000000
      2          1           0       -0.765746   -2.331225    0.000000
      3          1           0        0.833394   -2.333924    0.000000
      4          8           0        0.034788    1.784931    0.000000
      5          1           0        0.323034    2.724302    0.000000
      6          1           0       -0.947293    1.752949    0.000000
 ---------------------------------------------------------------------

 SCF Done:  E(RHF) =  -152.105105151     A.U. after   10 cycles
 E2 =    -0.5265904706D+00 EUMP2 =    -0.15263169562142D+03
 CCSD(T)
 CCSD(T)= -0.15265892424D+03

 The electronic state is 1-A'.
 Alpha  occ. eigenvalues --  -20.54717 -20.54258  -1.31995  -1.31525  -0.69418
 Alpha  occ. eigenvalues --   -0.68926  -0.55513  -0.54619  -0.49103  -0.48620
 Alpha virt. eigenvalues --    0.13931   0.16144   0.20407   0.21696   0.53134
 Alpha virt. eigenvalues --    0.55904   0.57886   0.58461   0.63128   0.76584
 Alpha virt. eigenvalues --    0.78861   0.79030   0.80417   0.81031   0.84119

 Mulliken charges:
               1
     1  O   -0.489685
     2  H    0.241570
     3  H    0.248999
     4  O   -0.490192
     5  H    0.239795
     6  H    0.249513
 Sum of Mulliken charges =  -0.00000

 Dipole moment (field-independent basis, Debye):
    X=             -1.1624    Y=             -0.4352    Z=              0.0000  Tot=              1.2412
 Quadrupole moment (field-independent basis, Debye-Ang):
   XX=             -8.5990   YY=              1.2583   ZZ=            -14.7109
   XY=             -1.3169   XZ=              0.0000   YZ=              0.0000

 Normal termination of Gaussian 16 at Sat Aug 27 07:04:56 2022.
