 Gaussian 16, Revision A.03,
 Gaussian 16:  ES64L-G16RevA.03 25-Dec-2016

 ------------------
 #p CCSD(T)/cc-pVTZ
 ------------------

 ------------
 H2O_H2O_1575
 ------------
 Symbolic Z-matrix:
 Charge =  0 Multiplicity = 1

                         Standard orientation:
 ---------------------------------------------------------------------
 Center     Atomic      Atomic             Coordinates (Angstroms)
 Number     Number       Type             X           Y           Z
 ---------------------------------------------------------------------
      1          8           0        0.000000   -0.000000    1.641241
      2          1           0        0.000000    0.799571    2.212373
      3          1           0       -0.000000   -0.799571    2.212373
      4          8           0        0.000000   -0.000000   -1.641241
      5          1           0       -0.000000   -0.799571   -2.212373
      6          1           0        0.000000    0.799571   -2.212373
 ---------------------------------------------------------------------

 SCF Done:  E(RHF) =  -152.103064813     A.U. after   10 cycles
 E2 =    -0.5269252333D+00 EUMP2 =    -0.15262999004639D+03
 CCSD(T)
 CCSD(T)= -0.15265726339D+03

 The electronic state is 1-AG.
 Alpha  occ. eigenvalues --  -20.54102 -20.54102  -1.31440  -1.31334  -0.68861
 Alpha  occ. eigenvalues --   -0.68775  -0.55387  -0.53790  -0.48602  -0.48345
 Alpha virt. eigenvalues --    0.14317   0.16362   0.20592   0.21599   0.52622
 Alpha virt. eigenvalues --    0.58122   0.58530   0.58671   0.62334   0.76012
 Alpha virt. eigenvalues --    0.78537   0.78636   0.79775   0.81878   0.85352

 Mulliken charges:
               1
     1  O   -0.479283
     2  H    0.239641
     3  H    0.239641
     4  O   -0.479283
     5  H    0.239641
     6  H    0.239641
 Sum of Mulliken charges =  -0.00000

 Dipole moment (field-independent basis, Debye):
    X=             -0.0000    Y=              0.0000    Z=             -0.0000  Tot=              0.0000
 Quadrupole moment (field-independent basis, Debye-Ang):
   XX=            -14.7088   YY=             -7.8732   ZZ=              0.8204
   XY=              0.0000   XZ=              0.0000   YZ=             -0.0000

 MP4DQ=-152.6389668\MP4SDQ=-152.6420908\CCSD=-152.6414764\CCSD(T)=-152.
 Normal termination of Gaussian 16 at Sat Aug 27 05:33:35 2022.
