 Gaussian 16, Revision A.03,
 Gaussian 16:  ES64L-G16RevA.03 25-Dec-2016

 ------------------
 #p CCSD(T)/cc-pVTZ
 ------------------

 ------------
 H2O_H2O_1637
 ------------
 Symbolic Z-matrix:
 Charge =  0 Multiplicity = 1

                         Standard orientation:
 ---------------------------------------------------------------------
 Center     Atomic      Atomic             Coordinates (Angstroms)
 Number     Number       Type             X           Y           Z
 ---------------------------------------------------------------------
      1          8           0        0.040420   -1.649753    0.000000
      2          1           0       -0.760341   -2.219216    0.000000
      3          1           0        0.838798   -2.222552    0.000000
      4          8           0        0.040420    1.683040    0.000000
      5          1           0        0.203973    2.651935    0.000000
      6          1           0       -0.929149    1.523532    0.000000
 ---------------------------------------------------------------------

 SCF Done:  E(RHF) =  -152.105043162     A.U. after   10 cycles
 E2 =    -0.5268161322D+00 EUMP2 =    -0.15263185929401D+03
 CCSD(T)
 CCSD(T)= -0.15265907925D+03

 The electronic state is 1-A'.
 Alpha  occ. eigenvalues --  -20.54806 -20.54067  -1.32088  -1.31327  -0.69513
 Alpha  occ. eigenvalues --   -0.68722  -0.55649  -0.54369  -0.49201  -0.48421
 Alpha virt. eigenvalues --    0.13867   0.16407   0.20307   0.22106   0.53334
 Alpha virt. eigenvalues --    0.55907   0.57819   0.58639   0.64182   0.76967
 Alpha virt. eigenvalues --    0.78295   0.78595   0.79364   0.81544   0.85412

 Mulliken charges:
               1
     1  O   -0.486844
     2  H    0.239353
     3  H    0.249220
     4  O   -0.487805
     5  H    0.236263
     6  H    0.249813
 Sum of Mulliken charges =  -0.00000

 Dipole moment (field-independent basis, Debye):
    X=             -1.3396    Y=             -0.6238    Z=              0.0000  Tot=              1.4777
 Quadrupole moment (field-independent basis, Debye-Ang):
   XX=             -8.8686   YY=              0.1323   ZZ=            -14.7125
   XY=             -1.5110   XZ=              0.0000   YZ=              0.0000

 Normal termination of Gaussian 16 at Sat Aug 27 05:55:09 2022.
