 Gaussian 16, Revision A.03,
 Gaussian 16:  ES64L-G16RevA.03 25-Dec-2016

 ------------------
 #p CCSD(T)/cc-pVTZ
 ------------------

 ------------
 H2O_H2O_2824
 ------------
 Symbolic Z-matrix:
 Charge =  0 Multiplicity = 1

                         Standard orientation:
 ---------------------------------------------------------------------
 Center     Atomic      Atomic             Coordinates (Angstroms)
 Number     Number       Type             X           Y           Z
 ---------------------------------------------------------------------
      1          8           0        0.057236   -2.230839    0.000000
      2          1           0       -0.743561   -2.800251    0.000000
      3          1           0        0.855578   -2.803688    0.000000
      4          8           0        0.057236    2.344820    0.000000
      5          1           0       -0.512177    3.145617    0.000000
      6          1           0       -0.515613    1.546478    0.000000
 ---------------------------------------------------------------------

 SCF Done:  E(RHF) =  -152.108395001     A.U. after   10 cycles
 E2 =    -0.5259668019D+00 EUMP2 =    -0.15263436180325D+03
 CCSD(T)
 CCSD(T)= -0.15266154192D+03

 The electronic state is 1-A'.
 Alpha  occ. eigenvalues --  -20.56007 -20.54621  -1.33294  -1.31924  -0.70699
 Alpha  occ. eigenvalues --   -0.69305  -0.56774  -0.55389  -0.50412  -0.49047
 Alpha virt. eigenvalues --    0.13089   0.15536   0.19853   0.21837   0.53867
 Alpha virt. eigenvalues --    0.54862   0.56883   0.58158   0.66665   0.70814
 Alpha virt. eigenvalues --    0.78484   0.79410   0.79803   0.80245   0.82763

 Mulliken charges:
               1
     1  O   -0.510707
     2  H    0.253172
     3  H    0.258876
     4  O   -0.512568
     5  H    0.249397
     6  H    0.261829
 Sum of Mulliken charges =  -0.00000

 Dipole moment (field-independent basis, Debye):
    X=             -1.9507    Y=             -2.0480    Z=              0.0000  Tot=              2.8284
 Quadrupole moment (field-independent basis, Debye-Ang):
   XX=             -9.8619   YY=             -0.9529   ZZ=            -14.7157
   XY=             -4.7766   XZ=              0.0000   YZ=              0.0000

 Normal termination of Gaussian 16 at Fri Aug 26 16:30:58 2022.
