 Gaussian 16, Revision A.03,
 Gaussian 16:  ES64L-G16RevA.03 25-Dec-2016

 ------------------
 #p CCSD(T)/cc-pVTZ
 ------------------

 ------------
 H2O_H2O_1696
 ------------
 Symbolic Z-matrix:
 Charge =  0 Multiplicity = 1

                         Standard orientation:
 ---------------------------------------------------------------------
 Center     Atomic      Atomic             Coordinates (Angstroms)
 Number     Number       Type             X           Y           Z
 ---------------------------------------------------------------------
      1          8           0        0.056147   -1.644663    0.000000
      2          1           0       -0.745050   -2.213512    0.000000
      3          1           0        0.854085   -2.218074    0.000000
      4          8           0        0.056147    1.736285    0.000000
      5          1           0       -0.345466    2.633065    0.000000
      6          1           0       -0.661916    1.065545    0.000000
 ---------------------------------------------------------------------

 SCF Done:  E(RHF) =  -152.108504872     A.U. after   10 cycles
 E2 =    -0.5267020878D+00 EUMP2 =    -0.15263520695934D+03
 CCSD(T)
 CCSD(T)= -0.15266234134D+03

 The electronic state is 1-A'.
 Alpha  occ. eigenvalues --  -20.56052 -20.53813  -1.33325  -1.31104  -0.70734
 Alpha  occ. eigenvalues --   -0.68488  -0.56756  -0.54566  -0.50444  -0.48235
 Alpha virt. eigenvalues --    0.13152   0.16709   0.19782   0.23981   0.53396
 Alpha virt. eigenvalues --    0.55240   0.56808   0.58239   0.66474   0.75560
 Alpha virt. eigenvalues --    0.77106   0.77302   0.79321   0.81174   0.84444

 Mulliken charges:
               1
     1  O   -0.495505
     2  H    0.245322
     3  H    0.257342
     4  O   -0.509512
     5  H    0.240441
     6  H    0.261911
 Sum of Mulliken charges =  -0.00000

 Dipole moment (field-independent basis, Debye):
    X=             -1.8654    Y=             -1.7433    Z=              0.0000  Tot=              2.5532
 Quadrupole moment (field-independent basis, Debye-Ang):
   XX=             -9.7863   YY=             -2.1650   ZZ=            -14.7205
   XY=             -3.1732   XZ=              0.0000   YZ=              0.0000

 Normal termination of Gaussian 16 at Sat Aug 27 06:16:17 2022.
