 Gaussian 16, Revision A.03,
 Gaussian 16:  ES64L-G16RevA.03 25-Dec-2016

 ------------------
 #p CCSD(T)/cc-pVTZ
 ------------------

 ------------
 H2O_H2O_4704
 ------------
 Symbolic Z-matrix:
 Charge =  0 Multiplicity = 1

                         Standard orientation:
 ---------------------------------------------------------------------
 Center     Atomic      Atomic             Coordinates (Angstroms)
 Number     Number       Type             X           Y           Z
 ---------------------------------------------------------------------
      1          8           0        0.014783   -3.301122    0.000000
      2          1           0       -0.785008   -3.871946    0.000000
      3          1           0        0.814134   -3.872562    0.000000
      4          8           0        0.014783    3.305003    0.000000
      5          1           0        0.639582    4.063378    0.000000
      6          1           0       -0.905231    3.650085    0.000000
 ---------------------------------------------------------------------

 SCF Done:  E(RHF) =  -152.106923603     A.U. after   10 cycles
 E2 =    -0.5259181767D+00 EUMP2 =    -0.15263284177938D+03
 CCSD(T)
 CCSD(T)= -0.15266007242D+03

 The electronic state is 1-A'.
 Alpha  occ. eigenvalues --  -20.55246 -20.55226  -1.32542  -1.32522  -0.69949
 Alpha  occ. eigenvalues --   -0.69928  -0.55967  -0.55947  -0.49650  -0.49630
 Alpha virt. eigenvalues --    0.14389   0.14414   0.20440   0.20463   0.54619
 Alpha virt. eigenvalues --    0.54641   0.57494   0.57515   0.68255   0.68286
 Alpha virt. eigenvalues --    0.79229   0.79249   0.80671   0.80693   0.82597

 Mulliken charges:
               1
     1  O   -0.506006
     2  H    0.252708
     3  H    0.253298
     4  O   -0.505988
     5  H    0.252571
     6  H    0.253416
 Sum of Mulliken charges =  -0.00000

 Dipole moment (field-independent basis, Debye):
    X=             -0.5082    Y=             -0.0676    Z=              0.0000  Tot=              0.5127
 Quadrupole moment (field-independent basis, Debye-Ang):
   XX=             -7.9392   YY=             14.0731   ZZ=            -14.7108
   XY=             -1.2318   XZ=              0.0000   YZ=              0.0000

 Normal termination of Gaussian 16 at Sat Aug 27 08:51:01 2022.
