 Gaussian 16, Revision A.03,
 Gaussian 16:  ES64L-G16RevA.03 25-Dec-2016

 ------------------
 #p CCSD(T)/cc-pVTZ
 ------------------

 ------------
 H2O_H2O_2419
 ------------
 Symbolic Z-matrix:
 Charge =  0 Multiplicity = 1

                         Standard orientation:
 ---------------------------------------------------------------------
 Center     Atomic      Atomic             Coordinates (Angstroms)
 Number     Number       Type             X           Y           Z
 ---------------------------------------------------------------------
      1          8           0        0.054169   -2.038042    0.000000
      2          1           0       -0.746680   -2.607380    0.000000
      3          1           0        0.852458   -2.610965    0.000000
      4          8           0        0.054169    2.115309    0.000000
      5          1           0       -0.227530    3.056666    0.000000
      6          1           0       -0.744951    1.543545    0.000000
 ---------------------------------------------------------------------

 SCF Done:  E(RHF) =  -152.107571677     A.U. after   10 cycles
 E2 =    -0.5261212212D+00 EUMP2 =    -0.15263369289869D+03
 CCSD(T)
 CCSD(T)= -0.15266088420D+03

 The electronic state is 1-A'.
 Alpha  occ. eigenvalues --  -20.55642 -20.54484  -1.32924  -1.31774  -0.70334
 Alpha  occ. eigenvalues --   -0.69150  -0.56360  -0.55212  -0.50037  -0.48893
 Alpha virt. eigenvalues --    0.13300   0.15781   0.20029   0.21969   0.54065
 Alpha virt. eigenvalues --    0.54581   0.57190   0.58316   0.65794   0.73722
 Alpha virt. eigenvalues --    0.78793   0.79546   0.80015   0.82055   0.82534

 Mulliken charges:
               1
     1  O   -0.505001
     2  H    0.249542
     3  H    0.257012
     4  O   -0.507823
     5  H    0.246530
     6  H    0.259740
 Sum of Mulliken charges =  -0.00000

 Dipole moment (field-independent basis, Debye):
    X=             -1.8352    Y=             -1.4033    Z=              0.0000  Tot=              2.3102
 Quadrupole moment (field-independent basis, Debye-Ang):
   XX=             -9.6489   YY=              0.6721   ZZ=            -14.7144
   XY=             -3.5141   XZ=              0.0000   YZ=              0.0000

 Normal termination of Gaussian 16 at Sat Aug 27 10:27:17 2022.
