 Gaussian 16, Revision A.03,
 Gaussian 16:  ES64L-G16RevA.03 25-Dec-2016

 ------------------
 #p CCSD(T)/cc-pVTZ
 ------------------

 ------------
 H2O_H2O_2226
 ------------
 Symbolic Z-matrix:
 Charge =  0 Multiplicity = 1

                         Standard orientation:
 ---------------------------------------------------------------------
 Center     Atomic      Atomic             Coordinates (Angstroms)
 Number     Number       Type             X           Y           Z
 ---------------------------------------------------------------------
      1          8           0        0.003735   -1.986803    0.000000
      2          1           0       -0.795928   -2.557805    0.000000
      3          1           0        0.803214   -2.558064    0.000000
      4          8           0        0.003735    1.987046    0.000000
      5          1           0        0.764342    2.609126    0.000000
      6          1           0       -0.831394    2.504796    0.000000
 ---------------------------------------------------------------------

 SCF Done:  E(RHF) =  -152.105056033     A.U. after   10 cycles
 E2 =    -0.5263075835D+00 EUMP2 =    -0.15263136361630D+03
 CCSD(T)
 CCSD(T)= -0.15265861360D+03

 The electronic state is 1-A'.
 Alpha  occ. eigenvalues --  -20.54551 -20.54547  -1.31840  -1.31824  -0.69258
 Alpha  occ. eigenvalues --   -0.69242  -0.55342  -0.54950  -0.48954  -0.48903
 Alpha virt. eigenvalues --    0.14222   0.15631   0.20637   0.21121   0.54354
 Alpha virt. eigenvalues --    0.56283   0.57902   0.58169   0.62161   0.74741
 Alpha virt. eigenvalues --    0.79525   0.80336   0.80815   0.81209   0.82014

 Mulliken charges:
               1
     1  O   -0.493658
     2  H    0.246531
     3  H    0.247131
     4  O   -0.493651
     5  H    0.246466
     6  H    0.247181
 Sum of Mulliken charges =  -0.00000

 Dipole moment (field-independent basis, Debye):
    X=             -0.1262    Y=             -0.0044    Z=              0.0000  Tot=              0.1262
 Quadrupole moment (field-independent basis, Debye-Ang):
   XX=             -7.8457   YY=              3.7393   ZZ=            -14.7093
   XY=             -0.1409   XZ=              0.0000   YZ=              0.0000

 Normal termination of Gaussian 16 at Sat Aug 27 09:19:11 2022.
