 Gaussian 16, Revision A.03,
 Gaussian 16:  ES64L-G16RevA.03 25-Dec-2016

 ------------------
 #p CCSD(T)/cc-pVTZ
 ------------------

 ------------
 H2O_H2O_4509
 ------------
 Symbolic Z-matrix:
 Charge =  0 Multiplicity = 1

                         Standard orientation:
 ---------------------------------------------------------------------
 Center     Atomic      Atomic             Coordinates (Angstroms)
 Number     Number       Type             X           Y           Z
 ---------------------------------------------------------------------
      1          8           0        0.031739   -3.186437    0.000000
      2          1           0       -0.768320   -3.756885    0.000000
      3          1           0        0.830821   -3.758252    0.000000
      4          8           0        0.031739    3.205633    0.000000
      5          1           0        0.380039    4.124433    0.000000
      6          1           0       -0.950358    3.237134    0.000000
 ---------------------------------------------------------------------

 SCF Done:  E(RHF) =  -152.106980063     A.U. after   10 cycles
 E2 =    -0.5259158723D+00 EUMP2 =    -0.15263289593488D+03
 CCSD(T)
 CCSD(T)= -0.15266012522D+03

 The electronic state is 1-A'.
 Alpha  occ. eigenvalues --  -20.55299 -20.55191  -1.32595  -1.32487  -0.70002
 Alpha  occ. eigenvalues --   -0.69891  -0.56023  -0.55914  -0.49704  -0.49595
 Alpha virt. eigenvalues --    0.14340   0.14453   0.20395   0.20509   0.54565
 Alpha virt. eigenvalues --    0.54682   0.57445   0.57554   0.68193   0.68316
 Alpha virt. eigenvalues --    0.79175   0.79283   0.80615   0.80734   0.82542

 Mulliken charges:
               1
     1  O   -0.506347
     2  H    0.252478
     3  H    0.253869
     4  O   -0.506253
     5  H    0.252084
     6  H    0.254169
 Sum of Mulliken charges =   0.00000

 Dipole moment (field-independent basis, Debye):
    X=             -1.0907    Y=             -0.3350    Z=              0.0000  Tot=              1.1410
 Quadrupole moment (field-independent basis, Debye-Ang):
   XX=             -8.4366   YY=             11.9942   ZZ=            -14.7110
   XY=             -2.6823   XZ=              0.0000   YZ=              0.0000

 Normal termination of Gaussian 16 at Sat Aug 27 07:43:34 2022.
