 Gaussian 16, Revision A.03,
 Gaussian 16:  ES64L-G16RevA.03 25-Dec-2016

 ------------------
 #p CCSD(T)/cc-pVTZ
 ------------------

 -----------
 H2O_H2O_694
 -----------
 Symbolic Z-matrix:
 Charge =  0 Multiplicity = 1

                         Standard orientation:
 ---------------------------------------------------------------------
 Center     Atomic      Atomic             Coordinates (Angstroms)
 Number     Number       Type             X           Y           Z
 ---------------------------------------------------------------------
      1          8           0        0.054237   -1.120725    0.000000
      2          1           0       -0.747621   -1.688641    0.000000
      3          1           0        0.851508   -1.695063    0.000000
      4          8           0        0.054237    1.197799    0.000000
      5          1           0       -0.225791    2.139653    0.000000
      6          1           0       -0.745895    0.627453    0.000000
 ---------------------------------------------------------------------

 SCF Done:  E(RHF) =  -152.091250274     A.U. after   11 cycles
 E2 =    -0.5313247804D+00 EUMP2 =    -0.15262257505446D+03
 CCSD(T)
 CCSD(T)= -0.15264955133D+03

 The electronic state is 1-A'.
 Alpha  occ. eigenvalues --  -20.55506 -20.52031  -1.33683  -1.29348  -0.71060
 Alpha  occ. eigenvalues --   -0.68337  -0.55598  -0.52138  -0.50678  -0.46334
 Alpha virt. eigenvalues --    0.13456   0.18119   0.19697   0.24946   0.51665
 Alpha virt. eigenvalues --    0.56703   0.60250   0.61544   0.71616   0.74285
 Alpha virt. eigenvalues --    0.78014   0.82833   0.84142   0.84199   0.87422

 Mulliken charges:
               1
     1  O   -0.450422
     2  H    0.223403
     3  H    0.244007
     4  O   -0.476778
     5  H    0.205692
     6  H    0.254098
 Sum of Mulliken charges =  -0.00000

 Dipole moment (field-independent basis, Debye):
    X=             -1.6577    Y=             -1.6009    Z=              0.0000  Tot=              2.3045
 Quadrupole moment (field-independent basis, Debye-Ang):
   XX=             -9.6963   YY=             -4.9232   ZZ=            -14.7151
   XY=             -1.8765   XZ=              0.0000   YZ=              0.0000

 Normal termination of Gaussian 16 at Fri Aug 26 19:09:35 2022.
