 Gaussian 16, Revision A.03,
 Gaussian 16:  ES64L-G16RevA.03 25-Dec-2016

 ------------------
 #p CCSD(T)/cc-pVTZ
 ------------------

 ------------
 H2O_H2O_2641
 ------------
 Symbolic Z-matrix:
 Charge =  0 Multiplicity = 1

                         Standard orientation:
 ---------------------------------------------------------------------
 Center     Atomic      Atomic             Coordinates (Angstroms)
 Number     Number       Type             X           Y           Z
 ---------------------------------------------------------------------
      1          8           0        0.049517   -2.168754    0.000000
      2          1           0       -0.751160   -2.738336    0.000000
      3          1           0        0.847979   -2.741435    0.000000
      4          8           0        0.049517    2.225676    0.000000
      5          1           0       -0.043417    3.203873    0.000000
      6          1           0       -0.845670    1.820527    0.000000
 ---------------------------------------------------------------------

 SCF Done:  E(RHF) =  -152.106964078     A.U. after   10 cycles
 E2 =    -0.5260626598D+00 EUMP2 =    -0.15263302673816D+03
 CCSD(T)
 CCSD(T)= -0.15266024217D+03

 The electronic state is 1-A'.
 Alpha  occ. eigenvalues --  -20.55378 -20.54647  -1.32667  -1.31936  -0.70077
 Alpha  occ. eigenvalues --   -0.69323  -0.56085  -0.55355  -0.49776  -0.49049
 Alpha virt. eigenvalues --    0.13636   0.15469   0.20194   0.21380   0.54090
 Alpha virt. eigenvalues --    0.54936   0.57389   0.58033   0.65982   0.72629
 Alpha virt. eigenvalues --    0.79085   0.79836   0.80133   0.81773   0.82965

 Mulliken charges:
               1
     1  O   -0.504738
     2  H    0.249578
     3  H    0.255684
     4  O   -0.505036
     5  H    0.247350
     6  H    0.257162
 Sum of Mulliken charges =  -0.00000

 Dipole moment (field-independent basis, Debye):
    X=             -1.6833    Y=             -1.0217    Z=              0.0000  Tot=              1.9691
 Quadrupole moment (field-independent basis, Debye-Ang):
   XX=             -9.3483   YY=              2.5933   ZZ=            -14.7124
   XY=             -3.0964   XZ=              0.0000   YZ=              0.0000

 Normal termination of Gaussian 16 at Fri Aug 26 14:38:42 2022.
