 Gaussian 16, Revision A.03,
 Gaussian 16:  ES64L-G16RevA.03 25-Dec-2016

 ------------------
 #p CCSD(T)/cc-pVTZ
 ------------------

 ------------
 H2O_H2O_1585
 ------------
 Symbolic Z-matrix:
 Charge =  0 Multiplicity = 1

                         Standard orientation:
 ---------------------------------------------------------------------
 Center     Atomic      Atomic             Coordinates (Angstroms)
 Number     Number       Type             X           Y           Z
 ---------------------------------------------------------------------
      1          8           0        0.034790   -1.628489    0.000000
      2          1           0       -0.765822   -2.198161    0.000000
      3          1           0        0.833317   -2.201079    0.000000
      4          8           0        0.034790    1.651966    0.000000
      5          1           0        0.323164    2.591300    0.000000
      6          1           0       -0.947296    1.620120    0.000000
 ---------------------------------------------------------------------

 SCF Done:  E(RHF) =  -152.104338021     A.U. after   10 cycles
 E2 =    -0.5269001398D+00 EUMP2 =    -0.15263123816072D+03
 CCSD(T)
 CCSD(T)= -0.15265847474D+03

 The electronic state is 1-A'.
 Alpha  occ. eigenvalues --  -20.54577 -20.54053  -1.31865  -1.31313  -0.69291
 Alpha  occ. eigenvalues --   -0.68719  -0.55558  -0.54154  -0.48984  -0.48390
 Alpha virt. eigenvalues --    0.14003   0.16423   0.20394   0.21960   0.53050
 Alpha virt. eigenvalues --    0.56610   0.57977   0.58667   0.64096   0.77021
 Alpha virt. eigenvalues --    0.78282   0.78725   0.79375   0.81747   0.85590

 Mulliken charges:
               1
     1  O   -0.484104
     2  H    0.238145
     3  H    0.247116
     4  O   -0.483730
     5  H    0.235566
     6  H    0.247006
 Sum of Mulliken charges =  -0.00000

 Dipole moment (field-independent basis, Debye):
    X=             -1.1511    Y=             -0.4403    Z=              0.0000  Tot=              1.2325
 Quadrupole moment (field-independent basis, Debye-Ang):
   XX=             -8.6133   YY=              0.2303   ZZ=            -14.7114
   XY=             -1.1644   XZ=              0.0000   YZ=              0.0000

 Normal termination of Gaussian 16 at Sat Aug 27 05:37:02 2022.
