 Gaussian 16, Revision A.03,
 Gaussian 16:  ES64L-G16RevA.03 25-Dec-2016

 ------------------
 #p CCSD(T)/cc-pVTZ
 ------------------

 ------------
 H2O_H2O_1883
 ------------
 Symbolic Z-matrix:
 Charge =  0 Multiplicity = 1

                         Standard orientation:
 ---------------------------------------------------------------------
 Center     Atomic      Atomic             Coordinates (Angstroms)
 Number     Number       Type             X           Y           Z
 ---------------------------------------------------------------------
      1          8           0        0.028567   -1.792522    0.000000
      2          1           0       -0.771783   -2.362562    0.000000
      3          1           0        0.827357   -2.364746    0.000000
      4          8           0        0.028567    1.807748    0.000000
      5          1           0        0.436672    2.701591    0.000000
      6          1           0       -0.949318    1.903913    0.000000
 ---------------------------------------------------------------------

 SCF Done:  E(RHF) =  -152.104876686     A.U. after   10 cycles
 E2 =    -0.5265529240D+00 EUMP2 =    -0.15263142960956D+03
 CCSD(T)
 CCSD(T)= -0.15265866693D+03

 The electronic state is 1-A'.
 Alpha  occ. eigenvalues --  -20.54599 -20.54313  -1.31879  -1.31583  -0.69301
 Alpha  occ. eigenvalues --   -0.68992  -0.55427  -0.54624  -0.48987  -0.48672
 Alpha virt. eigenvalues --    0.14028   0.16056   0.20484   0.21525   0.53230
 Alpha virt. eigenvalues --    0.56209   0.57951   0.58378   0.62521   0.76203
 Alpha virt. eigenvalues --    0.79030   0.79359   0.80637   0.80945   0.83556

 Mulliken charges:
               1
     1  O   -0.489451
     2  H    0.242037
     3  H    0.247924
     4  O   -0.489600
     5  H    0.240858
     6  H    0.248232
 Sum of Mulliken charges =  -0.00000

 Dipole moment (field-independent basis, Debye):
    X=             -0.9564    Y=             -0.2813    Z=              0.0000  Tot=              0.9969
 Quadrupole moment (field-independent basis, Debye-Ang):
   XX=             -8.3545   YY=              1.7373   ZZ=            -14.7101
   XY=             -1.0335   XZ=              0.0000   YZ=              0.0000

 Normal termination of Gaussian 16 at Sat Aug 27 07:20:55 2022.
