 Gaussian 16, Revision A.03,
 Gaussian 16:  ES64L-G16RevA.03 25-Dec-2016

 ------------------
 #p CCSD(T)/cc-pVTZ
 ------------------

 ------------
 H2O_H2O_2509
 ------------
 Symbolic Z-matrix:
 Charge =  0 Multiplicity = 1

                         Standard orientation:
 ---------------------------------------------------------------------
 Center     Atomic      Atomic             Coordinates (Angstroms)
 Number     Number       Type             X           Y           Z
 ---------------------------------------------------------------------
      1          8           0        0.031743   -2.122779    0.000000
      2          1           0       -0.768559   -2.692886    0.000000
      3          1           0        0.830581   -2.694934    0.000000
      4          8           0        0.031743    2.141948    0.000000
      5          1           0        0.380435    3.060598    0.000000
      6          1           0       -0.950340    2.173866    0.000000
 ---------------------------------------------------------------------

 SCF Done:  E(RHF) =  -152.105925994     A.U. after   10 cycles
 E2 =    -0.5261507244D+00 EUMP2 =    -0.15263207671843D+03
 CCSD(T)
 CCSD(T)= -0.15265931547D+03

 The electronic state is 1-A'.
 Alpha  occ. eigenvalues --  -20.54904 -20.54651  -1.32192  -1.31936  -0.69605
 Alpha  occ. eigenvalues --   -0.69340  -0.55583  -0.55281  -0.49294  -0.49040
 Alpha virt. eigenvalues --    0.14057   0.15431   0.20480   0.21107   0.54299
 Alpha virt. eigenvalues --    0.55439   0.57738   0.58024   0.64705   0.73267
 Alpha virt. eigenvalues --    0.79475   0.79932   0.80816   0.81205   0.82469

 Mulliken charges:
               1
     1  O   -0.499471
     2  H    0.247669
     3  H    0.251946
     4  O   -0.499095
     5  H    0.246651
     6  H    0.252300
 Sum of Mulliken charges =  -0.00000

 Dipole moment (field-independent basis, Debye):
    X=             -1.0771    Y=             -0.3440    Z=              0.0000  Tot=              1.1307
 Quadrupole moment (field-independent basis, Debye-Ang):
   XX=             -8.4531   YY=              4.1311   ZZ=            -14.7103
   XY=             -1.5396   XZ=              0.0000   YZ=              0.0000

 87455\MP4DQ=-152.641171\MP4SDQ=-152.6442445\CCSD=-152.6436498\CCSD(T)=
 Normal termination of Gaussian 16 at Fri Aug 26 13:08:00 2022.
