 Gaussian 16, Revision A.03,
 Gaussian 16:  ES64L-G16RevA.03 25-Dec-2016

 ------------------
 #p CCSD(T)/cc-pVTZ
 ------------------

 ------------
 H2O_H2O_3559
 ------------
 Symbolic Z-matrix:
 Charge =  0 Multiplicity = 1

                         Standard orientation:
 ---------------------------------------------------------------------
 Center     Atomic      Atomic             Coordinates (Angstroms)
 Number     Number       Type             X           Y           Z
 ---------------------------------------------------------------------
      1          8           0        0.031740   -2.681198    0.000000
      2          1           0       -0.768410   -3.251518    0.000000
      3          1           0        0.830731   -3.253141    0.000000
      4          8           0        0.031740    2.700384    0.000000
      5          1           0        0.380188    3.619128    0.000000
      6          1           0       -0.950351    2.732042    0.000000
 ---------------------------------------------------------------------

 SCF Done:  E(RHF) =  -152.106645292     A.U. after   10 cycles
 E2 =    -0.5259657480D+00 EUMP2 =    -0.15263261104050D+03
 CCSD(T)
 CCSD(T)= -0.15265984620D+03

 The electronic state is 1-A'.
 Alpha  occ. eigenvalues --  -20.55158 -20.55005  -1.32453  -1.32298  -0.69862
 Alpha  occ. eigenvalues --   -0.69702  -0.55864  -0.55710  -0.49559  -0.49405
 Alpha virt. eigenvalues --    0.14363   0.14694   0.20466   0.20676   0.54688
 Alpha virt. eigenvalues --    0.54891   0.57556   0.57719   0.67994   0.68948
 Alpha virt. eigenvalues --    0.79319   0.79471   0.80759   0.80938   0.82712

 Mulliken charges:
               1
     1  O   -0.504396
     2  H    0.251065
     3  H    0.253334
     4  O   -0.504186
     5  H    0.250464
     6  H    0.253719
 Sum of Mulliken charges =  -0.00000

 Dipole moment (field-independent basis, Debye):
    X=             -1.0871    Y=             -0.3371    Z=              0.0000  Tot=              1.1381
 Quadrupole moment (field-independent basis, Debye-Ang):
   XX=             -8.4409   YY=              8.2799   ZZ=            -14.7106
   XY=             -2.1370   XZ=              0.0000   YZ=              0.0000

 Normal termination of Gaussian 16 at Sat Aug 27 01:29:33 2022.
