 Gaussian 16, Revision A.03,
 Gaussian 16:  ES64L-G16RevA.03 25-Dec-2016

 ------------------
 #p CCSD(T)/cc-pVTZ
 ------------------

 ------------
 H2O_H2O_4144
 ------------
 Symbolic Z-matrix:
 Charge =  0 Multiplicity = 1

                         Standard orientation:
 ---------------------------------------------------------------------
 Center     Atomic      Atomic             Coordinates (Angstroms)
 Number     Number       Type             X           Y           Z
 ---------------------------------------------------------------------
      1          8           0        0.054142   -2.955421    0.000000
      2          1           0       -0.746316   -3.525309    0.000000
      3          1           0        0.852824   -3.527796    0.000000
      4          8           0        0.054142    3.032762    0.000000
      5          1           0       -0.228203    3.973924    0.000000
      6          1           0       -0.744584    2.460450    0.000000
 ---------------------------------------------------------------------

 SCF Done:  E(RHF) =  -152.107420251     A.U. after   10 cycles
 E2 =    -0.5258851632D+00 EUMP2 =    -0.15263330541445D+03
 CCSD(T)
 CCSD(T)= -0.15266052476D+03

 The electronic state is 1-A'.
 Alpha  occ. eigenvalues --  -20.55596 -20.55094  -1.32895  -1.32391  -0.70302
 Alpha  occ. eigenvalues --   -0.69790  -0.56343  -0.55836  -0.50007  -0.49505
 Alpha virt. eigenvalues --    0.14044   0.14608   0.20150   0.20701   0.54256
 Alpha virt. eigenvalues --    0.54785   0.57179   0.57680   0.67770   0.68437
 Alpha virt. eigenvalues --    0.78873   0.79367   0.80302   0.80812   0.82281

 Mulliken charges:
               1
     1  O   -0.508977
     2  H    0.253106
     3  H    0.255875
     4  O   -0.508635
     5  H    0.251715
     6  H    0.256915
 Sum of Mulliken charges =  -0.00000

 Dipole moment (field-independent basis, Debye):
    X=             -1.8594    Y=             -1.3544    Z=              0.0000  Tot=              2.3004
 Quadrupole moment (field-independent basis, Debye-Ang):
   XX=             -9.6484   YY=              5.5483   ZZ=            -14.7121
   XY=             -5.1953   XZ=              0.0000   YZ=              0.0000

 Normal termination of Gaussian 16 at Sat Aug 27 05:37:42 2022.
