 Gaussian 16, Revision A.03,
 Gaussian 16:  ES64L-G16RevA.03 25-Dec-2016

 ------------------
 #p CCSD(T)/cc-pVTZ
 ------------------

 ------------
 H2O_H2O_3083
 ------------
 Symbolic Z-matrix:
 Charge =  0 Multiplicity = 1

                         Standard orientation:
 ---------------------------------------------------------------------
 Center     Atomic      Atomic             Coordinates (Angstroms)
 Number     Number       Type             X           Y           Z
 ---------------------------------------------------------------------
      1          8           0        0.028564   -2.430715    0.000000
      2          1           0       -0.771582   -3.001041    0.000000
      3          1           0        0.827559   -3.002653    0.000000
      4          8           0        0.028564    2.445961    0.000000
      5          1           0        0.436350    3.339951    0.000000
      6          1           0       -0.949355    2.541776    0.000000
 ---------------------------------------------------------------------

 SCF Done:  E(RHF) =  -152.106309374     A.U. after   10 cycles
 E2 =    -0.5260208035D+00 EUMP2 =    -0.15263233017787D+03
 CCSD(T)
 CCSD(T)= -0.15265957059D+03

 The electronic state is 1-A'.
 Alpha  occ. eigenvalues --  -20.55023 -20.54874  -1.32316  -1.32165  -0.69726
 Alpha  occ. eigenvalues --   -0.69570  -0.55712  -0.55558  -0.49420  -0.49270
 Alpha virt. eigenvalues --    0.14308   0.14946   0.20512   0.20808   0.54724
 Alpha virt. eigenvalues --    0.55087   0.57655   0.57830   0.67164   0.70182
 Alpha virt. eigenvalues --    0.79451   0.79609   0.80867   0.81124   0.82683

 Mulliken charges:
               1
     1  O   -0.502408
     2  H    0.249869
     3  H    0.252554
     4  O   -0.502136
     5  H    0.249232
     6  H    0.252889
 Sum of Mulliken charges =  -0.00000

 Dipole moment (field-independent basis, Debye):
    X=             -0.9753    Y=             -0.2695    Z=              0.0000  Tot=              1.0118
 Quadrupole moment (field-independent basis, Debye-Ang):
   XX=             -8.3253   YY=              6.6305   ZZ=            -14.7103
   XY=             -1.6441   XZ=              0.0000   YZ=              0.0000

 Normal termination of Gaussian 16 at Fri Aug 26 19:15:50 2022.
