 Gaussian 16, Revision A.03,
 Gaussian 16:  ES64L-G16RevA.03 25-Dec-2016

 ------------------
 #p CCSD(T)/cc-pVTZ
 ------------------

 -----------
 H2O_H2O_208
 -----------
 Symbolic Z-matrix:
 Charge =  0 Multiplicity = 1

                         Standard orientation:
 ---------------------------------------------------------------------
 Center     Atomic      Atomic             Coordinates (Angstroms)
 Number     Number       Type             X           Y           Z
 ---------------------------------------------------------------------
      1          8           0        0.028577   -0.901736    0.000000
      2          1           0       -0.772535   -1.470704    0.000000
      3          1           0        0.826601   -1.475028    0.000000
      4          8           0        0.028577    0.916885    0.000000
      5          1           0        0.437878    1.810182    0.000000
      6          1           0       -0.949178    1.014358    0.000000
 ---------------------------------------------------------------------

 SCF Done:  E(RHF) =  -152.010615940     A.U. after   11 cycles
 E2 =    -0.5406072778D+00 EUMP2 =    -0.15255122321787D+03
 CCSD(T)
 CCSD(T)= -0.15257736346D+03

 The electronic state is 1-A'.
 Alpha  occ. eigenvalues --  -20.51911 -20.51446  -1.33893  -1.27693  -0.70158
 Alpha  occ. eigenvalues --   -0.67292  -0.61689  -0.50684  -0.44124  -0.40370
 Alpha virt. eigenvalues --    0.14443   0.18697   0.20111   0.23341   0.52589
 Alpha virt. eigenvalues --    0.57396   0.58812   0.65400   0.70490   0.78207
 Alpha virt. eigenvalues --    0.79395   0.82945   0.83704   0.85808   0.88346

 Mulliken charges:
               1
     1  O   -0.408605
     2  H    0.194107
     3  H    0.212903
     4  O   -0.380654
     5  H    0.155614
     6  H    0.226635
 Sum of Mulliken charges =  -0.00000

 Dipole moment (field-independent basis, Debye):
    X=             -0.8050    Y=             -0.3429    Z=              0.0000  Tot=              0.8750
 Quadrupole moment (field-independent basis, Debye-Ang):
   XX=             -8.6811   YY=             -7.1193   ZZ=            -14.7310
   XY=             -0.3365   XZ=              0.0000   YZ=              0.0000

 Normal termination of Gaussian 16 at Fri Aug 26 14:04:56 2022.
