 Gaussian 16, Revision A.03,
 Gaussian 16:  ES64L-G16RevA.03 25-Dec-2016

 ------------------
 #p CCSD(T)/cc-pVTZ
 ------------------

 -----------
 H2O_H2O_465
 -----------
 Symbolic Z-matrix:
 Charge =  0 Multiplicity = 1

                         Standard orientation:
 ---------------------------------------------------------------------
 Center     Atomic      Atomic             Coordinates (Angstroms)
 Number     Number       Type             X           Y           Z
 ---------------------------------------------------------------------
      1          8           0        0.047587   -1.015552    0.000000
      2          1           0       -0.754221   -1.583539    0.000000
      3          1           0        0.844909   -1.589820    0.000000
      4          8           0        0.047587    1.065944    0.000000
      5          1           0        0.020784    2.048181    0.000000
      6          1           0       -0.872868    0.722042    0.000000
 ---------------------------------------------------------------------

 SCF Done:  E(RHF) =  -152.069207948     A.U. after   11 cycles
 E2 =    -0.5339544996D+00 EUMP2 =    -0.15260316244799D+03
 CCSD(T)
 CCSD(T)= -0.15263006034D+03

 The electronic state is 1-A'.
 Alpha  occ. eigenvalues --  -20.53959 -20.51933  -1.33200  -1.28898  -0.70468
 Alpha  occ. eigenvalues --   -0.68174  -0.56990  -0.50176  -0.48394  -0.45690
 Alpha virt. eigenvalues --    0.13945   0.18160   0.19962   0.24005   0.52757
 Alpha virt. eigenvalues --    0.57297   0.58989   0.62883   0.71812   0.75667
 Alpha virt. eigenvalues --    0.79803   0.82754   0.83053   0.84794   0.88078

 Mulliken charges:
               1
     1  O   -0.436816
     2  H    0.210138
     3  H    0.231518
     4  O   -0.428411
     5  H    0.181330
     6  H    0.242241
 Sum of Mulliken charges =  -0.00000

 Dipole moment (field-independent basis, Debye):
    X=             -1.3958    Y=             -1.0298    Z=              0.0000  Tot=              1.7346
 Quadrupole moment (field-independent basis, Debye-Ang):
   XX=             -9.3618   YY=             -5.4958   ZZ=            -14.7131
   XY=             -1.0761   XZ=              0.0000   YZ=              0.0000

 Normal termination of Gaussian 16 at Fri Aug 26 16:43:05 2022.
