 Gaussian 16, Revision A.03,
 Gaussian 16:  ES64L-G16RevA.03 25-Dec-2016

 ------------------
 #p CCSD(T)/cc-pVTZ
 ------------------

 ------------
 H2O_H2O_1049
 ------------
 Symbolic Z-matrix:
 Charge =  0 Multiplicity = 1

                         Standard orientation:
 ---------------------------------------------------------------------
 Center     Atomic      Atomic             Coordinates (Angstroms)
 Number     Number       Type             X           Y           Z
 ---------------------------------------------------------------------
      1          8           0        0.057322   -1.286920    0.000000
      2          1           0       -0.744333   -1.855123    0.000000
      3          1           0        0.854798   -1.860973    0.000000
      4          8           0        0.057322    1.400727    0.000000
      5          1           0       -0.510881    2.202383    0.000000
      6          1           0       -0.516732    0.603251    0.000000
 ---------------------------------------------------------------------

 SCF Done:  E(RHF) =  -152.107050880     A.U. after   10 cycles
 E2 =    -0.5290257017D+00 EUMP2 =    -0.15263607658161D+03
 CCSD(T)
 CCSD(T)= -0.15266302068D+03

 The electronic state is 1-A'.
 Alpha  occ. eigenvalues --  -20.57100 -20.52204  -1.34661  -1.29672  -0.71994
 Alpha  occ. eigenvalues --   -0.68092  -0.57281  -0.53199  -0.51715  -0.46774
 Alpha virt. eigenvalues --    0.12832   0.18002   0.19308   0.27063   0.50607
 Alpha virt. eigenvalues --    0.55931   0.58846   0.60377   0.70622   0.73588
 Alpha virt. eigenvalues --    0.74237   0.79834   0.82584   0.83535   0.86507

 Mulliken charges:
               1
     1  O   -0.477502
     2  H    0.242215
     3  H    0.258774
     4  O   -0.525128
     5  H    0.229419
     6  H    0.272221
 Sum of Mulliken charges =  -0.00000

 Dipole moment (field-independent basis, Debye):
    X=             -1.8329    Y=             -2.3843    Z=              0.0000  Tot=              3.0074
 Quadrupole moment (field-independent basis, Debye-Ang):
   XX=             -9.8537   YY=             -5.0579   ZZ=            -14.7234
   XY=             -2.9874   XZ=              0.0000   YZ=              0.0000

 Normal termination of Gaussian 16 at Sat Aug 27 01:40:20 2022.
