 Gaussian 16, Revision A.03,
 Gaussian 16:  ES64L-G16RevA.03 25-Dec-2016

 ------------------
 #p CCSD(T)/cc-pVTZ
 ------------------

 ------------
 H2O_H2O_4797
 ------------
 Symbolic Z-matrix:
 Charge =  0 Multiplicity = 1

                         Standard orientation:
 ---------------------------------------------------------------------
 Center     Atomic      Atomic             Coordinates (Angstroms)
 Number     Number       Type             X           Y           Z
 ---------------------------------------------------------------------
      1          8           0        0.056697   -3.289271    0.000000
      2          1           0       -0.743707   -3.859235    0.000000
      3          1           0        0.855433   -3.861570    0.000000
      4          8           0        0.056697    3.388422    0.000000
      5          1           0       -0.403917    4.256374    0.000000
      6          1           0       -0.614962    2.671219    0.000000
 ---------------------------------------------------------------------

 SCF Done:  E(RHF) =  -152.107576378     A.U. after   10 cycles
 E2 =    -0.5258604724D+00 EUMP2 =    -0.15263343685082D+03
 CCSD(T)
 CCSD(T)= -0.15266065363D+03

 The electronic state is 1-A'.
 Alpha  occ. eigenvalues --  -20.55704 -20.55197  -1.33004  -1.32496  -0.70410
 Alpha  occ. eigenvalues --   -0.69896  -0.56459  -0.55947  -0.50117  -0.49610
 Alpha virt. eigenvalues --    0.13983   0.14495   0.20069   0.20608   0.54150
 Alpha virt. eigenvalues --    0.54675   0.57083   0.57591   0.67711   0.68246
 Alpha virt. eigenvalues --    0.78763   0.79262   0.80191   0.80725   0.82117

 Mulliken charges:
               1
     1  O   -0.509881
     2  H    0.253927
     3  H    0.255955
     4  O   -0.509603
     5  H    0.252682
     6  H    0.256920
 Sum of Mulliken charges =  -0.00000

 Dipole moment (field-independent basis, Debye):
    X=             -1.9502    Y=             -1.7296    Z=              0.0000  Tot=              2.6067
 Quadrupole moment (field-independent basis, Debye-Ang):
   XX=             -9.8285   YY=              4.9668   ZZ=            -14.7124
   XY=             -6.4980   XZ=              0.0000   YZ=              0.0000

 Normal termination of Gaussian 16 at Sat Aug 27 09:23:19 2022.
