 Gaussian 16, Revision A.03,
 Gaussian 16:  ES64L-G16RevA.03 25-Dec-2016

 ------------------
 #p CCSD(T)/cc-pVTZ
 ------------------

 ------------
 H2O_H2O_4479
 ------------
 Symbolic Z-matrix:
 Charge =  0 Multiplicity = 1

                         Standard orientation:
 ---------------------------------------------------------------------
 Center     Atomic      Atomic             Coordinates (Angstroms)
 Number     Number       Type             X           Y           Z
 ---------------------------------------------------------------------
      1          8           0        0.014783   -3.181460    0.000000
      2          1           0       -0.785016   -3.752272    0.000000
      3          1           0        0.814125   -3.752911    0.000000
      4          8           0        0.014783    3.185340    0.000000
      5          1           0        0.639593    3.943705    0.000000
      6          1           0       -0.905226    3.530434    0.000000
 ---------------------------------------------------------------------

 SCF Done:  E(RHF) =  -152.106857874     A.U. after   10 cycles
 E2 =    -0.5259263196D+00 EUMP2 =    -0.15263278419406D+03
 CCSD(T)
 CCSD(T)= -0.15266001609D+03

 The electronic state is 1-A'.
 Alpha  occ. eigenvalues --  -20.55215 -20.55193  -1.32511  -1.32489  -0.69918
 Alpha  occ. eigenvalues --   -0.69895  -0.55933  -0.55911  -0.49618  -0.49596
 Alpha virt. eigenvalues --    0.14411   0.14444   0.20462   0.20487   0.54651
 Alpha virt. eigenvalues --    0.54675   0.57520   0.57543   0.68284   0.68338
 Alpha virt. eigenvalues --    0.79261   0.79283   0.80704   0.80728   0.82631

 Mulliken charges:
               1
     1  O   -0.505620
     2  H    0.252482
     3  H    0.253138
     4  O   -0.505598
     5  H    0.252334
     6  H    0.253263
 Sum of Mulliken charges =  -0.00000

 Dipole moment (field-independent basis, Debye):
    X=             -0.5079    Y=             -0.0677    Z=              0.0000  Tot=              0.5124
 Quadrupole moment (field-independent basis, Debye-Ang):
   XX=             -7.9402   YY=             13.1328   ZZ=            -14.7107
   XY=             -1.1715   XZ=              0.0000   YZ=              0.0000

 Normal termination of Gaussian 16 at Sat Aug 27 07:32:49 2022.
