 Gaussian 16, Revision A.03,
 Gaussian 16:  ES64L-G16RevA.03 25-Dec-2016

 ------------------
 #p CCSD(T)/cc-pVTZ
 ------------------

 -----------
 H2O_H2O_803
 -----------
 Symbolic Z-matrix:
 Charge =  0 Multiplicity = 1

                         Standard orientation:
 ---------------------------------------------------------------------
 Center     Atomic      Atomic             Coordinates (Angstroms)
 Number     Number       Type             X           Y           Z
 ---------------------------------------------------------------------
      1          8           0        0.011143   -1.227885    0.000000
      2          1           0       -0.788873   -1.798393    0.000000
      3          1           0        0.810268   -1.799641    0.000000
      4          8           0        0.011143    1.230063    0.000000
      5          1           0        0.684487    1.945684    0.000000
      6          1           0       -0.884171    1.634930    0.000000
 ---------------------------------------------------------------------

 SCF Done:  E(RHF) =  -152.090824720     A.U. after   11 cycles
 E2 =    -0.5294745817D+00 EUMP2 =    -0.15262029930183D+03
 CCSD(T)
 CCSD(T)= -0.15264758639D+03

 The electronic state is 1-A'.
 Alpha  occ. eigenvalues --  -20.53034 -20.52970  -1.31045  -1.30041  -0.68305
 Alpha  occ. eigenvalues --   -0.67634  -0.57190  -0.49727  -0.48347  -0.46778
 Alpha virt. eigenvalues --    0.14501   0.17554   0.20566   0.22404   0.50541
 Alpha virt. eigenvalues --    0.58840   0.58912   0.63289   0.72768   0.76660
 Alpha virt. eigenvalues --    0.77034   0.79772   0.84037   0.85831   0.86508

 Mulliken charges:
               1
     1  O   -0.459030
     2  H    0.226618
     3  H    0.231938
     4  O   -0.455841
     5  H    0.224377
     6  H    0.231939
 Sum of Mulliken charges =  -0.00000

 Dipole moment (field-independent basis, Debye):
    X=             -0.3476    Y=             -0.0423    Z=              0.0000  Tot=              0.3501
 Quadrupole moment (field-independent basis, Debye-Ang):
   XX=             -8.0665   YY=             -3.0771   ZZ=            -14.7269
   XY=             -0.1579   XZ=              0.0000   YZ=              0.0000

 6367\MP4DQ=-152.6288289\MP4SDQ=-152.6320866\CCSD=-152.6314281\CCSD(T)=
 Normal termination of Gaussian 16 at Fri Aug 26 20:10:23 2022.
