 Gaussian 16, Revision A.03,
 Gaussian 16:  ES64L-G16RevA.03 25-Dec-2016

 ------------------
 #p CCSD(T)/cc-pVTZ
 ------------------

 ------------
 H2O_H2O_3804
 ------------
 Symbolic Z-matrix:
 Charge =  0 Multiplicity = 1

                         Standard orientation:
 ---------------------------------------------------------------------
 Center     Atomic      Atomic             Coordinates (Angstroms)
 Number     Number       Type             X           Y           Z
 ---------------------------------------------------------------------
      1          8           0        0.014783   -2.822470    0.000000
      2          1           0       -0.785045   -3.393242    0.000000
      3          1           0        0.814096   -3.393963    0.000000
      4          8           0        0.014783    2.826349    0.000000
      5          1           0        0.639632    3.584684    0.000000
      6          1           0       -0.905209    3.171491    0.000000
 ---------------------------------------------------------------------

 SCF Done:  E(RHF) =  -152.106590400     A.U. after   10 cycles
 E2 =    -0.5259614659D+00 EUMP2 =    -0.15263255186621D+03
 CCSD(T)
 CCSD(T)= -0.15265978876D+03

 The electronic state is 1-A'.
 Alpha  occ. eigenvalues --  -20.55099 -20.55071  -1.32394  -1.32365  -0.69802
 Alpha  occ. eigenvalues --   -0.69773  -0.55803  -0.55774  -0.49499  -0.49471
 Alpha virt. eigenvalues --    0.14459   0.14589   0.20528   0.20587   0.54758
 Alpha virt. eigenvalues --    0.54811   0.57612   0.57649   0.68251   0.68682
 Alpha virt. eigenvalues --    0.79379   0.79407   0.80824   0.80861   0.82754

 Mulliken charges:
               1
     1  O   -0.504052
     2  H    0.251566
     3  H    0.252486
     4  O   -0.504012
     5  H    0.251377
     6  H    0.252635
 Sum of Mulliken charges =   0.00000

 Dipole moment (field-independent basis, Debye):
    X=             -0.5068    Y=             -0.0680    Z=              0.0000  Tot=              0.5113
 Quadrupole moment (field-independent basis, Debye-Ang):
   XX=             -7.9446   YY=             10.3024   ZZ=            -14.7104
   XY=             -0.9910   XZ=              0.0000   YZ=              0.0000

 Normal termination of Gaussian 16 at Sat Aug 27 03:27:21 2022.
