 Gaussian 16, Revision A.03,
 Gaussian 16:  ES64L-G16RevA.03 25-Dec-2016

 ------------------
 #p CCSD(T)/cc-pVTZ
 ------------------

 -----------
 H2O_H2O_330
 -----------
 Symbolic Z-matrix:
 Charge =  0 Multiplicity = 1

                         Standard orientation:
 ---------------------------------------------------------------------
 Center     Atomic      Atomic             Coordinates (Angstroms)
 Number     Number       Type             X           Y           Z
 ---------------------------------------------------------------------
      1          8           0        0.018363   -0.973185    0.000000
      2          1           0       -0.782131   -1.543022    0.000000
      3          1           0        0.817009   -1.545611    0.000000
      4          8           0        0.018363    0.979188    0.000000
      5          1           0        0.593208    1.776093    0.000000
      6          1           0       -0.921898    1.264518    0.000000
 ---------------------------------------------------------------------

 SCF Done:  E(RHF) =  -152.041677760     A.U. after   11 cycles
 E2 =    -0.5364959793D+00 EUMP2 =    -0.15257817373914D+03
 CCSD(T)
 CCSD(T)= -0.15260483814D+03

 The electronic state is 1-A'.
 Alpha  occ. eigenvalues --  -20.51858 -20.51674  -1.32376  -1.28303  -0.68883
 Alpha  occ. eigenvalues --   -0.66569  -0.61337  -0.49513  -0.44726  -0.42810
 Alpha virt. eigenvalues --    0.14604   0.18462   0.20371   0.23007   0.51126
 Alpha virt. eigenvalues --    0.58777   0.59012   0.65913   0.69545   0.78080
 Alpha virt. eigenvalues --    0.79043   0.83054   0.84208   0.86503   0.87649

 Mulliken charges:
               1
     1  O   -0.427354
     2  H    0.206919
     3  H    0.219074
     4  O   -0.411446
     5  H    0.186706
     6  H    0.226100
 Sum of Mulliken charges =  -0.00000

 Dipole moment (field-independent basis, Debye):
    X=             -0.5316    Y=             -0.1300    Z=              0.0000  Tot=              0.5473
 Quadrupole moment (field-independent basis, Debye-Ang):
   XX=             -8.3653   YY=             -6.0955   ZZ=            -14.7475
   XY=             -0.1867   XZ=              0.0000   YZ=              0.0000

 Normal termination of Gaussian 16 at Fri Aug 26 15:20:35 2022.
