 Gaussian 16, Revision A.03,
 Gaussian 16:  ES64L-G16RevA.03 25-Dec-2016

 ------------------
 #p CCSD(T)/cc-pVTZ
 ------------------

 -----------
 H2O_H2O_633
 -----------
 Symbolic Z-matrix:
 Charge =  0 Multiplicity = 1

                         Standard orientation:
 ---------------------------------------------------------------------
 Center     Atomic      Atomic             Coordinates (Angstroms)
 Number     Number       Type             X           Y           Z
 ---------------------------------------------------------------------
      1          8           0        0.028573   -1.127751    0.000000
      2          1           0       -0.772233   -1.697150    0.000000
      3          1           0        0.826905   -1.700613    0.000000
      4          8           0        0.028573    1.142931    0.000000
      5          1           0        0.437393    2.036447    0.000000
      6          1           0       -0.949234    1.239877    0.000000
 ---------------------------------------------------------------------

 SCF Done:  E(RHF) =  -152.083212136     A.U. after   11 cycles
 E2 =    -0.5310255666D+00 EUMP2 =    -0.15261423770299D+03
 CCSD(T)
 CCSD(T)= -0.15264140884D+03

 The electronic state is 1-A'.
 Alpha  occ. eigenvalues --  -20.53073 -20.52585  -1.31480  -1.29618  -0.68651
 Alpha  occ. eigenvalues --   -0.67431  -0.57995  -0.48767  -0.48501  -0.46299
 Alpha virt. eigenvalues --    0.14417   0.17715   0.20433   0.22895   0.51928
 Alpha virt. eigenvalues --    0.58539   0.58600   0.63300   0.70656   0.76529
 Alpha virt. eigenvalues --    0.77551   0.81084   0.83925   0.86277   0.87316

 Mulliken charges:
               1
     1  O   -0.457981
     2  H    0.220623
     3  H    0.235436
     4  O   -0.438226
     5  H    0.204027
     6  H    0.236121
 Sum of Mulliken charges =  -0.00000

 Dipole moment (field-independent basis, Debye):
    X=             -0.8678    Y=             -0.3008    Z=              0.0000  Tot=              0.9185
 Quadrupole moment (field-independent basis, Debye-Ang):
   XX=             -8.5169   YY=             -4.1364   ZZ=            -14.7328
   XY=             -0.4376   XZ=              0.0000   YZ=              0.0000

 Normal termination of Gaussian 16 at Fri Aug 26 18:30:23 2022.
