 Gaussian 16, Revision A.03,
 Gaussian 16:  ES64L-G16RevA.03 25-Dec-2016

 ------------------
 #p CCSD(T)/cc-pVTZ
 ------------------

 ------------
 H2O_H2O_4406
 ------------
 Symbolic Z-matrix:
 Charge =  0 Multiplicity = 1

                         Standard orientation:
 ---------------------------------------------------------------------
 Center     Atomic      Atomic             Coordinates (Angstroms)
 Number     Number       Type             X           Y           Z
 ---------------------------------------------------------------------
      1          8           0        0.021859   -3.138971    0.000000
      2          1           0       -0.778054   -3.709624    0.000000
      3          1           0        0.821088   -3.710582    0.000000
      4          8           0        0.021859    3.147640    0.000000
      5          1           0        0.542503    3.980968    0.000000
      6          1           0       -0.935278    3.369887    0.000000
 ---------------------------------------------------------------------

 SCF Done:  E(RHF) =  -152.106871235     A.U. after   10 cycles
 E2 =    -0.5259262482D+00 EUMP2 =    -0.15263279748338D+03
 CCSD(T)
 CCSD(T)= -0.15266002903D+03

 The electronic state is 1-A'.
 Alpha  occ. eigenvalues --  -20.55230 -20.55179  -1.32526  -1.32475  -0.69933
 Alpha  occ. eigenvalues --   -0.69881  -0.55948  -0.55898  -0.49633  -0.49583
 Alpha virt. eigenvalues --    0.14397   0.14459   0.20449   0.20504   0.54635
 Alpha virt. eigenvalues --    0.54691   0.57506   0.57557   0.68267   0.68351
 Alpha virt. eigenvalues --    0.79246   0.79296   0.80688   0.80744   0.82616

 Mulliken charges:
               1
     1  O   -0.505701
     2  H    0.252348
     3  H    0.253353
     4  O   -0.505650
     5  H    0.252103
     6  H    0.253547
 Sum of Mulliken charges =  -0.00000

 Dipole moment (field-independent basis, Debye):
    X=             -0.7510    Y=             -0.1513    Z=              0.0000  Tot=              0.7661
 Quadrupole moment (field-independent basis, Debye-Ang):
   XX=             -8.1037   YY=             12.4472   ZZ=            -14.7108
   XY=             -1.7354   XZ=              0.0000   YZ=              0.0000

 Normal termination of Gaussian 16 at Sat Aug 27 07:08:48 2022.
