 Gaussian 16, Revision A.03,
 Gaussian 16:  ES64L-G16RevA.03 25-Dec-2016

 ------------------
 #p CCSD(T)/cc-pVTZ
 ------------------

 -----------
 H2O_H2O_202
 -----------
 Symbolic Z-matrix:
 Charge =  0 Multiplicity = 1

                         Standard orientation:
 ---------------------------------------------------------------------
 Center     Atomic      Atomic             Coordinates (Angstroms)
 Number     Number       Type             X           Y           Z
 ---------------------------------------------------------------------
      1          8           0        0.007455   -0.909441    0.000000
      2          1           0       -0.792518   -1.480009    0.000000
      3          1           0        0.806623   -1.481136    0.000000
      4          8           0        0.007455    0.910408    0.000000
      5          1           0        0.726111    1.580512    0.000000
      6          1           0       -0.859498    1.372900    0.000000
 ---------------------------------------------------------------------

 SCF Done:  E(RHF) =  -152.004911041     A.U. after   11 cycles
 E2 =    -0.5410013504D+00 EUMP2 =    -0.15254591239157D+03
 CCSD(T)
 CCSD(T)= -0.15257199973D+03

 The electronic state is 1-A'.
 Alpha  occ. eigenvalues --  -20.51300 -20.51272  -1.33410  -1.27643  -0.69210
 Alpha  occ. eigenvalues --   -0.65987  -0.63931  -0.50326  -0.43933  -0.39025
 Alpha virt. eigenvalues --    0.14650   0.18991   0.20242   0.22986   0.50495
 Alpha virt. eigenvalues --    0.59134   0.59220   0.67122   0.68425   0.78984
 Alpha virt. eigenvalues --    0.80161   0.83777   0.84392   0.86462   0.87653

 Mulliken charges:
               1
     1  O   -0.398503
     2  H    0.196115
     3  H    0.202243
     4  O   -0.395109
     5  H    0.186259
     6  H    0.208995
 Sum of Mulliken charges =   0.00000

 Dipole moment (field-independent basis, Debye):
    X=             -0.2134    Y=             -0.0232    Z=              0.0000  Tot=              0.2146
 Quadrupole moment (field-independent basis, Debye-Ang):
   XX=             -8.3187   YY=             -7.1676   ZZ=            -14.7585
   XY=             -0.0750   XZ=              0.0000   YZ=              0.0000

 1279\MP4DQ=-152.551598\MP4SDQ=-152.5554506\CCSD=-152.5544874\CCSD(T)=-
 Normal termination of Gaussian 16 at Fri Aug 26 13:58:09 2022.
