 Gaussian 16, Revision A.03,
 Gaussian 16:  ES64L-G16RevA.03 25-Dec-2016

 ------------------
 #p CCSD(T)/cc-pVTZ
 ------------------

 -----------
 H2O_H2O_244
 -----------
 Symbolic Z-matrix:
 Charge =  0 Multiplicity = 1

                         Standard orientation:
 ---------------------------------------------------------------------
 Center     Atomic      Atomic             Coordinates (Angstroms)
 Number     Number       Type             X           Y           Z
 ---------------------------------------------------------------------
      1          8           0        0.054278   -0.881457    0.000000
      2          1           0       -0.748173   -1.448535    0.000000
      3          1           0        0.850948   -1.456628    0.000000
      4          8           0        0.054278    0.958418    0.000000
      5          1           0       -0.224767    1.900565    0.000000
      6          1           0       -0.746451    0.388909    0.000000
 ---------------------------------------------------------------------

 SCF Done:  E(RHF) =  -152.009460019     A.U. after   11 cycles
 E2 =    -0.5416651949D+00 EUMP2 =    -0.15255112521425D+03
 CCSD(T)
 CCSD(T)= -0.15257709596D+03

 The electronic state is 1-A'.
 Alpha  occ. eigenvalues --  -20.54790 -20.50179  -1.36928  -1.27223  -0.74499
 Alpha  occ. eigenvalues --   -0.70316  -0.53832  -0.52698  -0.46048  -0.44148
 Alpha virt. eigenvalues --    0.13441   0.18951   0.19548   0.25226   0.50882
 Alpha virt. eigenvalues --    0.55533   0.61231   0.65929   0.72824   0.76163
 Alpha virt. eigenvalues --    0.80353   0.80411   0.84014   0.84825   0.88325

 Mulliken charges:
               1
     1  O   -0.364582
     2  H    0.179748
     3  H    0.220004
     4  O   -0.439865
     5  H    0.153633
     6  H    0.251062
 Sum of Mulliken charges =  -0.00000

 Dipole moment (field-independent basis, Debye):
    X=             -1.4980    Y=             -1.7473    Z=              0.0000  Tot=              2.3015
 Quadrupole moment (field-independent basis, Debye-Ang):
   XX=             -9.7284   YY=             -7.3919   ZZ=            -14.6336
   XY=             -1.3992   XZ=              0.0000   YZ=              0.0000

 Normal termination of Gaussian 16 at Fri Aug 26 14:26:54 2022.
