 Gaussian 16, Revision A.03,
 Gaussian 16:  ES64L-G16RevA.03 25-Dec-2016

 ------------------
 #p CCSD(T)/cc-pVTZ
 ------------------

 ------------
 H2O_H2O_4384
 ------------
 Symbolic Z-matrix:
 Charge =  0 Multiplicity = 1

                         Standard orientation:
 ---------------------------------------------------------------------
 Center     Atomic      Atomic             Coordinates (Angstroms)
 Number     Number       Type             X           Y           Z
 ---------------------------------------------------------------------
      1          8           0        0.031739   -3.119958    0.000000
      2          1           0       -0.768330   -3.690392    0.000000
      3          1           0        0.830811   -3.691788    0.000000
      4          8           0        0.031739    3.139153    0.000000
      5          1           0        0.380056    4.057947    0.000000
      6          1           0       -0.950357    3.170671    0.000000
 ---------------------------------------------------------------------

 SCF Done:  E(RHF) =  -152.106947256     A.U. after   10 cycles
 E2 =    -0.5259203743D+00 EUMP2 =    -0.15263286763003D+03
 CCSD(T)
 CCSD(T)= -0.15266009751D+03

 The electronic state is 1-A'.
 Alpha  occ. eigenvalues --  -20.55284 -20.55171  -1.32580  -1.32467  -0.69987
 Alpha  occ. eigenvalues --   -0.69871  -0.56006  -0.55893  -0.49688  -0.49575
 Alpha virt. eigenvalues --    0.14350   0.14473   0.20405   0.20525   0.54580
 Alpha virt. eigenvalues --    0.54703   0.57458   0.57572   0.68205   0.68348
 Alpha virt. eigenvalues --    0.79191   0.79303   0.80631   0.80755   0.82559

 Mulliken charges:
               1
     1  O   -0.506155
     2  H    0.252339
     3  H    0.253817
     4  O   -0.506052
     5  H    0.251924
     6  H    0.254128
 Sum of Mulliken charges =  -0.00000

 Dipole moment (field-independent basis, Debye):
    X=             -1.0904    Y=             -0.3352    Z=              0.0000  Tot=              1.1407
 Quadrupole moment (field-independent basis, Debye-Ang):
   XX=             -8.4370   YY=             11.5071   ZZ=            -14.7110
   XY=             -2.6104   XZ=              0.0000   YZ=              0.0000

 Normal termination of Gaussian 16 at Sat Aug 27 07:00:53 2022.
