 Gaussian 16, Revision A.03,
 Gaussian 16:  ES64L-G16RevA.03 25-Dec-2016

 ------------------
 #p CCSD(T)/cc-pVTZ
 ------------------

 ------------
 H2O_H2O_2476
 ------------
 Symbolic Z-matrix:
 Charge =  0 Multiplicity = 1

                         Standard orientation:
 ---------------------------------------------------------------------
 Center     Atomic      Atomic             Coordinates (Angstroms)
 Number     Number       Type             X           Y           Z
 ---------------------------------------------------------------------
      1          8           0        0.003735   -2.119762    0.000000
      2          1           0       -0.795922   -2.690773    0.000000
      3          1           0        0.803220   -2.691015    0.000000
      4          8           0        0.003735    2.120005    0.000000
      5          1           0        0.764336    2.742094    0.000000
      6          1           0       -0.831399    2.637747    0.000000
 ---------------------------------------------------------------------

 SCF Done:  E(RHF) =  -152.105427280     A.U. after   10 cycles
 E2 =    -0.5261874062D+00 EUMP2 =    -0.15263161468660D+03
 CCSD(T)
 CCSD(T)= -0.15265886500D+03

 The electronic state is 1-A'.
 Alpha  occ. eigenvalues --  -20.54668 -20.54664  -1.31957  -1.31949  -0.69372
 Alpha  occ. eigenvalues --   -0.69363  -0.55402  -0.55186  -0.49064  -0.49038
 Alpha virt. eigenvalues --    0.14277   0.15390   0.20638   0.20990   0.54640
 Alpha virt. eigenvalues --    0.55776   0.57858   0.58048   0.63899   0.73456
 Alpha virt. eigenvalues --    0.79613   0.80021   0.81118   0.81445   0.81774

 Mulliken charges:
               1
     1  O   -0.496710
     2  H    0.248101
     3  H    0.248610
     4  O   -0.496701
     5  H    0.248043
     6  H    0.248656
 Sum of Mulliken charges =  -0.00000

 Dipole moment (field-independent basis, Debye):
    X=             -0.1267    Y=             -0.0044    Z=              0.0000  Tot=              0.1268
 Quadrupole moment (field-independent basis, Debye-Ang):
   XX=             -7.8377   YY=              4.8314   ZZ=            -14.7094
   XY=             -0.1575   XZ=              0.0000   YZ=              0.0000

 Normal termination of Gaussian 16 at Sat Aug 27 10:46:07 2022.
