 Gaussian 16, Revision A.03,
 Gaussian 16:  ES64L-G16RevA.03 25-Dec-2016

 ------------------
 #p CCSD(T)/cc-pVTZ
 ------------------

 ------------
 H2O_H2O_1735
 ------------
 Symbolic Z-matrix:
 Charge =  0 Multiplicity = 1

                         Standard orientation:
 ---------------------------------------------------------------------
 Center     Atomic      Atomic             Coordinates (Angstroms)
 Number     Number       Type             X           Y           Z
 ---------------------------------------------------------------------
      1          8           0        0.034789   -1.708261    0.000000
      2          1           0       -0.765775   -2.278001    0.000000
      3          1           0        0.833365   -2.280784    0.000000
      4          8           0        0.034789    1.731745    0.000000
      5          1           0        0.323084    2.671103    0.000000
      6          1           0       -0.947294    1.699816    0.000000
 ---------------------------------------------------------------------

 SCF Done:  E(RHF) =  -152.104845296     A.U. after   10 cycles
 E2 =    -0.5267011402D+00 EUMP2 =    -0.15263154643647D+03
 CCSD(T)
 CCSD(T)= -0.15265877715D+03

 The electronic state is 1-A'.
 Alpha  occ. eigenvalues --  -20.54666 -20.54181  -1.31946  -1.31446  -0.69370
 Alpha  occ. eigenvalues --   -0.68848  -0.55521  -0.54454  -0.49057  -0.48535
 Alpha virt. eigenvalues --    0.13956   0.16255   0.20402   0.21798   0.53083
 Alpha virt. eigenvalues --    0.56113   0.57920   0.58543   0.63381   0.76873
 Alpha virt. eigenvalues --    0.78657   0.78789   0.80043   0.81300   0.84706

 Mulliken charges:
               1
     1  O   -0.487469
     2  H    0.240237
     3  H    0.248244
     4  O   -0.487842
     5  H    0.238232
     6  H    0.248598
 Sum of Mulliken charges =  -0.00000

 Dipole moment (field-independent basis, Debye):
    X=             -1.1583    Y=             -0.4373    Z=              0.0000  Tot=              1.2381
 Quadrupole moment (field-independent basis, Debye-Ang):
   XX=             -8.6041   YY=              0.8506   ZZ=            -14.7110
   XY=             -1.2557   XZ=              0.0000   YZ=              0.0000

 Normal termination of Gaussian 16 at Sat Aug 27 06:29:23 2022.
