 Gaussian 16, Revision A.03,
 Gaussian 16:  ES64L-G16RevA.03 25-Dec-2016

 ------------------
 #p CCSD(T)/cc-pVTZ
 ------------------

 ------------
 H2O_H2O_4451
 ------------
 Symbolic Z-matrix:
 Charge =  0 Multiplicity = 1

                         Standard orientation:
 ---------------------------------------------------------------------
 Center     Atomic      Atomic             Coordinates (Angstroms)
 Number     Number       Type             X           Y           Z
 ---------------------------------------------------------------------
      1          8           0        0.003735   -3.170139    0.000000
      2          1           0       -0.795894   -3.741190    0.000000
      3          1           0        0.803248   -3.741352    0.000000
      4          8           0        0.003735    3.170382    0.000000
      5          1           0        0.764304    3.792508    0.000000
      6          1           0       -0.831425    3.688082    0.000000
 ---------------------------------------------------------------------

 SCF Done:  E(RHF) =  -152.106822448     A.U. after   10 cycles
 E2 =    -0.5259295763D+00 EUMP2 =    -0.15263275202443D+03
 CCSD(T)
 CCSD(T)= -0.15265998466D+03

 The electronic state is 1-A'.
 Alpha  occ. eigenvalues --  -20.55192 -20.55190  -1.32488  -1.32486  -0.69895
 Alpha  occ. eigenvalues --   -0.69893  -0.55908  -0.55906  -0.49595  -0.49593
 Alpha virt. eigenvalues --    0.14426   0.14449   0.20477   0.20488   0.54672
 Alpha virt. eigenvalues --    0.54678   0.57539   0.57544   0.68303   0.68354
 Alpha virt. eigenvalues --    0.79284   0.79286   0.80728   0.80730   0.82656

 Mulliken charges:
               1
     1  O   -0.505409
     2  H    0.252621
     3  H    0.252789
     4  O   -0.505408
     5  H    0.252587
     6  H    0.252821
 Sum of Mulliken charges =  -0.00000

 Dipole moment (field-independent basis, Debye):
    X=             -0.1283    Y=             -0.0043    Z=              0.0000  Tot=              0.1284
 Quadrupole moment (field-independent basis, Debye-Ang):
   XX=             -7.8116   YY=             13.3091   ZZ=            -14.7107
   XY=             -0.2901   XZ=              0.0000   YZ=              0.0000

 Normal termination of Gaussian 16 at Sat Aug 27 07:23:29 2022.
