 Gaussian 16, Revision A.03,
 Gaussian 16:  ES64L-G16RevA.03 25-Dec-2016

 ------------------
 #p CCSD(T)/cc-pVTZ
 ------------------

 ------------
 H2O_H2O_2745
 ------------
 Symbolic Z-matrix:
 Charge =  0 Multiplicity = 1

                         Standard orientation:
 ---------------------------------------------------------------------
 Center     Atomic      Atomic             Coordinates (Angstroms)
 Number     Number       Type             X           Y           Z
 ---------------------------------------------------------------------
      1          8           0        0.055256   -2.206999    0.000000
      2          1           0       -0.745519   -2.776442    0.000000
      3          1           0        0.853620   -2.779818    0.000000
      4          8           0        0.055256    2.291429    0.000000
      5          1           0       -0.287527    3.212300    0.000000
      6          1           0       -0.704676    1.668525    0.000000
 ---------------------------------------------------------------------

 SCF Done:  E(RHF) =  -152.107681175     A.U. after   10 cycles
 E2 =    -0.5260094874D+00 EUMP2 =    -0.15263369066266D+03
 CCSD(T)
 CCSD(T)= -0.15266088883D+03

 The electronic state is 1-A'.
 Alpha  occ. eigenvalues --  -20.55696 -20.54643  -1.32985  -1.31937  -0.70393
 Alpha  occ. eigenvalues --   -0.69319  -0.56434  -0.55384  -0.50098  -0.49056
 Alpha virt. eigenvalues --    0.13360   0.15490   0.20020   0.21591   0.54042
 Alpha virt. eigenvalues --    0.54792   0.57135   0.58075   0.66410   0.71743
 Alpha virt. eigenvalues --    0.78785   0.79737   0.79808   0.81026   0.82671

 Mulliken charges:
               1
     1  O   -0.507922
     2  H    0.251299
     3  H    0.257505
     4  O   -0.509043
     5  H    0.248331
     6  H    0.259830
 Sum of Mulliken charges =  -0.00000

 Dipole moment (field-independent basis, Debye):
    X=             -1.8811    Y=             -1.5161    Z=              0.0000  Tot=              2.4160
 Quadrupole moment (field-independent basis, Debye-Ang):
   XX=             -9.7227   YY=              1.1024   ZZ=            -14.7140
   XY=             -4.0292   XZ=              0.0000   YZ=              0.0000

 Normal termination of Gaussian 16 at Fri Aug 26 15:41:49 2022.
