 Gaussian 16, Revision A.03,
 Gaussian 16:  ES64L-G16RevA.03 25-Dec-2016

 ------------------
 #p CCSD(T)/cc-pVTZ
 ------------------

 ------------
 H2O_H2O_4934
 ------------
 Symbolic Z-matrix:
 Charge =  0 Multiplicity = 1

                         Standard orientation:
 ---------------------------------------------------------------------
 Center     Atomic      Atomic             Coordinates (Angstroms)
 Number     Number       Type             X           Y           Z
 ---------------------------------------------------------------------
      1          8           0        0.031738   -3.412466    0.000000
      2          1           0       -0.768289   -3.982959    0.000000
      3          1           0        0.830853   -3.984236    0.000000
      4          8           0        0.031738    3.431666    0.000000
      5          1           0        0.379987    4.350485    0.000000
      6          1           0       -0.950360    3.463110    0.000000
 ---------------------------------------------------------------------

 SCF Done:  E(RHF) =  -152.107074073     A.U. after   10 cycles
 E2 =    -0.5259033651D+00 EUMP2 =    -0.15263297743769D+03
 CCSD(T)
 CCSD(T)= -0.15266020499D+03

 The electronic state is 1-A'.
 Alpha  occ. eigenvalues --  -20.55344 -20.55250  -1.32641  -1.32547  -0.70048
 Alpha  occ. eigenvalues --   -0.69951  -0.56073  -0.55979  -0.49750  -0.49656
 Alpha virt. eigenvalues --    0.14305   0.14400   0.20363   0.20461   0.54519
 Alpha virt. eigenvalues --    0.54620   0.57407   0.57501   0.68142   0.68238
 Alpha virt. eigenvalues --    0.79129   0.79222   0.80568   0.80670   0.82493

 Mulliken charges:
               1
     1  O   -0.506897
     2  H    0.252877
     3  H    0.254020
     4  O   -0.506828
     5  H    0.252544
     6  H    0.254283
 Sum of Mulliken charges =  -0.00000

 Dipole moment (field-independent basis, Debye):
    X=             -1.0917    Y=             -0.3344    Z=              0.0000  Tot=              1.1418
 Quadrupole moment (field-independent basis, Debye-Ang):
   XX=             -8.4354   YY=             13.6477   ZZ=            -14.7111
   XY=             -2.9273   XZ=              0.0000   YZ=              0.0000

 Normal termination of Gaussian 16 at Sat Aug 27 10:12:24 2022.
