 Gaussian 16, Revision A.03,
 Gaussian 16:  ES64L-G16RevA.03 25-Dec-2016

 ------------------
 #p CCSD(T)/cc-pVTZ
 ------------------

 ------------
 H2O_H2O_3135
 ------------
 Symbolic Z-matrix:
 Charge =  0 Multiplicity = 1

                         Standard orientation:
 ---------------------------------------------------------------------
 Center     Atomic      Atomic             Coordinates (Angstroms)
 Number     Number       Type             X           Y           Z
 ---------------------------------------------------------------------
      1          8           0        0.034783   -2.452813    0.000000
      2          1           0       -0.765481   -3.022974    0.000000
      3          1           0        0.833659   -3.024916    0.000000
      4          8           0        0.034783    2.476333    0.000000
      5          1           0        0.322584    3.415842    0.000000
      6          1           0       -0.947284    2.443888    0.000000
 ---------------------------------------------------------------------

 SCF Done:  E(RHF) =  -152.106479818     A.U. after   10 cycles
 E2 =    -0.5260041738D+00 EUMP2 =    -0.15263248399172D+03
 CCSD(T)
 CCSD(T)= -0.15265972085D+03

 The electronic state is 1-A'.
 Alpha  occ. eigenvalues --  -20.55109 -20.54882  -1.32403  -1.32174  -0.69812
 Alpha  occ. eigenvalues --   -0.69576  -0.55805  -0.55577  -0.49508  -0.49280
 Alpha virt. eigenvalues --    0.14246   0.14935   0.20454   0.20826   0.54657
 Alpha virt. eigenvalues --    0.55049   0.57587   0.57825   0.67276   0.69983
 Alpha virt. eigenvalues --    0.79367   0.79595   0.80773   0.81115   0.82732

 Mulliken charges:
               1
     1  O   -0.503411
     2  H    0.250126
     3  H    0.253307
     4  O   -0.503061
     5  H    0.249261
     6  H    0.253777
 Sum of Mulliken charges =  -0.00000

 Dipole moment (field-independent basis, Debye):
    X=             -1.1882    Y=             -0.4156    Z=              0.0000  Tot=              1.2588
 Quadrupole moment (field-independent basis, Debye-Ang):
   XX=             -8.5707   YY=              6.3538   ZZ=            -14.7106
   XY=             -2.1232   XZ=              0.0000   YZ=              0.0000

 Normal termination of Gaussian 16 at Fri Aug 26 19:43:09 2022.
