 Gaussian 16, Revision A.03,
 Gaussian 16:  ES64L-G16RevA.03 25-Dec-2016

 ------------------
 #p CCSD(T)/cc-pVTZ
 ------------------

 ------------
 H2O_H2O_2306
 ------------
 Symbolic Z-matrix:
 Charge =  0 Multiplicity = 1

                         Standard orientation:
 ---------------------------------------------------------------------
 Center     Atomic      Atomic             Coordinates (Angstroms)
 Number     Number       Type             X           Y           Z
 ---------------------------------------------------------------------
      1          8           0        0.021860   -2.022122    0.000000
      2          1           0       -0.778241   -2.592512    0.000000
      3          1           0        0.820901   -2.593996    0.000000
      4          8           0        0.021860    2.030777    0.000000
      5          1           0        0.542779    2.863933    0.000000
      6          1           0       -0.935203    2.253339    0.000000
 ---------------------------------------------------------------------

 SCF Done:  E(RHF) =  -152.105417407     A.U. after   10 cycles
 E2 =    -0.5262542728D+00 EUMP2 =    -0.15263167167988D+03
 CCSD(T)
 CCSD(T)= -0.15265891556D+03

 The electronic state is 1-A'.
 Alpha  occ. eigenvalues --  -20.54699 -20.54573  -1.31984  -1.31855  -0.69400
 Alpha  occ. eigenvalues --   -0.69265  -0.55421  -0.55089  -0.49085  -0.48952
 Alpha virt. eigenvalues --    0.14129   0.15586   0.20565   0.21141   0.54214
 Alpha virt. eigenvalues --    0.55855   0.57856   0.58118   0.63149   0.74369
 Alpha virt. eigenvalues --    0.79505   0.80186   0.80688   0.81217   0.82224

 Mulliken charges:
               1
     1  O   -0.495926
     2  H    0.246341
     3  H    0.249692
     4  O   -0.495710
     5  H    0.245719
     6  H    0.249885
 Sum of Mulliken charges =   0.00000

 Dipole moment (field-independent basis, Debye):
    X=             -0.7394    Y=             -0.1565    Z=              0.0000  Tot=              0.7557
 Quadrupole moment (field-independent basis, Debye-Ang):
   XX=             -8.1299   YY=              3.7546   ZZ=            -14.7098
   XY=             -0.9109   XZ=              0.0000   YZ=              0.0000

 Normal termination of Gaussian 16 at Sat Aug 27 09:46:25 2022.
