 Gaussian 16, Revision A.03,
 Gaussian 16:  ES64L-G16RevA.03 25-Dec-2016

 ------------------
 #p CCSD(T)/cc-pVTZ
 ------------------

 -----------
 H2O_H2O_650
 -----------
 Symbolic Z-matrix:
 Charge =  0 Multiplicity = 1

                         Standard orientation:
 ---------------------------------------------------------------------
 Center     Atomic      Atomic             Coordinates (Angstroms)
 Number     Number       Type             X           Y           Z
 ---------------------------------------------------------------------
      1          8           0        0.000000   -0.000000    1.149293
      2          1           0        0.000000    0.799571    1.720425
      3          1           0       -0.000000   -0.799571    1.720425
      4          8           0        0.000000   -0.000000   -1.149293
      5          1           0       -0.000000   -0.799571   -1.720425
      6          1           0        0.000000    0.799571   -1.720425
 ---------------------------------------------------------------------

 SCF Done:  E(RHF) =  -152.082311982     A.U. after   10 cycles
 E2 =    -0.5307828575D+00 EUMP2 =    -0.15261309483902D+03
 CCSD(T)
 CCSD(T)= -0.15264031484D+03

 The electronic state is 1-AG.
 Alpha  occ. eigenvalues --  -20.52596 -20.52595  -1.31098  -1.29570  -0.68216
 Alpha  occ. eigenvalues --   -0.67238  -0.58204  -0.48416  -0.47988  -0.46204
 Alpha virt. eigenvalues --    0.14571   0.17873   0.20576   0.22515   0.50153
 Alpha virt. eigenvalues --    0.59014   0.59043   0.64541   0.72412   0.76884
 Alpha virt. eigenvalues --    0.77849   0.80739   0.84295   0.86636   0.86813

 Mulliken charges:
               1
     1  O   -0.451235
     2  H    0.225618
     3  H    0.225618
     4  O   -0.451235
     5  H    0.225618
     6  H    0.225618
 Sum of Mulliken charges =   0.00000

 Dipole moment (field-independent basis, Debye):
    X=             -0.0000    Y=              0.0000    Z=             -0.0000  Tot=              0.0000
 Quadrupole moment (field-independent basis, Debye-Ang):
   XX=            -14.7366   YY=             -8.0372   ZZ=             -3.9300
   XY=              0.0000   XZ=             -0.0000   YZ=             -0.0000

 P4DQ=-152.6213469\MP4SDQ=-152.624669\CCSD=-152.6239863\CCSD(T)=-152.64
 Normal termination of Gaussian 16 at Fri Aug 26 18:41:15 2022.
