 Gaussian 16, Revision A.03,
 Gaussian 16:  ES64L-G16RevA.03 25-Dec-2016

 ------------------
 #p CCSD(T)/cc-pVTZ
 ------------------

 ------------
 H2O_H2O_2090
 ------------
 Symbolic Z-matrix:
 Charge =  0 Multiplicity = 1

                         Standard orientation:
 ---------------------------------------------------------------------
 Center     Atomic      Atomic             Coordinates (Angstroms)
 Number     Number       Type             X           Y           Z
 ---------------------------------------------------------------------
      1          8           0        0.047542   -1.879698    0.000000
      2          1           0       -0.753253   -2.449113    0.000000
      3          1           0        0.845886   -2.452545    0.000000
      4          8           0        0.047542    1.930260    0.000000
      5          1           0        0.018989    2.912446    0.000000
      6          1           0       -0.872298    1.584717    0.000000
 ---------------------------------------------------------------------

 SCF Done:  E(RHF) =  -152.106564725     A.U. after   10 cycles
 E2 =    -0.5263321018D+00 EUMP2 =    -0.15263289682661D+03
 CCSD(T)
 CCSD(T)= -0.15266010009D+03

 The electronic state is 1-A'.
 Alpha  occ. eigenvalues --  -20.55245 -20.54355  -1.32523  -1.31631  -0.69938
 Alpha  occ. eigenvalues --   -0.69013  -0.55924  -0.54999  -0.49631  -0.48744
 Alpha virt. eigenvalues --    0.13566   0.16000   0.20195   0.21920   0.53557
 Alpha virt. eigenvalues --    0.54872   0.57501   0.58417   0.64378   0.75757
 Alpha virt. eigenvalues --    0.78915   0.79206   0.80415   0.81015   0.84353

 Mulliken charges:
               1
     1  O   -0.498238
     2  H    0.245684
     3  H    0.254040
     4  O   -0.500461
     5  H    0.243127
     6  H    0.255849
 Sum of Mulliken charges =   0.00000

 Dipole moment (field-independent basis, Debye):
    X=             -1.5993    Y=             -0.9279    Z=              0.0000  Tot=              1.8490
 Quadrupole moment (field-independent basis, Debye-Ang):
   XX=             -9.2361   YY=              1.1012   ZZ=            -14.7131
   XY=             -2.4116   XZ=              0.0000   YZ=              0.0000

 Normal termination of Gaussian 16 at Sat Aug 27 08:31:47 2022.
