 Gaussian 16, Revision A.03,
 Gaussian 16:  ES64L-G16RevA.03 25-Dec-2016

 ------------------
 #p CCSD(T)/cc-pVTZ
 ------------------

 ------------
 H2O_H2O_1494
 ------------
 Symbolic Z-matrix:
 Charge =  0 Multiplicity = 1

                         Standard orientation:
 ---------------------------------------------------------------------
 Center     Atomic      Atomic             Coordinates (Angstroms)
 Number     Number       Type             X           Y           Z
 ---------------------------------------------------------------------
      1          8           0        0.054196   -1.546133    0.000000
      2          1           0       -0.747050   -2.114913    0.000000
      3          1           0        0.852086   -2.119611    0.000000
      4          8           0        0.054196    1.623324    0.000000
      5          1           0       -0.226848    2.564876    0.000000
      6          1           0       -0.745322    1.052116    0.000000
 ---------------------------------------------------------------------

 SCF Done:  E(RHF) =  -152.107339079     A.U. after   10 cycles
 E2 =    -0.5270389522D+00 EUMP2 =    -0.15263437803073D+03
 CCSD(T)
 CCSD(T)= -0.15266152618D+03

 The electronic state is 1-A'.
 Alpha  occ. eigenvalues --  -20.55757 -20.53674  -1.33049  -1.30948  -0.70464
 Alpha  occ. eigenvalues --   -0.68357  -0.56434  -0.54347  -0.50165  -0.48070
 Alpha virt. eigenvalues --    0.13373   0.16860   0.19870   0.23708   0.53853
 Alpha virt. eigenvalues --    0.55224   0.57068   0.58302   0.66825   0.75878
 Alpha virt. eigenvalues --    0.76721   0.76906   0.79482   0.81716   0.84662

 Mulliken charges:
               1
     1  O   -0.489644
     2  H    0.241511
     3  H    0.255335
     4  O   -0.501359
     5  H    0.235954
     6  H    0.258202
 Sum of Mulliken charges =   0.00000

 Dipole moment (field-independent basis, Debye):
    X=             -1.7826    Y=             -1.4822    Z=              0.0000  Tot=              2.3183
 Quadrupole moment (field-independent basis, Debye-Ang):
   XX=             -9.6623   YY=             -2.0657   ZZ=            -14.7204
   XY=             -2.6285   XZ=              0.0000   YZ=              0.0000

 Normal termination of Gaussian 16 at Sat Aug 27 05:06:01 2022.
