 Gaussian 16, Revision A.03,
 Gaussian 16:  ES64L-G16RevA.03 25-Dec-2016

 ------------------
 #p CCSD(T)/cc-pVTZ
 ------------------

 -----------
 H2O_H2O_676
 -----------
 Symbolic Z-matrix:
 Charge =  0 Multiplicity = 1

                         Standard orientation:
 ---------------------------------------------------------------------
 Center     Atomic      Atomic             Coordinates (Angstroms)
 Number     Number       Type             X           Y           Z
 ---------------------------------------------------------------------
      1          8           0        0.003735   -1.162457    0.000000
      2          1           0       -0.795994   -1.733368    0.000000
      3          1           0        0.803148   -1.733810    0.000000
      4          8           0        0.003735    1.162699    0.000000
      5          1           0        0.764413    1.784692    0.000000
      6          1           0       -0.831334    1.680545    0.000000
 ---------------------------------------------------------------------

 SCF Done:  E(RHF) =  -152.084032513     A.U. after   10 cycles
 E2 =    -0.5305252448D+00 EUMP2 =    -0.15261455775770D+03
 CCSD(T)
 CCSD(T)= -0.15264179384D+03

 The electronic state is 1-A'.
 Alpha  occ. eigenvalues --  -20.52670 -20.52663  -1.31077  -1.29654  -0.68224
 Alpha  occ. eigenvalues --   -0.67307  -0.58010  -0.48394  -0.48306  -0.46306
 Alpha virt. eigenvalues --    0.14560   0.17819   0.20576   0.22495   0.50198
 Alpha virt. eigenvalues --    0.58994   0.59012   0.64344   0.72549   0.76825
 Alpha virt. eigenvalues --    0.77701   0.80563   0.84257   0.86621   0.86783

 Mulliken charges:
               1
     1  O   -0.452669
     2  H    0.225357
     3  H    0.227240
     4  O   -0.452216
     5  H    0.224405
     6  H    0.227884
 Sum of Mulliken charges =  -0.00000

 Dipole moment (field-independent basis, Debye):
    X=             -0.1146    Y=             -0.0048    Z=              0.0000  Tot=              0.1147
 Quadrupole moment (field-independent basis, Debye-Ang):
   XX=             -8.0372   YY=             -3.7821   ZZ=            -14.7349
   XY=             -0.0444   XZ=              0.0000   YZ=              0.0000

 Normal termination of Gaussian 16 at Fri Aug 26 18:56:50 2022.
