 Gaussian 16, Revision A.03,
 Gaussian 16:  ES64L-G16RevA.03 25-Dec-2016

 ------------------
 #p CCSD(T)/cc-pVTZ
 ------------------

 ------------
 H2O_H2O_1684
 ------------
 Symbolic Z-matrix:
 Charge =  0 Multiplicity = 1

                         Standard orientation:
 ---------------------------------------------------------------------
 Center     Atomic      Atomic             Coordinates (Angstroms)
 Number     Number       Type             X           Y           Z
 ---------------------------------------------------------------------
      1          8           0        0.031746   -1.684024    0.000000
      2          1           0       -0.768745   -2.253866    0.000000
      3          1           0        0.830395   -2.256445    0.000000
      4          8           0        0.031746    1.703173    0.000000
      5          1           0        0.380743    2.621707    0.000000
      6          1           0       -0.950326    1.735417    0.000000
 ---------------------------------------------------------------------

 SCF Done:  E(RHF) =  -152.104478957     A.U. after   10 cycles
 E2 =    -0.5267683777D+00 EUMP2 =    -0.15263124733443D+03
 CCSD(T)
 CCSD(T)= -0.15265848563D+03

 The electronic state is 1-A'.
 Alpha  occ. eigenvalues --  -20.54554 -20.54152  -1.31838  -1.31416  -0.69263
 Alpha  occ. eigenvalues --   -0.68824  -0.55487  -0.54311  -0.48953  -0.48496
 Alpha virt. eigenvalues --    0.14026   0.16294   0.20437   0.21775   0.52998
 Alpha virt. eigenvalues --    0.56494   0.57991   0.58563   0.63351   0.76893
 Alpha virt. eigenvalues --    0.78589   0.78768   0.79914   0.81466   0.84828

 Mulliken charges:
               1
     1  O   -0.485586
     2  H    0.239405
     3  H    0.247028
     4  O   -0.485550
     5  H    0.237602
     6  H    0.247101
 Sum of Mulliken charges =  -0.00000

 Dipole moment (field-independent basis, Debye):
    X=             -1.0552    Y=             -0.3573    Z=              0.0000  Tot=              1.1141
 Quadrupole moment (field-independent basis, Debye-Ang):
   XX=             -8.4830   YY=              0.7754   ZZ=            -14.7106
   XY=             -1.0755   XZ=              0.0000   YZ=              0.0000

 7846\MP4DQ=-152.6402273\MP4SDQ=-152.6433407\CCSD=-152.6427286\CCSD(T)=
 Normal termination of Gaussian 16 at Sat Aug 27 06:12:25 2022.
