 Gaussian 16, Revision A.03,
 Gaussian 16:  ES64L-G16RevA.03 25-Dec-2016

 ------------------
 #p CCSD(T)/cc-pVTZ
 ------------------

 ------------
 H2O_H2O_3957
 ------------
 Symbolic Z-matrix:
 Charge =  0 Multiplicity = 1

                         Standard orientation:
 ---------------------------------------------------------------------
 Center     Atomic      Atomic             Coordinates (Angstroms)
 Number     Number       Type             X           Y           Z
 ---------------------------------------------------------------------
      1          8           0        0.025265   -2.897975    0.000000
      2          1           0       -0.774734   -3.468508    0.000000
      3          1           0        0.824408   -3.469706    0.000000
      4          8           0        0.025265    2.909717    0.000000
      5          1           0        0.490421    3.775243    0.000000
      6          1           0       -0.944335    3.069034    0.000000
 ---------------------------------------------------------------------

 SCF Done:  E(RHF) =  -152.106738670     A.U. after   10 cycles
 E2 =    -0.5259455929D+00 EUMP2 =    -0.15263268426290D+03
 CCSD(T)
 CCSD(T)= -0.15265991817D+03

 The electronic state is 1-A'.
 Alpha  occ. eigenvalues --  -20.55178 -20.55098  -1.32474  -1.32392  -0.69881
 Alpha  occ. eigenvalues --   -0.69798  -0.55890  -0.55809  -0.49580  -0.49499
 Alpha virt. eigenvalues --    0.14415   0.14551   0.20476   0.20575   0.54685
 Alpha virt. eigenvalues --    0.54780   0.57547   0.57631   0.68244   0.68544
 Alpha virt. eigenvalues --    0.79298   0.79378   0.80743   0.80833   0.82676

 Mulliken charges:
               1
     1  O   -0.504928
     2  H    0.251736
     3  H    0.253192
     4  O   -0.504831
     5  H    0.251380
     6  H    0.253451
 Sum of Mulliken charges =   0.00000

 Dipole moment (field-independent basis, Debye):
    X=             -0.8668    Y=             -0.2055    Z=              0.0000  Tot=              0.8908
 Quadrupole moment (field-independent basis, Debye-Ang):
   XX=             -8.2069   YY=             10.3847   ZZ=            -14.7106
   XY=             -1.8244   XZ=              0.0000   YZ=              0.0000

 Normal termination of Gaussian 16 at Sat Aug 27 04:33:33 2022.
