 Gaussian 16, Revision A.03,
 Gaussian 16:  ES64L-G16RevA.03 25-Dec-2016

 ------------------
 #p CCSD(T)/cc-pVTZ
 ------------------

 ------------
 H2O_H2O_3949
 ------------
 Symbolic Z-matrix:
 Charge =  0 Multiplicity = 1

                         Standard orientation:
 ---------------------------------------------------------------------
 Center     Atomic      Atomic             Coordinates (Angstroms)
 Number     Number       Type             X           Y           Z
 ---------------------------------------------------------------------
      1          8           0        0.057210   -2.829128    0.000000
      2          1           0       -0.743332   -3.398898    0.000000
      3          1           0        0.855807   -3.401622    0.000000
      4          8           0        0.057210    2.943160    0.000000
      5          1           0       -0.512559    3.743704    0.000000
      6          1           0       -0.515283    2.144563    0.000000
 ---------------------------------------------------------------------

 SCF Done:  E(RHF) =  -152.107809597     A.U. after   10 cycles
 E2 =    -0.5258584075D+00 EUMP2 =    -0.15263366800474D+03
 CCSD(T)
 CCSD(T)= -0.15266087832D+03

 The electronic state is 1-A'.
 Alpha  occ. eigenvalues --  -20.55820 -20.55023  -1.33120  -1.32324  -0.70526
 Alpha  occ. eigenvalues --   -0.69720  -0.56587  -0.55780  -0.50235  -0.49441
 Alpha virt. eigenvalues --    0.13781   0.14749   0.19978   0.20865   0.54025
 Alpha virt. eigenvalues --    0.54831   0.56984   0.57754   0.67361   0.68612
 Alpha virt. eigenvalues --    0.78648   0.79425   0.80063   0.80647   0.82394

 Mulliken charges:
               1
     1  O   -0.511245
     2  H    0.254126
     3  H    0.257152
     4  O   -0.510671
     5  H    0.251902
     6  H    0.258736
 Sum of Mulliken charges =   0.00000

 Dipole moment (field-independent basis, Debye):
    X=             -1.9637    Y=             -2.0018    Z=              0.0000  Tot=              2.8042
 Quadrupole moment (field-independent basis, Debye-Ang):
   XX=             -9.8638   YY=              1.4304   ZZ=            -14.7132
   XY=             -5.9385   XZ=              0.0000   YZ=              0.0000

 Normal termination of Gaussian 16 at Sat Aug 27 04:30:30 2022.
