 Gaussian 16, Revision A.03,
 Gaussian 16:  ES64L-G16RevA.03 25-Dec-2016

 ------------------
 #p CCSD(T)/cc-pVTZ
 ------------------

 ------------
 H2O_H2O_3053
 ------------
 Symbolic Z-matrix:
 Charge =  0 Multiplicity = 1

                         Standard orientation:
 ---------------------------------------------------------------------
 Center     Atomic      Atomic             Coordinates (Angstroms)
 Number     Number       Type             X           Y           Z
 ---------------------------------------------------------------------
      1          8           0        0.011143   -2.424513    0.000000
      2          1           0       -0.788654   -2.995328    0.000000
      3          1           0        0.810488   -2.995961    0.000000
      4          8           0        0.011143    2.426699    0.000000
      5          1           0        0.684211    3.142579    0.000000
      6          1           0       -0.884327    2.831222    0.000000
 ---------------------------------------------------------------------

 SCF Done:  E(RHF) =  -152.106072412     A.U. after   10 cycles
 E2 =    -0.5260402153D+00 EUMP2 =    -0.15263211262698D+03
 CCSD(T)
 CCSD(T)= -0.15265935822D+03

 The electronic state is 1-A'.
 Alpha  occ. eigenvalues --  -20.54898 -20.54876  -1.32190  -1.32168  -0.69601
 Alpha  occ. eigenvalues --   -0.69578  -0.55585  -0.55537  -0.49292  -0.49270
 Alpha virt. eigenvalues --    0.14413   0.14935   0.20599   0.20770   0.54833
 Alpha virt. eigenvalues --    0.55132   0.57745   0.57830   0.67097   0.70336
 Alpha virt. eigenvalues --    0.79559   0.79628   0.80997   0.81110   0.82622

 Mulliken charges:
               1
     1  O   -0.501002
     2  H    0.249973
     3  H    0.251031
     4  O   -0.500953
     5  H    0.249797
     6  H    0.251154
 Sum of Mulliken charges =  -0.00000

 Dipole moment (field-independent basis, Debye):
    X=             -0.3803    Y=             -0.0386    Z=              0.0000  Tot=              0.3823
 Quadrupole moment (field-independent basis, Debye-Ang):
   XX=             -7.8941   YY=              7.2220   ZZ=            -14.7098
   XY=             -0.5908   XZ=              0.0000   YZ=              0.0000

 Normal termination of Gaussian 16 at Fri Aug 26 18:54:55 2022.
