 Gaussian 16, Revision A.03,
 Gaussian 16:  ES64L-G16RevA.03 25-Dec-2016

 ------------------
 #p CCSD(T)/cc-pVTZ
 ------------------

 ------------
 H2O_H2O_3165
 ------------
 Symbolic Z-matrix:
 Charge =  0 Multiplicity = 1

                         Standard orientation:
 ---------------------------------------------------------------------
 Center     Atomic      Atomic             Coordinates (Angstroms)
 Number     Number       Type             X           Y           Z
 ---------------------------------------------------------------------
      1          8           0        0.047530   -2.451397    0.000000
      2          1           0       -0.752983   -3.021209    0.000000
      3          1           0        0.846157   -3.023848    0.000000
      4          8           0        0.047530    2.502006    0.000000
      5          1           0        0.018490    3.484179    0.000000
      6          1           0       -0.872140    2.156009    0.000000
 ---------------------------------------------------------------------

 SCF Done:  E(RHF) =  -152.106953096     A.U. after   10 cycles
 E2 =    -0.5259700959D+00 EUMP2 =    -0.15263292319161D+03
 CCSD(T)
 CCSD(T)= -0.15266014882D+03

 The electronic state is 1-A'.
 Alpha  occ. eigenvalues --  -20.55355 -20.54863  -1.32651  -1.32155  -0.70059
 Alpha  occ. eigenvalues --   -0.69551  -0.56075  -0.55580  -0.49758  -0.49267
 Alpha virt. eigenvalues --    0.13985   0.15005   0.20272   0.20953   0.54411
 Alpha virt. eigenvalues --    0.54994   0.57387   0.57842   0.67187   0.69913
 Alpha virt. eigenvalues --    0.79121   0.79603   0.80465   0.81038   0.82795

 Mulliken charges:
               1
     1  O   -0.506085
     2  H    0.250943
     3  H    0.255226
     4  O   -0.505646
     5  H    0.249338
     6  H    0.256225
 Sum of Mulliken charges =  -0.00000

 Dipole moment (field-independent basis, Debye):
    X=             -1.6243    Y=             -0.8958    Z=              0.0000  Tot=              1.8549
 Quadrupole moment (field-independent basis, Debye-Ang):
   XX=             -9.2260   YY=              4.7241   ZZ=            -14.7116
   XY=             -3.3258   XZ=              0.0000   YZ=              0.0000

 Normal termination of Gaussian 16 at Fri Aug 26 19:58:45 2022.
