 Gaussian 16, Revision A.03,
 Gaussian 16:  ES64L-G16RevA.03 25-Dec-2016

 ------------------
 #p CCSD(T)/cc-pVTZ
 ------------------

 ------------
 H2O_H2O_1555
 ------------
 Symbolic Z-matrix:
 Charge =  0 Multiplicity = 1

                         Standard orientation:
 ---------------------------------------------------------------------
 Center     Atomic      Atomic             Coordinates (Angstroms)
 Number     Number       Type             X           Y           Z
 ---------------------------------------------------------------------
      1          8           0        0.018361   -1.624672    0.000000
      2          1           0       -0.781764   -2.195027    0.000000
      3          1           0        0.817377   -2.196580    0.000000
      4          8           0        0.018361    1.630698    0.000000
      5          1           0        0.592690    2.427976    0.000000
      6          1           0       -0.922085    1.915420    0.000000
 ---------------------------------------------------------------------

 SCF Done:  E(RHF) =  -152.103263709     A.U. after   10 cycles
 E2 =    -0.5269564137D+00 EUMP2 =    -0.15263022012251D+03
 CCSD(T)
 CCSD(T)= -0.15265748594D+03

 The electronic state is 1-A'.
 Alpha  occ. eigenvalues --  -20.54201 -20.54069  -1.31508  -1.31328  -0.68932
 Alpha  occ. eigenvalues --   -0.68758  -0.55437  -0.53825  -0.48660  -0.48353
 Alpha virt. eigenvalues --    0.14241   0.16404   0.20542   0.21696   0.52603
 Alpha virt. eigenvalues --    0.57989   0.58163   0.58622   0.63284   0.76517
 Alpha virt. eigenvalues --    0.78409   0.78549   0.79693   0.81921   0.85422

 Mulliken charges:
               1
     1  O   -0.479975
     2  H    0.237637
     3  H    0.242592
     4  O   -0.479413
     5  H    0.236982
     6  H    0.242176
 Sum of Mulliken charges =  -0.00000

 Dipole moment (field-independent basis, Debye):
    X=             -0.6078    Y=             -0.1129    Z=              0.0000  Tot=              0.6182
 Quadrupole moment (field-independent basis, Debye-Ang):
   XX=             -8.0815   YY=              0.5714   ZZ=            -14.7095
   XY=             -0.5080   XZ=              0.0000   YZ=              0.0000

 Normal termination of Gaussian 16 at Sat Aug 27 05:26:49 2022.
