 Gaussian 16, Revision A.03,
 Gaussian 16:  ES64L-G16RevA.03 25-Dec-2016

 ------------------
 #p CCSD(T)/cc-pVTZ
 ------------------

 ------------
 H2O_H2O_2062
 ------------
 Symbolic Z-matrix:
 Charge =  0 Multiplicity = 1

                         Standard orientation:
 ---------------------------------------------------------------------
 Center     Atomic      Atomic             Coordinates (Angstroms)
 Number     Number       Type             X           Y           Z
 ---------------------------------------------------------------------
      1          8           0        0.040416   -1.875773    0.000000
      2          1           0       -0.760203   -2.445435    0.000000
      3          1           0        0.838936   -2.448373    0.000000
      4          8           0        0.040416    1.909081    0.000000
      5          1           0        0.203727    2.878016    0.000000
      6          1           0       -0.929113    1.749330    0.000000
 ---------------------------------------------------------------------

 SCF Done:  E(RHF) =  -152.105889686     A.U. after   10 cycles
 E2 =    -0.5263757391D+00 EUMP2 =    -0.15263226542504D+03
 CCSD(T)
 CCSD(T)= -0.15265948475D+03

 The electronic state is 1-A'.
 Alpha  occ. eigenvalues --  -20.54966 -20.54386  -1.32245  -1.31659  -0.69662
 Alpha  occ. eigenvalues --   -0.69052  -0.55658  -0.54950  -0.49350  -0.48765
 Alpha virt. eigenvalues --    0.13778   0.15946   0.20336   0.21632   0.53365
 Alpha virt. eigenvalues --    0.55341   0.57712   0.58335   0.63653   0.75860
 Alpha virt. eigenvalues --    0.79089   0.79491   0.80497   0.80981   0.83632

 Mulliken charges:
               1
     1  O   -0.495594
     2  H    0.244582
     3  H    0.251903
     4  O   -0.496382
     5  H    0.242641
     6  H    0.252851
 Sum of Mulliken charges =  -0.00000

 Dipole moment (field-independent basis, Debye):
    X=             -1.3590    Y=             -0.6106    Z=              0.0000  Tot=              1.4899
 Quadrupole moment (field-independent basis, Debye-Ang):
   XX=             -8.8507   YY=              1.7718   ZZ=            -14.7116
   XY=             -1.8144   XZ=              0.0000   YZ=              0.0000

 Normal termination of Gaussian 16 at Sat Aug 27 08:22:22 2022.
