 Gaussian 16, Revision A.03,
 Gaussian 16:  ES64L-G16RevA.03 25-Dec-2016

 ------------------
 #p CCSD(T)/cc-pVTZ
 ------------------

 ------------
 H2O_H2O_3681
 ------------
 Symbolic Z-matrix:
 Charge =  0 Multiplicity = 1

                         Standard orientation:
 ---------------------------------------------------------------------
 Center     Atomic      Atomic             Coordinates (Angstroms)
 Number     Number       Type             X           Y           Z
 ---------------------------------------------------------------------
      1          8           0        0.021859   -2.753392    0.000000
      2          1           0       -0.778101   -3.323978    0.000000
      3          1           0        0.821040   -3.325069    0.000000
      4          8           0        0.021859    2.762057    0.000000
      5          1           0        0.542573    3.595341    0.000000
      6          1           0       -0.935259    2.984384    0.000000
 ---------------------------------------------------------------------

 SCF Done:  E(RHF) =  -152.106580714     A.U. after   10 cycles
 E2 =    -0.5259660692D+00 EUMP2 =    -0.15263254678340D+03
 CCSD(T)
 CCSD(T)= -0.15265978366D+03

 The electronic state is 1-A'.
 Alpha  occ. eigenvalues --  -20.55106 -20.55041  -1.32401  -1.32335  -0.69809
 Alpha  occ. eigenvalues --   -0.69741  -0.55810  -0.55743  -0.49507  -0.49441
 Alpha virt. eigenvalues --    0.14435   0.14632   0.20516   0.20620   0.54747
 Alpha virt. eigenvalues --    0.54847   0.57604   0.57679   0.68161   0.68800
 Alpha virt. eigenvalues --    0.79371   0.79436   0.80816   0.80896   0.82748

 Mulliken charges:
               1
     1  O   -0.504001
     2  H    0.251273
     3  H    0.252729
     4  O   -0.503905
     5  H    0.250945
     6  H    0.252960
 Sum of Mulliken charges =  -0.00000

 Dipole moment (field-independent basis, Debye):
    X=             -0.7490    Y=             -0.1520    Z=              0.0000  Tot=              0.7643
 Quadrupole moment (field-independent basis, Debye-Ang):
   XX=             -8.1082   YY=              9.4698   ZZ=            -14.7104
   XY=             -1.4489   XZ=              0.0000   YZ=              0.0000

 Normal termination of Gaussian 16 at Sat Aug 27 02:26:12 2022.
