 Gaussian 16, Revision A.03,
 Gaussian 16:  ES64L-G16RevA.03 25-Dec-2016

 ------------------
 #p CCSD(T)/cc-pVTZ
 ------------------

 ------------
 H2O_H2O_2878
 ------------
 Symbolic Z-matrix:
 Charge =  0 Multiplicity = 1

                         Standard orientation:
 ---------------------------------------------------------------------
 Center     Atomic      Atomic             Coordinates (Angstroms)
 Number     Number       Type             X           Y           Z
 ---------------------------------------------------------------------
      1          8           0        0.011143   -2.331441    0.000000
      2          1           0       -0.788663   -2.902245    0.000000
      3          1           0        0.810479   -2.902902    0.000000
      4          8           0        0.011143    2.333627    0.000000
      5          1           0        0.684222    3.049497    0.000000
      6          1           0       -0.884321    2.738164    0.000000
 ---------------------------------------------------------------------

 SCF Done:  E(RHF) =  -152.105913962     A.U. after   10 cycles
 E2 =    -0.5260711877D+00 EUMP2 =    -0.15263198514995D+03
 CCSD(T)
 CCSD(T)= -0.15265923258D+03

 The electronic state is 1-A'.
 Alpha  occ. eigenvalues --  -20.54841 -20.54818  -1.32133  -1.32109  -0.69544
 Alpha  occ. eigenvalues --   -0.69519  -0.55532  -0.55455  -0.49234  -0.49210
 Alpha virt. eigenvalues --    0.14372   0.15058   0.20609   0.20830   0.54808
 Alpha virt. eigenvalues --    0.55267   0.57777   0.57886   0.66387   0.71134
 Alpha virt. eigenvalues --    0.79591   0.79712   0.81063   0.81164   0.82453

 Mulliken charges:
               1
     1  O   -0.500032
     2  H    0.249429
     3  H    0.250606
     4  O   -0.499973
     5  H    0.249244
     6  H    0.250726
 Sum of Mulliken charges =  -0.00000

 Dipole moment (field-independent basis, Debye):
    X=             -0.3798    Y=             -0.0387    Z=              0.0000  Tot=              0.3817
 Quadrupole moment (field-independent basis, Debye-Ang):
   XX=             -7.8971   YY=              6.4732   ZZ=            -14.7097
   XY=             -0.5559   XZ=              0.0000   YZ=              0.0000

 Normal termination of Gaussian 16 at Fri Aug 26 17:04:28 2022.
