 Gaussian 16, Revision A.03,
 Gaussian 16:  ES64L-G16RevA.03 25-Dec-2016

 ------------------
 #p CCSD(T)/cc-pVTZ
 ------------------

 ------------
 H2O_H2O_2326
 ------------
 Symbolic Z-matrix:
 Charge =  0 Multiplicity = 1

                         Standard orientation:
 ---------------------------------------------------------------------
 Center     Atomic      Atomic             Coordinates (Angstroms)
 Number     Number       Type             X           Y           Z
 ---------------------------------------------------------------------
      1          8           0        0.003735   -2.039986    0.000000
      2          1           0       -0.795926   -2.610992    0.000000
      3          1           0        0.803216   -2.611244    0.000000
      4          8           0        0.003735    2.040230    0.000000
      5          1           0        0.764339    2.662314    0.000000
      6          1           0       -0.831396    2.557976    0.000000
 ---------------------------------------------------------------------

 SCF Done:  E(RHF) =  -152.105216802     A.U. after   10 cycles
 E2 =    -0.5262536860D+00 EUMP2 =    -0.15263147048790D+03
 CCSD(T)
 CCSD(T)= -0.15265872060D+03

 The electronic state is 1-A'.
 Alpha  occ. eigenvalues --  -20.54600 -20.54596  -1.31889  -1.31877  -0.69306
 Alpha  occ. eigenvalues --   -0.69293  -0.55364  -0.55053  -0.49000  -0.48960
 Alpha virt. eigenvalues --    0.14240   0.15532   0.20639   0.21065   0.54489
 Alpha virt. eigenvalues --    0.56058   0.57885   0.58119   0.62826   0.74276
 Alpha virt. eigenvalues --    0.79573   0.80195   0.80973   0.81414   0.81771

 Mulliken charges:
               1
     1  O   -0.495022
     2  H    0.247231
     3  H    0.247794
     4  O   -0.495014
     5  H    0.247170
     6  H    0.247841
 Sum of Mulliken charges =  -0.00000

 Dipole moment (field-independent basis, Debye):
    X=             -0.1264    Y=             -0.0044    Z=              0.0000  Tot=              0.1265
 Quadrupole moment (field-independent basis, Debye-Ang):
   XX=             -7.8423   YY=              4.1773   ZZ=            -14.7094
   XY=             -0.1475   XZ=              0.0000   YZ=              0.0000

 Normal termination of Gaussian 16 at Sat Aug 27 09:53:13 2022.
