 Gaussian 16, Revision A.03,
 Gaussian 16:  ES64L-G16RevA.03 25-Dec-2016

 ------------------
 #p CCSD(T)/cc-pVTZ
 ------------------

 ------------
 H2O_H2O_4581
 ------------
 Symbolic Z-matrix:
 Charge =  0 Multiplicity = 1

                         Standard orientation:
 ---------------------------------------------------------------------
 Center     Atomic      Atomic             Coordinates (Angstroms)
 Number     Number       Type             X           Y           Z
 ---------------------------------------------------------------------
      1          8           0        0.021859   -3.232042    0.000000
      2          1           0       -0.778044   -3.802709    0.000000
      3          1           0        0.821098   -3.803639    0.000000
      4          8           0        0.021859    3.240711    0.000000
      5          1           0        0.542488    4.074049    0.000000
      6          1           0       -0.935282    3.462943    0.000000
 ---------------------------------------------------------------------

 SCF Done:  E(RHF) =  -152.106922558     A.U. after   10 cycles
 E2 =    -0.5259197003D+00 EUMP2 =    -0.15263284225821D+03
 CCSD(T)
 CCSD(T)= -0.15266007284D+03

 The electronic state is 1-A'.
 Alpha  occ. eigenvalues --  -20.55254 -20.55206  -1.32550  -1.32502  -0.69957
 Alpha  occ. eigenvalues --   -0.69908  -0.55975  -0.55927  -0.49658  -0.49610
 Alpha virt. eigenvalues --    0.14381   0.14433   0.20432   0.20483   0.54611
 Alpha virt. eigenvalues --    0.54663   0.57486   0.57534   0.68246   0.68307
 Alpha virt. eigenvalues --    0.79221   0.79268   0.80663   0.80715   0.82590

 Mulliken charges:
               1
     1  O   -0.506003
     2  H    0.252539
     3  H    0.253464
     4  O   -0.505958
     5  H    0.252310
     6  H    0.253648
 Sum of Mulliken charges =  -0.00000

 Dipole moment (field-independent basis, Debye):
    X=             -0.7513    Y=             -0.1512    Z=              0.0000  Tot=              0.7664
 Quadrupole moment (field-independent basis, Debye-Ang):
   XX=             -8.1029   YY=             13.1634   ZZ=            -14.7109
   XY=             -1.8048   XZ=              0.0000   YZ=              0.0000

 Normal termination of Gaussian 16 at Sat Aug 27 08:10:07 2022.
