 Gaussian 16, Revision A.03,
 Gaussian 16:  ES64L-G16RevA.03 25-Dec-2016

 ------------------
 #p CCSD(T)/cc-pVTZ
 ------------------

 -----------
 H2O_H2O_426
 -----------
 Symbolic Z-matrix:
 Charge =  0 Multiplicity = 1

                         Standard orientation:
 ---------------------------------------------------------------------
 Center     Atomic      Atomic             Coordinates (Angstroms)
 Number     Number       Type             X           Y           Z
 ---------------------------------------------------------------------
      1          8           0        0.003735   -1.029498    0.000000
      2          1           0       -0.796014   -1.600380    0.000000
      3          1           0        0.803128   -1.600880    0.000000
      4          8           0        0.003735    1.029740    0.000000
      5          1           0        0.764436    1.651706    0.000000
      6          1           0       -0.831316    1.547615    0.000000
 ---------------------------------------------------------------------

 SCF Done:  E(RHF) =  -152.058317510     A.U. after   10 cycles
 E2 =    -0.5341619467D+00 EUMP2 =    -0.15259247945651D+03
 CCSD(T)
 CCSD(T)= -0.15261941025D+03

 The electronic state is 1-A'.
 Alpha  occ. eigenvalues --  -20.51933 -20.51926  -1.31659  -1.28714  -0.68371
 Alpha  occ. eigenvalues --   -0.66573  -0.60469  -0.48920  -0.45176  -0.44484
 Alpha virt. eigenvalues --    0.14653   0.18352   0.20507   0.22754   0.50187
 Alpha virt. eigenvalues --    0.59137   0.59251   0.66021   0.70375   0.77777
 Alpha virt. eigenvalues --    0.79004   0.82528   0.84479   0.86696   0.87167

 Mulliken charges:
               1
     1  O   -0.434184
     2  H    0.215971
     3  H    0.218133
     4  O   -0.433509
     5  H    0.213428
     6  H    0.220161
 Sum of Mulliken charges =   0.00000

 Dipole moment (field-independent basis, Debye):
    X=             -0.1102    Y=             -0.0051    Z=              0.0000  Tot=              0.1103
 Quadrupole moment (field-independent basis, Debye-Ang):
   XX=             -8.1376   YY=             -5.3768   ZZ=            -14.7503
   XY=             -0.0349   XZ=              0.0000   YZ=              0.0000

 Normal termination of Gaussian 16 at Fri Aug 26 16:21:20 2022.
