 Gaussian 16, Revision A.03,
 Gaussian 16:  ES64L-G16RevA.03 25-Dec-2016

 ------------------
 #p CCSD(T)/cc-pVTZ
 ------------------

 ------------
 H2O_H2O_3043
 ------------
 Symbolic Z-matrix:
 Charge =  0 Multiplicity = 1

                         Standard orientation:
 ---------------------------------------------------------------------
 Center     Atomic      Atomic             Coordinates (Angstroms)
 Number     Number       Type             X           Y           Z
 ---------------------------------------------------------------------
      1          8           0        0.052832   -2.374216    0.000000
      2          1           0       -0.747814   -2.943839    0.000000
      3          1           0        0.851325   -2.946854    0.000000
      4          8           0        0.052832    2.444531    0.000000
      5          1           0       -0.167037    3.402217    0.000000
      6          1           0       -0.781787    1.925958    0.000000
 ---------------------------------------------------------------------

 SCF Done:  E(RHF) =  -152.107306973     A.U. after   10 cycles
 E2 =    -0.5259652769D+00 EUMP2 =    -0.15263327224989D+03
 CCSD(T)
 CCSD(T)= -0.15266048704D+03

 The electronic state is 1-A'.
 Alpha  occ. eigenvalues --  -20.55532 -20.54795  -1.32827  -1.32088  -0.70235
 Alpha  occ. eigenvalues --   -0.69478  -0.56266  -0.55525  -0.49937  -0.49203
 Alpha virt. eigenvalues --    0.13704   0.15172   0.20139   0.21157   0.54206
 Alpha virt. eigenvalues --    0.54943   0.57248   0.57888   0.66853   0.70402
 Alpha virt. eigenvalues --    0.78946   0.79662   0.80149   0.80902   0.82801

 Mulliken charges:
               1
     1  O   -0.507686
     2  H    0.251439
     3  H    0.256506
     4  O   -0.507456
     5  H    0.249161
     6  H    0.258037
 Sum of Mulliken charges =  -0.00000

 Dipole moment (field-independent basis, Debye):
    X=             -1.8040    Y=             -1.2500    Z=              0.0000  Tot=              2.1947
 Quadrupole moment (field-independent basis, Debye-Ang):
   XX=             -9.5590   YY=              2.9540   ZZ=            -14.7126
   XY=             -3.9038   XZ=              0.0000   YZ=              0.0000

 Normal termination of Gaussian 16 at Fri Aug 26 18:48:45 2022.
