 Gaussian 16, Revision A.03,
 Gaussian 16:  ES64L-G16RevA.03 25-Dec-2016

 ------------------
 #p CCSD(T)/cc-pVTZ
 ------------------

 -----------
 H2O_H2O_726
 -----------
 Symbolic Z-matrix:
 Charge =  0 Multiplicity = 1

                         Standard orientation:
 ---------------------------------------------------------------------
 Center     Atomic      Atomic             Coordinates (Angstroms)
 Number     Number       Type             X           Y           Z
 ---------------------------------------------------------------------
      1          8           0        0.003735   -1.189048    0.000000
      2          1           0       -0.795990   -1.759964    0.000000
      3          1           0        0.803152   -1.760396    0.000000
      4          8           0        0.003735    1.189291    0.000000
      5          1           0        0.764410    1.811289    0.000000
      6          1           0       -0.831338    1.707132    0.000000
 ---------------------------------------------------------------------

 SCF Done:  E(RHF) =  -152.086974606     A.U. after   10 cycles
 E2 =    -0.5300614555D+00 EUMP2 =    -0.15261703606097D+03
 CCSD(T)
 CCSD(T)= -0.15264429947D+03

 The electronic state is 1-A'.
 Alpha  occ. eigenvalues --  -20.52796 -20.52788  -1.31039  -1.29807  -0.68235
 Alpha  occ. eigenvalues --   -0.67433  -0.57662  -0.48877  -0.48352  -0.46493
 Alpha virt. eigenvalues --    0.14543   0.17723   0.20578   0.22443   0.50235
 Alpha virt. eigenvalues --    0.58952   0.58967   0.63994   0.72874   0.76745
 Alpha virt. eigenvalues --    0.77478   0.80170   0.84188   0.86589   0.86718

 Mulliken charges:
               1
     1  O   -0.454940
     2  H    0.226512
     3  H    0.228360
     4  O   -0.454520
     5  H    0.225785
     6  H    0.228802
 Sum of Mulliken charges =  -0.00000

 Dipole moment (field-independent basis, Debye):
    X=             -0.1154    Y=             -0.0048    Z=              0.0000  Tot=              0.1155
 Quadrupole moment (field-independent basis, Debye-Ang):
   XX=             -8.0220   YY=             -3.4909   ZZ=            -14.7317
   XY=             -0.0469   XZ=              0.0000   YZ=              0.0000

 Normal termination of Gaussian 16 at Fri Aug 26 19:28:07 2022.
