 Gaussian 16, Revision A.03,
 Gaussian 16:  ES64L-G16RevA.03 25-Dec-2016

 ------------------
 #p CCSD(T)/cc-pVTZ
 ------------------

 ------------
 H2O_H2O_4303
 ------------
 Symbolic Z-matrix:
 Charge =  0 Multiplicity = 1

                         Standard orientation:
 ---------------------------------------------------------------------
 Center     Atomic      Atomic             Coordinates (Angstroms)
 Number     Number       Type             X           Y           Z
 ---------------------------------------------------------------------
      1          8           0        0.011143   -3.089307    0.000000
      2          1           0       -0.788606   -3.660191    0.000000
      3          1           0        0.810536   -3.660687    0.000000
      4          8           0        0.011143    3.091495    0.000000
      5          1           0        0.684150    3.807432    0.000000
      6          1           0       -0.884362    3.495942    0.000000
 ---------------------------------------------------------------------

 SCF Done:  E(RHF) =  -152.106786006     A.U. after   10 cycles
 E2 =    -0.5259347840D+00 EUMP2 =    -0.15263272079041D+03
 CCSD(T)
 CCSD(T)= -0.15265995408D+03

 The electronic state is 1-A'.
 Alpha  occ. eigenvalues --  -20.55179 -20.55166  -1.32475  -1.32461  -0.69882
 Alpha  occ. eigenvalues --   -0.69868  -0.55893  -0.55880  -0.49581  -0.49568
 Alpha virt. eigenvalues --    0.14434   0.14473   0.20486   0.20507   0.54686
 Alpha virt. eigenvalues --    0.54704   0.57550   0.57566   0.68309   0.68396
 Alpha virt. eigenvalues --    0.79297   0.79310   0.80742   0.80756   0.82671

 Mulliken charges:
               1
     1  O   -0.505196
     2  H    0.252329
     3  H    0.252867
     4  O   -0.505181
     5  H    0.252215
     6  H    0.252966
 Sum of Mulliken charges =  -0.00000

 Dipole moment (field-independent basis, Debye):
    X=             -0.3827    Y=             -0.0382    Z=              0.0000  Tot=              0.3846
 Quadrupole moment (field-independent basis, Debye-Ang):
   XX=             -7.8818   YY=             12.5269   ZZ=            -14.7106
   XY=             -0.8418   XZ=              0.0000   YZ=              0.0000

 Normal termination of Gaussian 16 at Sat Aug 27 06:33:25 2022.
