 Gaussian 16, Revision A.03,
 Gaussian 16:  ES64L-G16RevA.03 25-Dec-2016

 ------------------
 #p CCSD(T)/cc-pVTZ
 ------------------

 ------------
 H2O_H2O_1983
 ------------
 Symbolic Z-matrix:
 Charge =  0 Multiplicity = 1

                         Standard orientation:
 ---------------------------------------------------------------------
 Center     Atomic      Atomic             Coordinates (Angstroms)
 Number     Number       Type             X           Y           Z
 ---------------------------------------------------------------------
      1          8           0        0.028567   -1.845705    0.000000
      2          1           0       -0.771761   -2.415776    0.000000
      3          1           0        0.827379   -2.417897    0.000000
      4          8           0        0.028567    1.860932    0.000000
      5          1           0        0.436637    2.754793    0.000000
      6          1           0       -0.949322    1.957059    0.000000
 ---------------------------------------------------------------------

 SCF Done:  E(RHF) =  -152.105097941     A.U. after   10 cycles
 E2 =    -0.5264630625D+00 EUMP2 =    -0.15263156100372D+03
 CCSD(T)
 CCSD(T)= -0.15265879735D+03

 The electronic state is 1-A'.
 Alpha  occ. eigenvalues --  -20.54650 -20.54379  -1.31930  -1.31652  -0.69350
 Alpha  occ. eigenvalues --   -0.69060  -0.55430  -0.54769  -0.49035  -0.48746
 Alpha virt. eigenvalues --    0.14015   0.15948   0.20490   0.21440   0.53405
 Alpha virt. eigenvalues --    0.56045   0.57915   0.58306   0.62507   0.75854
 Alpha virt. eigenvalues --    0.79177   0.79664   0.80716   0.80866   0.83150

 Mulliken charges:
               1
     1  O   -0.491553
     2  H    0.243253
     3  H    0.248725
     4  O   -0.491640
     5  H    0.242143
     6  H    0.249072
 Sum of Mulliken charges =  -0.00000

 Dipole moment (field-independent basis, Debye):
    X=             -0.9591    Y=             -0.2799    Z=              0.0000  Tot=              0.9991
 Quadrupole moment (field-independent basis, Debye-Ang):
   XX=             -8.3500   YY=              2.1556   ZZ=            -14.7101
   XY=             -1.0839   XZ=              0.0000   YZ=              0.0000

 Normal termination of Gaussian 16 at Sat Aug 27 07:55:15 2022.
