 Gaussian 16, Revision A.03,
 Gaussian 16:  ES64L-G16RevA.03 25-Dec-2016

 ------------------
 #p CCSD(T)/cc-pVTZ
 ------------------

 ------------
 H2O_H2O_4844
 ------------
 Symbolic Z-matrix:
 Charge =  0 Multiplicity = 1

                         Standard orientation:
 ---------------------------------------------------------------------
 Center     Atomic      Atomic             Coordinates (Angstroms)
 Number     Number       Type             X           Y           Z
 ---------------------------------------------------------------------
      1          8           0        0.054136   -3.327696    0.000000
      2          1           0       -0.746224   -3.897722    0.000000
      3          1           0        0.852916   -3.899934    0.000000
      4          8           0        0.054136    3.405056    0.000000
      5          1           0       -0.228372    4.346171    0.000000
      6          1           0       -0.744493    2.832606    0.000000
 ---------------------------------------------------------------------

 SCF Done:  E(RHF) =  -152.107433165     A.U. after   10 cycles
 E2 =    -0.5258730435D+00 EUMP2 =    -0.15263330620886D+03
 CCSD(T)
 CCSD(T)= -0.15266052602D+03

 The electronic state is 1-A'.
 Alpha  occ. eigenvalues --  -20.55605 -20.55214  -1.32904  -1.32512  -0.70310
 Alpha  occ. eigenvalues --   -0.69913  -0.56353  -0.55958  -0.50016  -0.49625
 Alpha virt. eigenvalues --    0.14072   0.14465   0.20149   0.20563   0.54251
 Alpha virt. eigenvalues --    0.54659   0.57172   0.57564   0.67833   0.68239
 Alpha virt. eigenvalues --    0.78863   0.79249   0.80294   0.80710   0.82218

 Mulliken charges:
               1
     1  O   -0.509032
     2  H    0.253535
     3  H    0.255497
     4  O   -0.508818
     5  H    0.252551
     6  H    0.256267
 Sum of Mulliken charges =  -0.00000

 Dipole moment (field-independent basis, Debye):
    X=             -1.8622    Y=             -1.3489    Z=              0.0000  Tot=              2.2995
 Quadrupole moment (field-independent basis, Debye-Ang):
   XX=             -9.6490   YY=              7.5139   ZZ=            -14.7120
   XY=             -5.8838   XZ=              0.0000   YZ=              0.0000

 Normal termination of Gaussian 16 at Sat Aug 27 09:39:17 2022.
