 Gaussian 16, Revision A.03,
 Gaussian 16:  ES64L-G16RevA.03 25-Dec-2016

 ------------------
 #p CCSD(T)/cc-pVTZ
 ------------------

 ------------
 H2O_H2O_1247
 ------------
 Symbolic Z-matrix:
 Charge =  0 Multiplicity = 1

                         Standard orientation:
 ---------------------------------------------------------------------
 Center     Atomic      Atomic             Coordinates (Angstroms)
 Number     Number       Type             X           Y           Z
 ---------------------------------------------------------------------
      1          8           0        0.056791   -1.401364    0.000000
      2          1           0       -0.744694   -1.969806    0.000000
      3          1           0        0.854439   -1.975179    0.000000
      4          8           0        0.056791    1.500300    0.000000
      5          1           0       -0.402173    2.369125    0.000000
      6          1           0       -0.616229    0.784374    0.000000
 ---------------------------------------------------------------------

 SCF Done:  E(RHF) =  -152.108111050     A.U. after   10 cycles
 E2 =    -0.5278212770D+00 EUMP2 =    -0.15263593232735D+03
 CCSD(T)
 CCSD(T)= -0.15266300378D+03

 The electronic state is 1-A'.
 Alpha  occ. eigenvalues --  -20.56434 -20.53036  -1.33803  -1.30367  -0.71195
 Alpha  occ. eigenvalues --   -0.68033  -0.56998  -0.53871  -0.50908  -0.47488
 Alpha virt. eigenvalues --    0.13083   0.17445   0.19600   0.25368   0.52083
 Alpha virt. eigenvalues --    0.56303   0.56937   0.59158   0.69515   0.74681
 Alpha virt. eigenvalues --    0.74917   0.78492   0.82193   0.82542   0.84113

 Mulliken charges:
               1
     1  O   -0.487435
     2  H    0.242786
     3  H    0.258912
     4  O   -0.511436
     5  H    0.233076
     6  H    0.264096
 Sum of Mulliken charges =  -0.00000

 Dipole moment (field-independent basis, Debye):
    X=             -1.8422    Y=             -1.9746    Z=              0.0000  Tot=              2.7005
 Quadrupole moment (field-independent basis, Debye-Ang):
   XX=             -9.8313   YY=             -3.7879   ZZ=            -14.7266
   XY=             -2.8961   XZ=              0.0000   YZ=              0.0000

 Normal termination of Gaussian 16 at Sat Aug 27 03:20:34 2022.
