 Gaussian 16, Revision A.03,
 Gaussian 16:  ES64L-G16RevA.03 25-Dec-2016

 ------------------
 #p CCSD(T)/cc-pVTZ
 ------------------

 ------------
 H2O_H2O_1166
 ------------
 Symbolic Z-matrix:
 Charge =  0 Multiplicity = 1

                         Standard orientation:
 ---------------------------------------------------------------------
 Center     Atomic      Atomic             Coordinates (Angstroms)
 Number     Number       Type             X           Y           Z
 ---------------------------------------------------------------------
      1          8           0        0.049547   -1.384352    0.000000
      2          1           0       -0.751741   -1.953071    0.000000
      3          1           0        0.847393   -1.957891    0.000000
      4          8           0        0.049547    1.441166    0.000000
      5          1           0       -0.042334    2.419463    0.000000
      6          1           0       -0.846075    1.036981    0.000000
 ---------------------------------------------------------------------

 SCF Done:  E(RHF) =  -152.104017777     A.U. after   10 cycles
 E2 =    -0.5278621852D+00 EUMP2 =    -0.15263187996188D+03
 CCSD(T)
 CCSD(T)= -0.15265906450D+03

 The electronic state is 1-A'.
 Alpha  occ. eigenvalues --  -20.55144 -20.53388  -1.32523  -1.30638  -0.69943
 Alpha  occ. eigenvalues --   -0.68141  -0.56099  -0.53557  -0.49650  -0.47710
 Alpha virt. eigenvalues --    0.13702   0.17120   0.20028   0.23406   0.53685
 Alpha virt. eigenvalues --    0.57474   0.57578   0.58333   0.69083   0.75759
 Alpha virt. eigenvalues --    0.76103   0.77172   0.81177   0.82648   0.85075

 Mulliken charges:
               1
     1  O   -0.479566
     2  H    0.234851
     3  H    0.250973
     4  O   -0.482983
     5  H    0.225901
     6  H    0.250825
 Sum of Mulliken charges =  -0.00000

 Dipole moment (field-independent basis, Debye):
    X=             -1.5948    Y=             -1.1046    Z=              0.0000  Tot=              1.9400
 Quadrupole moment (field-independent basis, Debye-Ang):
   XX=             -9.3938   YY=             -2.4406   ZZ=            -14.7210
   XY=             -1.8082   XZ=              0.0000   YZ=              0.0000

 Normal termination of Gaussian 16 at Sat Aug 27 02:40:19 2022.
