 Gaussian 16, Revision A.03,
 Gaussian 16:  ES64L-G16RevA.03 25-Dec-2016

 ------------------
 #p CCSD(T)/cc-pVTZ
 ------------------

 ------------
 H2O_H2O_2867
 ------------
 Symbolic Z-matrix:
 Charge =  0 Multiplicity = 1

                         Standard orientation:
 ---------------------------------------------------------------------
 Center     Atomic      Atomic             Coordinates (Angstroms)
 Number     Number       Type             X           Y           Z
 ---------------------------------------------------------------------
      1          8           0        0.051284   -2.284840    0.000000
      2          1           0       -0.749373   -2.854449    0.000000
      3          1           0        0.849766   -2.857493    0.000000
      4          8           0        0.051284    2.348350    0.000000
      5          1           0       -0.105461    3.318369    0.000000
      6          1           0       -0.815473    1.885491    0.000000
 ---------------------------------------------------------------------

 SCF Done:  E(RHF) =  -152.107154855     A.U. after   10 cycles
 E2 =    -0.5260020022D+00 EUMP2 =    -0.15263315685686D+03
 CCSD(T)
 CCSD(T)= -0.15266037260D+03

 The electronic state is 1-A'.
 Alpha  occ. eigenvalues --  -20.55461 -20.54735  -1.32754  -1.32027  -0.70162
 Alpha  occ. eigenvalues --   -0.69416  -0.56183  -0.55457  -0.49863  -0.49141
 Alpha virt. eigenvalues --    0.13679   0.15292   0.20168   0.21241   0.54193
 Alpha virt. eigenvalues --    0.54944   0.57314   0.57938   0.66552   0.71252
 Alpha virt. eigenvalues --    0.79016   0.79727   0.80159   0.81219   0.82826

 Mulliken charges:
               1
     1  O   -0.506491
     2  H    0.250674
     3  H    0.256167
     4  O   -0.506443
     5  H    0.248433
     6  H    0.257660
 Sum of Mulliken charges =  -0.00000

 Dipole moment (field-independent basis, Debye):
    X=             -1.7481    Y=             -1.1332    Z=              0.0000  Tot=              2.0833
 Quadrupole moment (field-independent basis, Debye-Ang):
   XX=             -9.4585   YY=              2.8920   ZZ=            -14.7124
   XY=             -3.5193   XZ=              0.0000   YZ=              0.0000

 Normal termination of Gaussian 16 at Fri Aug 26 16:54:56 2022.
