 Gaussian 16, Revision A.03,
 Gaussian 16:  ES64L-G16RevA.03 25-Dec-2016

 ------------------
 #p CCSD(T)/cc-pVTZ
 ------------------

 ------------
 H2O_H2O_3331
 ------------
 Symbolic Z-matrix:
 Charge =  0 Multiplicity = 1

                         Standard orientation:
 ---------------------------------------------------------------------
 Center     Atomic      Atomic             Coordinates (Angstroms)
 Number     Number       Type             X           Y           Z
 ---------------------------------------------------------------------
      1          8           0        0.021859   -2.567250    0.000000
      2          1           0       -0.778129   -3.137797    0.000000
      3          1           0        0.821012   -3.138967    0.000000
      4          8           0        0.021859    2.575913    0.000000
      5          1           0        0.542614    3.409172    0.000000
      6          1           0       -0.935248    2.798288    0.000000
 ---------------------------------------------------------------------

 SCF Done:  E(RHF) =  -152.106377885     A.U. after   10 cycles
 E2 =    -0.5259973275D+00 EUMP2 =    -0.15263237521267D+03
 CCSD(T)
 CCSD(T)= -0.15265961555D+03

 The electronic state is 1-A'.
 Alpha  occ. eigenvalues --  -20.55028 -20.54953  -1.32322  -1.32246  -0.69732
 Alpha  occ. eigenvalues --   -0.69653  -0.55721  -0.55643  -0.49426  -0.49350
 Alpha virt. eigenvalues --    0.14411   0.14784   0.20542   0.20705   0.54786
 Alpha virt. eigenvalues --    0.54972   0.57659   0.57757   0.67770   0.69420
 Alpha virt. eigenvalues --    0.79448   0.79527   0.80882   0.81008   0.82753

 Mulliken charges:
               1
     1  O   -0.502816
     2  H    0.250524
     3  H    0.252294
     4  O   -0.502682
     5  H    0.250144
     6  H    0.252535
 Sum of Mulliken charges =   0.00000

 Dipole moment (field-independent basis, Debye):
    X=             -0.7476    Y=             -0.1525    Z=              0.0000  Tot=              0.7630
 Quadrupole moment (field-independent basis, Debye-Ang):
   XX=             -8.1114   YY=              8.0249   ZZ=            -14.7102
   XY=             -1.3112   XZ=              0.0000   YZ=              0.0000

 Normal termination of Gaussian 16 at Fri Aug 26 21:25:59 2022.
