 Gaussian 16, Revision A.03,
 Gaussian 16:  ES64L-G16RevA.03 25-Dec-2016

 ------------------
 #p CCSD(T)/cc-pVTZ
 ------------------

 ------------
 H2O_H2O_3203
 ------------
 Symbolic Z-matrix:
 Charge =  0 Multiplicity = 1

                         Standard orientation:
 ---------------------------------------------------------------------
 Center     Atomic      Atomic             Coordinates (Angstroms)
 Number     Number       Type             X           Y           Z
 ---------------------------------------------------------------------
      1          8           0        0.011143   -2.504288    0.000000
      2          1           0       -0.788647   -3.075114    0.000000
      3          1           0        0.810495   -3.075726    0.000000
      4          8           0        0.011143    2.506474    0.000000
      5          1           0        0.684202    3.222363    0.000000
      6          1           0       -0.884333    2.910986    0.000000
 ---------------------------------------------------------------------

 SCF Done:  E(RHF) =  -152.106194428     A.U. after   10 cycles
 E2 =    -0.5260190621D+00 EUMP2 =    -0.15263221348991D+03
 CCSD(T)
 CCSD(T)= -0.15265945732D+03

 The electronic state is 1-A'.
 Alpha  occ. eigenvalues --  -20.54942 -20.54922  -1.32235  -1.32215  -0.69645
 Alpha  occ. eigenvalues --   -0.69624  -0.55630  -0.55597  -0.49338  -0.49317
 Alpha virt. eigenvalues --    0.14439   0.14844   0.20588   0.20725   0.54836
 Alpha virt. eigenvalues --    0.55041   0.57719   0.57786   0.67536   0.69798
 Alpha virt. eigenvalues --    0.79526   0.79569   0.80956   0.81054   0.82713

 Mulliken charges:
               1
     1  O   -0.501728
     2  H    0.250380
     3  H    0.251348
     4  O   -0.501685
     5  H    0.250213
     6  H    0.251472
 Sum of Mulliken charges =  -0.00000

 Dipole moment (field-independent basis, Debye):
    X=             -0.3808    Y=             -0.0385    Z=              0.0000  Tot=              0.3827
 Quadrupole moment (field-independent basis, Debye-Ang):
   XX=             -7.8919   YY=              7.8625   ZZ=            -14.7099
   XY=             -0.6208   XZ=              0.0000   YZ=              0.0000

 Normal termination of Gaussian 16 at Fri Aug 26 20:20:33 2022.
