 Gaussian 16, Revision A.03,
 Gaussian 16:  ES64L-G16RevA.03 25-Dec-2016

 ------------------
 #p CCSD(T)/cc-pVTZ
 ------------------

 -----------
 H2O_H2O_753
 -----------
 Symbolic Z-matrix:
 Charge =  0 Multiplicity = 1

                         Standard orientation:
 ---------------------------------------------------------------------
 Center     Atomic      Atomic             Coordinates (Angstroms)
 Number     Number       Type             X           Y           Z
 ---------------------------------------------------------------------
      1          8           0        0.011143   -1.201294    0.000000
      2          1           0       -0.788883   -1.771788    0.000000
      3          1           0        0.810258   -1.773063    0.000000
      4          8           0        0.011143    1.203471    0.000000
      5          1           0        0.684499    1.919080    0.000000
      6          1           0       -0.884164    1.608354    0.000000
 ---------------------------------------------------------------------

 SCF Done:  E(RHF) =  -152.088573289     A.U. after   11 cycles
 E2 =    -0.5298518689D+00 EUMP2 =    -0.15261842515829D+03
 CCSD(T)
 CCSD(T)= -0.15264569475D+03

 The electronic state is 1-A'.
 Alpha  occ. eigenvalues --  -20.52921 -20.52856  -1.31062  -1.29902  -0.68286
 Alpha  occ. eigenvalues --   -0.67521  -0.57476  -0.49234  -0.48371  -0.46609
 Alpha virt. eigenvalues --    0.14516   0.17645   0.20566   0.22456   0.50492
 Alpha virt. eigenvalues --    0.58887   0.58942   0.63639   0.72594   0.76683
 Alpha virt. eigenvalues --    0.77209   0.80136   0.84115   0.86546   0.86719

 Mulliken charges:
               1
     1  O   -0.457193
     2  H    0.225612
     3  H    0.231054
     4  O   -0.453747
     5  H    0.222814
     6  H    0.231460
 Sum of Mulliken charges =  -0.00000

 Dipole moment (field-independent basis, Debye):
    X=             -0.3453    Y=             -0.0425    Z=              0.0000  Tot=              0.3479
 Quadrupole moment (field-independent basis, Debye-Ang):
   XX=             -8.0797   YY=             -3.3564   ZZ=            -14.7297
   XY=             -0.1498   XZ=              0.0000   YZ=              0.0000

 Normal termination of Gaussian 16 at Fri Aug 26 19:41:29 2022.
