 Gaussian 16, Revision A.03,
 Gaussian 16:  ES64L-G16RevA.03 25-Dec-2016

 ------------------
 #p CCSD(T)/cc-pVTZ
 ------------------

 -----------
 H2O_H2O_444
 -----------
 Symbolic Z-matrix:
 Charge =  0 Multiplicity = 1

                         Standard orientation:
 ---------------------------------------------------------------------
 Center     Atomic      Atomic             Coordinates (Angstroms)
 Number     Number       Type             X           Y           Z
 ---------------------------------------------------------------------
      1          8           0        0.054257   -0.987795    0.000000
      2          1           0       -0.747896   -1.555294    0.000000
      3          1           0        0.851230   -1.562548    0.000000
      4          8           0        0.054257    1.064813    0.000000
      5          1           0       -0.225281    2.006813    0.000000
      6          1           0       -0.746172    0.494884    0.000000
 ---------------------------------------------------------------------

 SCF Done:  E(RHF) =  -152.062615700     A.U. after   11 cycles
 E2 =    -0.5355502851D+00 EUMP2 =    -0.15259816598559D+03
 CCSD(T)
 CCSD(T)= -0.15262480672D+03

 The electronic state is 1-A'.
 Alpha  occ. eigenvalues --  -20.55136 -20.51088  -1.34773  -1.28357  -0.72246
 Alpha  occ. eigenvalues --   -0.69206  -0.54613  -0.51393  -0.49847  -0.45274
 Alpha virt. eigenvalues --    0.13473   0.18622   0.19568   0.25189   0.51188
 Alpha virt. eigenvalues --    0.56191   0.60921   0.63933   0.72204   0.75082
 Alpha virt. eigenvalues --    0.79415   0.82003   0.83956   0.84747   0.87857

 Mulliken charges:
               1
     1  O   -0.412196
     2  H    0.203738
     3  H    0.233268
     4  O   -0.458506
     5  H    0.182453
     6  H    0.251243
 Sum of Mulliken charges =  -0.00000

 Dipole moment (field-independent basis, Debye):
    X=             -1.5822    Y=             -1.6665    Z=              0.0000  Tot=              2.2979
 Quadrupole moment (field-independent basis, Debye-Ang):
   XX=             -9.7111   YY=             -6.1326   ZZ=            -14.6846
   XY=             -1.6236   XZ=              0.0000   YZ=              0.0000

 Normal termination of Gaussian 16 at Fri Aug 26 16:30:51 2022.
