 Gaussian 16, Revision A.03,
 Gaussian 16:  ES64L-G16RevA.03 25-Dec-2016

 ------------------
 #p CCSD(T)/cc-pVTZ
 ------------------

 ------------
 H2O_H2O_2858
 ------------
 Symbolic Z-matrix:
 Charge =  0 Multiplicity = 1

                         Standard orientation:
 ---------------------------------------------------------------------
 Center     Atomic      Atomic             Coordinates (Angstroms)
 Number     Number       Type             X           Y           Z
 ---------------------------------------------------------------------
      1          8           0        0.028565   -2.311054    0.000000
      2          1           0       -0.771611   -2.881338    0.000000
      3          1           0        0.827530   -2.883033    0.000000
      4          8           0        0.028565    2.326297    0.000000
      5          1           0        0.436397    3.220265    0.000000
      6          1           0       -0.949349    2.422163    0.000000
 ---------------------------------------------------------------------

 SCF Done:  E(RHF) =  -152.106140259     A.U. after   10 cycles
 E2 =    -0.5260592193D+00 EUMP2 =    -0.15263219947798D+03
 CCSD(T)
 CCSD(T)= -0.15265944130D+03

 The electronic state is 1-A'.
 Alpha  occ. eigenvalues --  -20.54963 -20.54797  -1.32255  -1.32087  -0.69666
 Alpha  occ. eigenvalues --   -0.69492  -0.55645  -0.55465  -0.49358  -0.49191
 Alpha virt. eigenvalues --    0.14237   0.15111   0.20516   0.20899   0.54660
 Alpha virt. eigenvalues --    0.55225   0.57695   0.57897   0.66359   0.71202
 Alpha virt. eigenvalues --    0.79496   0.79703   0.80906   0.81222   0.82542

 Mulliken charges:
               1
     1  O   -0.501338
     2  H    0.249146
     3  H    0.252226
     4  O   -0.501013
     5  H    0.248435
     6  H    0.252544
 Sum of Mulliken charges =  -0.00000

 Dipole moment (field-independent basis, Debye):
    X=             -0.9734    Y=             -0.2706    Z=              0.0000  Tot=              1.0103
 Quadrupole moment (field-independent basis, Debye-Ang):
   XX=             -8.3282   YY=              5.7240   ZZ=            -14.7102
   XY=             -1.5290   XZ=              0.0000   YZ=              0.0000

 Normal termination of Gaussian 16 at Fri Aug 26 16:50:10 2022.
