 Gaussian 16, Revision A.03,
 Gaussian 16:  ES64L-G16RevA.03 25-Dec-2016

 ------------------
 #p CCSD(T)/cc-pVTZ
 ------------------

 -----------
 H2O_H2O_479
 -----------
 Symbolic Z-matrix:
 Charge =  0 Multiplicity = 1

                         Standard orientation:
 ---------------------------------------------------------------------
 Center     Atomic      Atomic             Coordinates (Angstroms)
 Number     Number       Type             X           Y           Z
 ---------------------------------------------------------------------
      1          8           0        0.014784   -1.054126    0.000000
      2          1           0       -0.785474   -1.624294    0.000000
      3          1           0        0.813667   -1.626221    0.000000
      4          8           0        0.014784    1.057983    0.000000
      5          1           0        0.640205    1.815845    0.000000
      6          1           0       -0.904947    1.403818    0.000000
 ---------------------------------------------------------------------

 SCF Done:  E(RHF) =  -152.066378516     A.U. after   10 cycles
 E2 =    -0.5331761988D+00 EUMP2 =    -0.15259955471456D+03
 CCSD(T)
 CCSD(T)= -0.15262657271D+03

 The electronic state is 1-A'.
 Alpha  occ. eigenvalues --  -20.52237 -20.52117  -1.31559  -1.28965  -0.68431
 Alpha  occ. eigenvalues --   -0.66839  -0.59692  -0.48838  -0.45645  -0.45487
 Alpha virt. eigenvalues --    0.14600   0.18151   0.20499   0.22791   0.50673
 Alpha virt. eigenvalues --    0.58986   0.59066   0.65334   0.70471   0.77398
 Alpha virt. eigenvalues --    0.78367   0.82243   0.84309   0.86636   0.87220

 Mulliken charges:
               1
     1  O   -0.442162
     2  H    0.216283
     3  H    0.224791
     4  O   -0.433127
     5  H    0.205396
     6  H    0.228819
 Sum of Mulliken charges =  -0.00000

 Dipole moment (field-independent basis, Debye):
    X=             -0.4393    Y=             -0.0793    Z=              0.0000  Tot=              0.4464
 Quadrupole moment (field-independent basis, Debye-Ang):
   XX=             -8.2276   YY=             -5.0319   ZZ=            -14.7447
   XY=             -0.1562   XZ=              0.0000   YZ=              0.0000

 Normal termination of Gaussian 16 at Fri Aug 26 16:50:42 2022.
