 Gaussian 16, Revision A.03,
 Gaussian 16:  ES64L-G16RevA.03 25-Dec-2016

 ------------------
 #p CCSD(T)/cc-pVTZ
 ------------------

 -----------
 H2O_H2O_698
 -----------
 Symbolic Z-matrix:
 Charge =  0 Multiplicity = 1

                         Standard orientation:
 ---------------------------------------------------------------------
 Center     Atomic      Atomic             Coordinates (Angstroms)
 Number     Number       Type             X           Y           Z
 ---------------------------------------------------------------------
      1          8           0        0.057217   -1.104868    0.000000
      2          1           0       -0.744767   -1.672607    0.000000
      3          1           0        0.854361   -1.679382    0.000000
      4          8           0        0.057217    1.211140    0.000000
      5          1           0       -0.456855    2.048538    0.000000
      6          1           0       -0.568204    0.453277    0.000000
 ---------------------------------------------------------------------

 SCF Done:  E(RHF) =  -152.090886527     A.U. after   11 cycles
 E2 =    -0.5323084005D+00 EUMP2 =    -0.15262319492772D+03
 CCSD(T)
 CCSD(T)= -0.15264988650D+03

 The electronic state is 1-A'.
 Alpha  occ. eigenvalues --  -20.56970 -20.50935  -1.35375  -1.28609  -0.72683
 Alpha  occ. eigenvalues --   -0.69157  -0.55179  -0.52285  -0.52181  -0.45626
 Alpha virt. eigenvalues --    0.12891   0.18623   0.19205   0.27068   0.49958
 Alpha virt. eigenvalues --    0.55509   0.61320   0.63681   0.71612   0.73599
 Alpha virt. eigenvalues --    0.76384   0.82141   0.83541   0.83645   0.86874

 Mulliken charges:
               1
     1  O   -0.435516
     2  H    0.225864
     3  H    0.249520
     4  O   -0.517323
     5  H    0.211299
     6  H    0.266155
 Sum of Mulliken charges =  -0.00000

 Dipole moment (field-independent basis, Debye):
    X=             -1.7513    Y=             -2.3745    Z=              0.0000  Tot=              2.9505
 Quadrupole moment (field-independent basis, Debye-Ang):
   XX=             -9.8432   YY=             -5.8923   ZZ=            -14.6960
   XY=             -2.4952   XZ=              0.0000   YZ=              0.0000

 Normal termination of Gaussian 16 at Fri Aug 26 19:11:50 2022.
