 Gaussian 16, Revision A.03,
 Gaussian 16:  ES64L-G16RevA.03 25-Dec-2016

 ------------------
 #p CCSD(T)/cc-pVTZ
 ------------------

 ------------
 H2O_H2O_4613
 ------------
 Symbolic Z-matrix:
 Charge =  0 Multiplicity = 1

                         Standard orientation:
 ---------------------------------------------------------------------
 Center     Atomic      Atomic             Coordinates (Angstroms)
 Number     Number       Type             X           Y           Z
 ---------------------------------------------------------------------
      1          8           0        0.042962   -3.228967    0.000000
      2          1           0       -0.757258   -3.799188    0.000000
      3          1           0        0.841883   -3.801008    0.000000
      4          8           0        0.042962    3.267781    0.000000
      5          1           0        0.141869    4.245392    0.000000
      6          1           0       -0.913887    3.044293    0.000000
 ---------------------------------------------------------------------

 SCF Done:  E(RHF) =  -152.107146201     A.U. after   10 cycles
 E2 =    -0.5259006119D+00 EUMP2 =    -0.15263304681274D+03
 CCSD(T)
 CCSD(T)= -0.15266027260D+03

 The electronic state is 1-A'.
 Alpha  occ. eigenvalues --  -20.55410 -20.55198  -1.32707  -1.32494  -0.70114
 Alpha  occ. eigenvalues --   -0.69897  -0.56142  -0.55929  -0.49817  -0.49604
 Alpha virt. eigenvalues --    0.14243   0.14459   0.20306   0.20530   0.54451
 Alpha virt. eigenvalues --    0.54678   0.57346   0.57559   0.68063   0.68287
 Alpha virt. eigenvalues --    0.79063   0.79272   0.80499   0.80728   0.82425

 Mulliken charges:
               1
     1  O   -0.507333
     2  H    0.252773
     3  H    0.254560
     4  O   -0.507184
     5  H    0.252147
     6  H    0.255037
 Sum of Mulliken charges =  -0.00000

 Dipole moment (field-independent basis, Debye):
    X=             -1.4770    Y=             -0.6772    Z=              0.0000  Tot=              1.6248
 Quadrupole moment (field-independent basis, Debye-Ang):
   XX=             -8.9644   YY=             10.6472   ZZ=            -14.7114
   XY=             -3.9736   XZ=              0.0000   YZ=              0.0000

 Normal termination of Gaussian 16 at Sat Aug 27 08:20:26 2022.
