 Gaussian 16, Revision A.03,
 Gaussian 16:  ES64L-G16RevA.03 25-Dec-2016

 ------------------
 #p CCSD(T)/cc-pVTZ
 ------------------

 -----------
 H2O_H2O_791
 -----------
 Symbolic Z-matrix:
 Charge =  0 Multiplicity = 1

                         Standard orientation:
 ---------------------------------------------------------------------
 Center     Atomic      Atomic             Coordinates (Angstroms)
 Number     Number       Type             X           Y           Z
 ---------------------------------------------------------------------
      1          8           0        0.049561   -1.184939    0.000000
      2          1           0       -0.752009   -1.753261    0.000000
      3          1           0        0.847123   -1.758873    0.000000
      4          8           0        0.049561    1.241704    0.000000
      5          1           0       -0.041835    2.220046    0.000000
      6          1           0       -0.846261    0.837962    0.000000
 ---------------------------------------------------------------------

 SCF Done:  E(RHF) =  -152.095706362     A.U. after   11 cycles
 E2 =    -0.5298854802D+00 EUMP2 =    -0.15262559184205D+03
 CCSD(T)
 CCSD(T)= -0.15265272747D+03

 The electronic state is 1-A'.
 Alpha  occ. eigenvalues --  -20.54818 -20.52690  -1.32641  -1.29912  -0.70017
 Alpha  occ. eigenvalues --   -0.67960  -0.56315  -0.51923  -0.49770  -0.46873
 Alpha virt. eigenvalues --    0.13766   0.17668   0.19990   0.23903   0.52861
 Alpha virt. eigenvalues --    0.57425   0.58863   0.60428   0.71116   0.74988
 Alpha virt. eigenvalues --    0.77995   0.81548   0.83096   0.85006   0.86138

 Mulliken charges:
               1
     1  O   -0.465875
     2  H    0.227181
     3  H    0.246059
     4  O   -0.465643
     5  H    0.209546
     6  H    0.248733
 Sum of Mulliken charges =  -0.00000

 Dipole moment (field-independent basis, Debye):
    X=             -1.5351    Y=             -1.1323    Z=              0.0000  Tot=              1.9075
 Quadrupole moment (field-independent basis, Debye-Ang):
   XX=             -9.4268   YY=             -3.9691   ZZ=            -14.7241
   XY=             -1.4907   XZ=              0.0000   YZ=              0.0000

 Normal termination of Gaussian 16 at Fri Aug 26 20:03:51 2022.
