 Gaussian 16, Revision A.03,
 Gaussian 16:  ES64L-G16RevA.03 25-Dec-2016

 ------------------
 #p CCSD(T)/cc-pVTZ
 ------------------

 ------------
 H2O_H2O_4733
 ------------
 Symbolic Z-matrix:
 Charge =  0 Multiplicity = 1

                         Standard orientation:
 ---------------------------------------------------------------------
 Center     Atomic      Atomic             Coordinates (Angstroms)
 Number     Number       Type             X           Y           Z
 ---------------------------------------------------------------------
      1          8           0        0.028562   -3.308237    0.000000
      2          1           0       -0.771432   -3.878776    0.000000
      3          1           0        0.827710   -3.879962    0.000000
      4          8           0        0.028562    3.323498    0.000000
      5          1           0        0.436109    4.217598    0.000000
      6          1           0       -0.949382    3.419053    0.000000
 ---------------------------------------------------------------------

 SCF Done:  E(RHF) =  -152.107006323     A.U. after   10 cycles
 E2 =    -0.5259110243D+00 EUMP2 =    -0.15263291734729D+03
 CCSD(T)
 CCSD(T)= -0.15266014623D+03

 The electronic state is 1-A'.
 Alpha  occ. eigenvalues --  -20.55305 -20.55225  -1.32601  -1.32521  -0.70008
 Alpha  occ. eigenvalues --   -0.69926  -0.56030  -0.55950  -0.49710  -0.49630
 Alpha virt. eigenvalues --    0.14338   0.14420   0.20393   0.20476   0.54559
 Alpha virt. eigenvalues --    0.54645   0.57441   0.57521   0.68189   0.68273
 Alpha virt. eigenvalues --    0.79169   0.79248   0.80609   0.80696   0.82535

 Mulliken charges:
               1
     1  O   -0.506498
     2  H    0.252686
     3  H    0.253813
     4  O   -0.506433
     5  H    0.252377
     6  H    0.254056
 Sum of Mulliken charges =  -0.00000

 Dipole moment (field-independent basis, Debye):
    X=             -0.9821    Y=             -0.2660    Z=              0.0000  Tot=              1.0174
 Quadrupole moment (field-independent basis, Debye-Ang):
   XX=             -8.3153   YY=             13.2132   ZZ=            -14.7110
   XY=             -2.4952   XZ=              0.0000   YZ=              0.0000

 Normal termination of Gaussian 16 at Sat Aug 27 09:01:58 2022.
