 Gaussian 16, Revision A.03,
 Gaussian 16:  ES64L-G16RevA.03 25-Dec-2016

 ------------------
 #p CCSD(T)/cc-pVTZ
 ------------------

 ------------
 H2O_H2O_4342
 ------------
 Symbolic Z-matrix:
 Charge =  0 Multiplicity = 1

                         Standard orientation:
 ---------------------------------------------------------------------
 Center     Atomic      Atomic             Coordinates (Angstroms)
 Number     Number       Type             X           Y           Z
 ---------------------------------------------------------------------
      1          8           0        0.051268   -3.069272    0.000000
      2          1           0       -0.749114   -3.639267    0.000000
      3          1           0        0.850027   -3.641541    0.000000
      4          8           0        0.051268    3.132832    0.000000
      5          1           0       -0.105943    4.102775    0.000000
      6          1           0       -0.815265    2.669556    0.000000
 ---------------------------------------------------------------------

 SCF Done:  E(RHF) =  -152.107306124     A.U. after   10 cycles
 E2 =    -0.5258908837D+00 EUMP2 =    -0.15263319700810D+03
 CCSD(T)
 CCSD(T)= -0.15266041910D+03

 The electronic state is 1-A'.
 Alpha  occ. eigenvalues --  -20.55524 -20.55140  -1.32822  -1.32437  -0.70228
 Alpha  occ. eigenvalues --   -0.69837  -0.56265  -0.55879  -0.49933  -0.49549
 Alpha virt. eigenvalues --    0.14131   0.14537   0.20211   0.20624   0.54333
 Alpha virt. eigenvalues --    0.54739   0.57244   0.57628   0.67906   0.68352
 Alpha virt. eigenvalues --    0.78947   0.79325   0.80379   0.80787   0.82314

 Mulliken charges:
               1
     1  O   -0.508292
     2  H    0.252946
     3  H    0.255347
     4  O   -0.508038
     5  H    0.251888
     6  H    0.256149
 Sum of Mulliken charges =  -0.00000

 Dipole moment (field-independent basis, Debye):
    X=             -1.7616    Y=             -1.1112    Z=              0.0000  Tot=              2.0827
 Quadrupole moment (field-independent basis, Debye-Ang):
   XX=             -9.4577   YY=              7.4401   ZZ=            -14.7118
   XY=             -4.8841   XZ=              0.0000   YZ=              0.0000

 Normal termination of Gaussian 16 at Sat Aug 27 06:46:33 2022.
