 Gaussian 16, Revision A.03,
 Gaussian 16:  ES64L-G16RevA.03 25-Dec-2016

 ------------------
 #p CCSD(T)/cc-pVTZ
 ------------------

 ------------
 H2O_H2O_3746
 ------------
 Symbolic Z-matrix:
 Charge =  0 Multiplicity = 1

                         Standard orientation:
 ---------------------------------------------------------------------
 Center     Atomic      Atomic             Coordinates (Angstroms)
 Number     Number       Type             X           Y           Z
 ---------------------------------------------------------------------
      1          8           0        0.056095   -2.734862    0.000000
      2          1           0       -0.744465   -3.304607    0.000000
      3          1           0        0.854675   -3.307380    0.000000
      4          8           0        0.056095    2.826610    0.000000
      5          1           0       -0.346520    3.722939    0.000000
      6          1           0       -0.661217    2.155068    0.000000
 ---------------------------------------------------------------------

 SCF Done:  E(RHF) =  -152.107594297     A.U. after   10 cycles
 E2 =    -0.5258847722D+00 EUMP2 =    -0.15263347906871D+03
 CCSD(T)
 CCSD(T)= -0.15266069333D+03

 The electronic state is 1-A'.
 Alpha  occ. eigenvalues --  -20.55691 -20.54991  -1.32990  -1.32290  -0.70396
 Alpha  occ. eigenvalues --   -0.69684  -0.56446  -0.55739  -0.50103  -0.49405
 Alpha virt. eigenvalues --    0.13860   0.14790   0.20069   0.20874   0.54149
 Alpha virt. eigenvalues --    0.54868   0.57097   0.57769   0.67436   0.68773
 Alpha virt. eigenvalues --    0.78779   0.79462   0.80189   0.80694   0.82519

 Mulliken charges:
               1
     1  O   -0.509964
     2  H    0.253259
     3  H    0.256746
     4  O   -0.509458
     5  H    0.251228
     6  H    0.258188
 Sum of Mulliken charges =  -0.00000

 Dipole moment (field-independent basis, Debye):
    X=             -1.9239    Y=             -1.6135    Z=              0.0000  Tot=              2.5110
 Quadrupole moment (field-independent basis, Debye-Ang):
   XX=             -9.7833   YY=              3.1302   ZZ=            -14.7127
   XY=             -5.2290   XZ=              0.0000   YZ=              0.0000

 Normal termination of Gaussian 16 at Sat Aug 27 02:57:14 2022.
