 Gaussian 16, Revision A.03,
 Gaussian 16:  ES64L-G16RevA.03 25-Dec-2016

 ------------------
 #p CCSD(T)/cc-pVTZ
 ------------------

 ------------
 H2O_H2O_1036
 ------------
 Symbolic Z-matrix:
 Charge =  0 Multiplicity = 1

                         Standard orientation:
 ---------------------------------------------------------------------
 Center     Atomic      Atomic             Coordinates (Angstroms)
 Number     Number       Type             X           Y           Z
 ---------------------------------------------------------------------
      1          8           0        0.037691   -1.333432    0.000000
      2          1           0       -0.763251   -1.902639    0.000000
      3          1           0        0.835886   -1.906486    0.000000
      4          8           0        0.037691    1.361597    0.000000
      5          1           0        0.264568    2.317648    0.000000
      6          1           0       -0.940265    1.266156    0.000000
 ---------------------------------------------------------------------

 SCF Done:  E(RHF) =  -152.099944911     A.U. after   11 cycles
 E2 =    -0.5282809710D+00 EUMP2 =    -0.15262822588186D+03
 CCSD(T)
 CCSD(T)= -0.15265547731D+03

 The electronic state is 1-A'.
 Alpha  occ. eigenvalues --  -20.54206 -20.53369  -1.31680  -1.30601  -0.69082
 Alpha  occ. eigenvalues --   -0.68104  -0.56199  -0.52325  -0.48871  -0.47560
 Alpha virt. eigenvalues --    0.14117   0.17112   0.20326   0.22739   0.52998
 Alpha virt. eigenvalues --    0.58127   0.58384   0.59904   0.69511   0.76455
 Alpha virt. eigenvalues --    0.76784   0.77306   0.82446   0.83263   0.85761

 Mulliken charges:
               1
     1  O   -0.473264
     2  H    0.230071
     3  H    0.244238
     4  O   -0.463960
     5  H    0.220956
     6  H    0.241958
 Sum of Mulliken charges =  -0.00000

 Dipole moment (field-independent basis, Debye):
    X=             -1.2015    Y=             -0.5435    Z=              0.0000  Tot=              1.3187
 Quadrupole moment (field-independent basis, Debye-Ang):
   XX=             -8.7951   YY=             -2.2622   ZZ=            -14.7191
   XY=             -0.9603   XZ=              0.0000   YZ=              0.0000

 Normal termination of Gaussian 16 at Sat Aug 27 01:34:44 2022.
