 Gaussian 16, Revision A.03,
 Gaussian 16:  ES64L-G16RevA.03 25-Dec-2016

 ------------------
 #p CCSD(T)/cc-pVTZ
 ------------------

 ---------
 H2O_H2O_1
 ---------
 Symbolic Z-matrix:
 Charge =  0 Multiplicity = 1

                         Standard orientation:
 ---------------------------------------------------------------------
 Center     Atomic      Atomic             Coordinates (Angstroms)
 Number     Number       Type             X           Y           Z
 ---------------------------------------------------------------------
      1          8           0        0.003735   -0.803468    0.000000
      2          1           0       -0.796064   -1.374280    0.000000
      3          1           0        0.803078   -1.374920    0.000000
      4          8           0        0.003735    0.803709    0.000000
      5          1           0        0.764490    1.425608    0.000000
      6          1           0       -0.831270    1.321658    0.000000
 ---------------------------------------------------------------------

 SCF Done:  E(RHF) =  -151.903993060     A.U. after   11 cycles
 E2 =    -0.5541141232D+00 EUMP2 =    -0.15245810718349D+03
 CCSD(T)
 CCSD(T)= -0.15248190594D+03

 The electronic state is 1-A'.
 Alpha  occ. eigenvalues --  -20.51574 -20.51567  -1.37570  -1.26922  -0.71428
 Alpha  occ. eigenvalues --   -0.69434  -0.65442  -0.53513  -0.43125  -0.31297
 Alpha virt. eigenvalues --    0.14343   0.19579   0.20121   0.22994   0.50389
 Alpha virt. eigenvalues --    0.58592   0.59168   0.66069   0.68042   0.79103
 Alpha virt. eigenvalues --    0.81101   0.83835   0.84018   0.85637   0.87950

 Mulliken charges:
               1
     1  O   -0.323117
     2  H    0.158983
     3  H    0.164214
     4  O   -0.322305
     5  H    0.150531
     6  H    0.171693
 Sum of Mulliken charges =  -0.00000

 Dipole moment (field-independent basis, Debye):
    X=             -0.1097    Y=             -0.0074    Z=              0.0000  Tot=              0.1100
 Quadrupole moment (field-independent basis, Debye-Ang):
   XX=             -8.6534   YY=             -9.5729   ZZ=            -14.7932
   XY=             -0.0695   XZ=              0.0000   YZ=              0.0000

 9872\MP4DQ=-152.459846\MP4SDQ=-152.464418\CCSD=-152.4628652\CCSD(T)=-1
 Normal termination of Gaussian 16 at Fri Aug 26 11:47:03 2022.
