 Gaussian 16, Revision A.03,
 Gaussian 16:  ES64L-G16RevA.03 25-Dec-2016

 ------------------
 #p CCSD(T)/cc-pVTZ
 ------------------

 ------------
 H2O_H2O_1587
 ------------
 Symbolic Z-matrix:
 Charge =  0 Multiplicity = 1

                         Standard orientation:
 ---------------------------------------------------------------------
 Center     Atomic      Atomic             Coordinates (Angstroms)
 Number     Number       Type             X           Y           Z
 ---------------------------------------------------------------------
      1          8           0        0.040421   -1.623162    0.000000
      2          1           0       -0.760360   -2.192598    0.000000
      3          1           0        0.838779   -2.195988    0.000000
      4          8           0        0.040421    1.656447    0.000000
      5          1           0        0.204006    2.625336    0.000000
      6          1           0       -0.929154    1.496971    0.000000
 ---------------------------------------------------------------------

 SCF Done:  E(RHF) =  -152.104880112     A.U. after   10 cycles
 E2 =    -0.5268884934D+00 EUMP2 =    -0.15263176860574D+03
 CCSD(T)
 CCSD(T)= -0.15265899001D+03

 The electronic state is 1-A'.
 Alpha  occ. eigenvalues --  -20.54781 -20.54022  -1.32066  -1.31280  -0.69491
 Alpha  occ. eigenvalues --   -0.68677  -0.55660  -0.54273  -0.49181  -0.48370
 Alpha virt. eigenvalues --    0.13884   0.16463   0.20303   0.22167   0.53369
 Alpha virt. eigenvalues --    0.56079   0.57834   0.58661   0.64433   0.76900
 Alpha virt. eigenvalues --    0.78157   0.78636   0.79157   0.81695   0.85429

 Mulliken charges:
               1
     1  O   -0.485738
     2  H    0.238670
     3  H    0.248886
     4  O   -0.486435
     5  H    0.235298
     6  H    0.249321
 Sum of Mulliken charges =  -0.00000

 Dipole moment (field-independent basis, Debye):
    X=             -1.3366    Y=             -0.6254    Z=              0.0000  Tot=              1.4756
 Quadrupole moment (field-independent basis, Debye-Ang):
   XX=             -8.8716   YY=             -0.0658   ZZ=            -14.7128
   XY=             -1.4756   XZ=              0.0000   YZ=              0.0000

 Normal termination of Gaussian 16 at Sat Aug 27 05:37:43 2022.
