 Gaussian 16, Revision A.03,
 Gaussian 16:  ES64L-G16RevA.03 25-Dec-2016

 ------------------
 #p CCSD(T)/cc-pVTZ
 ------------------

 ------------
 H2O_H2O_3680
 ------------
 Symbolic Z-matrix:
 Charge =  0 Multiplicity = 1

                         Standard orientation:
 ---------------------------------------------------------------------
 Center     Atomic      Atomic             Coordinates (Angstroms)
 Number     Number       Type             X           Y           Z
 ---------------------------------------------------------------------
      1          8           0        0.018360   -2.754817    0.000000
      2          1           0       -0.781538   -3.325490    0.000000
      3          1           0        0.817604   -3.326407    0.000000
      4          8           0        0.018360    2.760857    0.000000
      5          1           0        0.592371    3.558365    0.000000
      6          1           0       -0.922199    3.045205    0.000000
 ---------------------------------------------------------------------

 SCF Done:  E(RHF) =  -152.106550517     A.U. after   10 cycles
 E2 =    -0.5259684901D+00 EUMP2 =    -0.15263251900749D+03
 CCSD(T)
 CCSD(T)= -0.15265975654D+03

 The electronic state is 1-A'.
 Alpha  occ. eigenvalues --  -20.55088 -20.55042  -1.32383  -1.32336  -0.69791
 Alpha  occ. eigenvalues --   -0.69743  -0.55790  -0.55743  -0.49488  -0.49442
 Alpha virt. eigenvalues --    0.14450   0.14630   0.20529   0.20615   0.54764
 Alpha virt. eigenvalues --    0.54846   0.57619   0.57676   0.68177   0.68808
 Alpha virt. eigenvalues --    0.79390   0.79435   0.80834   0.80894   0.82761

 Mulliken charges:
               1
     1  O   -0.503821
     2  H    0.251299
     3  H    0.252522
     4  O   -0.503752
     5  H    0.251039
     6  H    0.252713
 Sum of Mulliken charges =  -0.00000

 Dipole moment (field-independent basis, Debye):
    X=             -0.6291    Y=             -0.1060    Z=              0.0000  Tot=              0.6380
 Quadrupole moment (field-independent basis, Debye-Ang):
   XX=             -8.0200   YY=              9.6388   ZZ=            -14.7103
   XY=             -1.2018   XZ=              0.0000   YZ=              0.0000

 Normal termination of Gaussian 16 at Sat Aug 27 02:25:48 2022.
