 Gaussian 16, Revision A.03,
 Gaussian 16:  ES64L-G16RevA.03 25-Dec-2016

 ------------------
 #p CCSD(T)/cc-pVTZ
 ------------------

 ------------
 H2O_H2O_1307
 ------------
 Symbolic Z-matrix:
 Charge =  0 Multiplicity = 1

                         Standard orientation:
 ---------------------------------------------------------------------
 Center     Atomic      Atomic             Coordinates (Angstroms)
 Number     Number       Type             X           Y           Z
 ---------------------------------------------------------------------
      1          8           0        0.025269   -1.488627    0.000000
      2          1           0       -0.775132   -2.058595    0.000000
      3          1           0        0.824008   -2.060922    0.000000
      4          8           0        0.025269    1.500334    0.000000
      5          1           0        0.491036    2.365531    0.000000
      6          1           0       -0.944218    1.660337    0.000000
 ---------------------------------------------------------------------

 SCF Done:  E(RHF) =  -152.101946782     A.U. after   11 cycles
 E2 =    -0.5274211614D+00 EUMP2 =    -0.15262936794310D+03
 CCSD(T)
 CCSD(T)= -0.15265664511D+03

 The electronic state is 1-A'.
 Alpha  occ. eigenvalues --  -20.54083 -20.53793  -1.31437  -1.31042  -0.68855
 Alpha  occ. eigenvalues --   -0.68483  -0.55696  -0.53125  -0.48614  -0.48030
 Alpha virt. eigenvalues --    0.14243   0.16732   0.20487   0.22043   0.52261
 Alpha virt. eigenvalues --    0.58278   0.58502   0.59293   0.66526   0.76642
 Alpha virt. eigenvalues --    0.77586   0.78584   0.79187   0.82697   0.85940

 Mulliken charges:
               1
     1  O   -0.475517
     2  H    0.233720
     3  H    0.242097
     4  O   -0.471936
     5  H    0.231294
     6  H    0.240342
 Sum of Mulliken charges =  -0.00000

 Dipole moment (field-independent basis, Debye):
    X=             -0.8247    Y=             -0.2216    Z=              0.0000  Tot=              0.8540
 Quadrupole moment (field-independent basis, Debye-Ang):
   XX=             -8.2894   YY=             -0.6922   ZZ=            -14.7119
   XY=             -0.6346   XZ=              0.0000   YZ=              0.0000

 Normal termination of Gaussian 16 at Sat Aug 27 03:47:26 2022.
