 Gaussian 16, Revision A.03,
 Gaussian 16:  ES64L-G16RevA.03 25-Dec-2016

 ------------------
 #p CCSD(T)/cc-pVTZ
 ------------------

 ------------
 H2O_H2O_2701
 ------------
 Symbolic Z-matrix:
 Charge =  0 Multiplicity = 1

                         Standard orientation:
 ---------------------------------------------------------------------
 Center     Atomic      Atomic             Coordinates (Angstroms)
 Number     Number       Type             X           Y           Z
 ---------------------------------------------------------------------
      1          8           0        0.003735   -2.239425    0.000000
      2          1           0       -0.795918   -2.810442    0.000000
      3          1           0        0.803224   -2.810672    0.000000
      4          8           0        0.003735    2.239668    0.000000
      5          1           0        0.764331    2.861763    0.000000
      6          1           0       -0.831403    2.757403    0.000000
 ---------------------------------------------------------------------

 SCF Done:  E(RHF) =  -152.105696142     A.U. after   10 cycles
 E2 =    -0.5261144435D+00 EUMP2 =    -0.15263181058530D+03
 CCSD(T)
 CCSD(T)= -0.15265906025D+03

 The electronic state is 1-A'.
 Alpha  occ. eigenvalues --  -20.54759 -20.54756  -1.32049  -1.32045  -0.69462
 Alpha  occ. eigenvalues --   -0.69457  -0.55467  -0.55346  -0.49154  -0.49140
 Alpha virt. eigenvalues --    0.14342   0.15192   0.20631   0.20891   0.54776
 Alpha virt. eigenvalues --    0.55457   0.57818   0.57953   0.65417   0.72115
 Alpha virt. eigenvalues --    0.79621   0.79829   0.81184   0.81198   0.82183

 Mulliken charges:
               1
     1  O   -0.498643
     2  H    0.249102
     3  H    0.249542
     4  O   -0.498635
     5  H    0.249047
     6  H    0.249587
 Sum of Mulliken charges =  -0.00000

 Dipole moment (field-independent basis, Debye):
    X=             -0.1271    Y=             -0.0043    Z=              0.0000  Tot=              0.1271
 Quadrupole moment (field-independent basis, Debye-Ang):
   XX=             -7.8321   YY=              5.8080   ZZ=            -14.7095
   XY=             -0.1724   XZ=              0.0000   YZ=              0.0000

 Normal termination of Gaussian 16 at Fri Aug 26 15:14:09 2022.
