 Gaussian 16, Revision A.03,
 Gaussian 16:  ES64L-G16RevA.03 25-Dec-2016

 ------------------
 #p CCSD(T)/cc-pVTZ
 ------------------

 ------------
 H2O_H2O_4674
 ------------
 Symbolic Z-matrix:
 Charge =  0 Multiplicity = 1

                         Standard orientation:
 ---------------------------------------------------------------------
 Center     Atomic      Atomic             Coordinates (Angstroms)
 Number     Number       Type             X           Y           Z
 ---------------------------------------------------------------------
      1          8           0        0.057199   -3.214698    0.000000
      2          1           0       -0.743229   -3.784628    0.000000
      3          1           0        0.855911   -3.787031    0.000000
      4          8           0        0.057199    3.328752    0.000000
      5          1           0       -0.512731    4.129182    0.000000
      6          1           0       -0.515134    2.530041    0.000000
 ---------------------------------------------------------------------

 SCF Done:  E(RHF) =  -152.107685506     A.U. after   10 cycles
 E2 =    -0.5258518525D+00 EUMP2 =    -0.15263353735887D+03
 CCSD(T)
 CCSD(T)= -0.15266075179D+03

 The electronic state is 1-A'.
 Alpha  occ. eigenvalues --  -20.55775 -20.55169  -1.33075  -1.32470  -0.70481
 Alpha  occ. eigenvalues --   -0.69869  -0.56535  -0.55924  -0.50189  -0.49585
 Alpha virt. eigenvalues --    0.13915   0.14534   0.20012   0.20658   0.54077
 Alpha virt. eigenvalues --    0.54700   0.57020   0.57624   0.67616   0.68274
 Alpha virt. eigenvalues --    0.78691   0.79286   0.80116   0.80746   0.82054

 Mulliken charges:
               1
     1  O   -0.510532
     2  H    0.254220
     3  H    0.256313
     4  O   -0.510182
     5  H    0.252727
     6  H    0.257453
 Sum of Mulliken charges =  -0.00000

 Dipole moment (field-independent basis, Debye):
    X=             -1.9670    Y=             -1.9910    Z=              0.0000  Tot=              2.7988
 Quadrupole moment (field-independent basis, Debye-Ang):
   XX=             -9.8646   YY=              2.9692   ZZ=            -14.7127
   XY=             -6.6922   XZ=              0.0000   YZ=              0.0000

 Normal termination of Gaussian 16 at Sat Aug 27 08:41:09 2022.
