 Gaussian 16, Revision A.03,
 Gaussian 16:  ES64L-G16RevA.03 25-Dec-2016

 ------------------
 #p CCSD(T)/cc-pVTZ
 ------------------

 ------------
 H2O_H2O_2874
 ------------
 Symbolic Z-matrix:
 Charge =  0 Multiplicity = 1

                         Standard orientation:
 ---------------------------------------------------------------------
 Center     Atomic      Atomic             Coordinates (Angstroms)
 Number     Number       Type             X           Y           Z
 ---------------------------------------------------------------------
      1          8           0        0.057234   -2.257430    0.000000
      2          1           0       -0.743548   -2.826862    0.000000
      3          1           0        0.855590   -2.830259    0.000000
      4          8           0        0.057234    2.371413    0.000000
      5          1           0       -0.512198    3.172196    0.000000
      6          1           0       -0.515595    1.573057    0.000000
 ---------------------------------------------------------------------

 SCF Done:  E(RHF) =  -152.108350457     A.U. after   10 cycles
 E2 =    -0.5259558533D+00 EUMP2 =    -0.15263430631041D+03
 CCSD(T)
 CCSD(T)= -0.15266148882D+03

 The electronic state is 1-A'.
 Alpha  occ. eigenvalues --  -20.55993 -20.54647  -1.33281  -1.31949  -0.70686
 Alpha  occ. eigenvalues --   -0.69331  -0.56761  -0.55414  -0.50399  -0.49072
 Alpha virt. eigenvalues --    0.13120   0.15489   0.19861   0.21753   0.53869
 Alpha virt. eigenvalues --    0.54861   0.56891   0.58110   0.66665   0.70645
 Alpha virt. eigenvalues --    0.78497   0.79433   0.79779   0.80222   0.82785

 Mulliken charges:
               1
     1  O   -0.510929
     2  H    0.253286
     3  H    0.258831
     4  O   -0.512415
     5  H    0.249563
     6  H    0.261664
 Sum of Mulliken charges =   0.00000

 Dipole moment (field-independent basis, Debye):
    X=             -1.9517    Y=             -2.0446    Z=              0.0000  Tot=              2.8266
 Quadrupole moment (field-independent basis, Debye-Ang):
   XX=             -9.8620   YY=             -0.8469   ZZ=            -14.7155
   XY=             -4.8280   XZ=              0.0000   YZ=              0.0000

 Normal termination of Gaussian 16 at Fri Aug 26 16:58:58 2022.
