 Gaussian 16, Revision A.03,
 Gaussian 16:  ES64L-G16RevA.03 25-Dec-2016

 ------------------
 #p CCSD(T)/cc-pVTZ
 ------------------

 -----------
 H2O_H2O_993
 -----------
 Symbolic Z-matrix:
 Charge =  0 Multiplicity = 1

                         Standard orientation:
 ---------------------------------------------------------------------
 Center     Atomic      Atomic             Coordinates (Angstroms)
 Number     Number       Type             X           Y           Z
 ---------------------------------------------------------------------
      1          8           0        0.052887   -1.284037    0.000000
      2          1           0       -0.748646   -1.852412    0.000000
      3          1           0        0.850486   -1.857919    0.000000
      4          8           0        0.052887    1.354187    0.000000
      5          1           0       -0.165489    2.312215    0.000000
      6          1           0       -0.782539    0.836917    0.000000
 ---------------------------------------------------------------------

 SCF Done:  E(RHF) =  -152.102593282     A.U. after   10 cycles
 E2 =    -0.5287038438D+00 EUMP2 =    -0.15263129712555D+03
 CCSD(T)
 CCSD(T)= -0.15265842801D+03

 The electronic state is 1-A'.
 Alpha  occ. eigenvalues --  -20.55472 -20.52939  -1.32994  -1.30210  -0.70400
 Alpha  occ. eigenvalues --   -0.67998  -0.56199  -0.53254  -0.50105  -0.47268
 Alpha virt. eigenvalues --    0.13530   0.17509   0.19868   0.24174   0.52759
 Alpha virt. eigenvalues --    0.57150   0.58693   0.59058   0.70730   0.74943
 Alpha virt. eigenvalues --    0.76324   0.80358   0.82409   0.82789   0.84713

 Mulliken charges:
               1
     1  O   -0.475346
     2  H    0.233851
     3  H    0.251902
     4  O   -0.485662
     5  H    0.221302
     6  H    0.253953
 Sum of Mulliken charges =  -0.00000

 Dipole moment (field-independent basis, Debye):
    X=             -1.6765    Y=             -1.3966    Z=              0.0000  Tot=              2.1820
 Quadrupole moment (field-independent basis, Debye-Ang):
   XX=             -9.6021   YY=             -3.5130   ZZ=            -14.7243
   XY=             -1.9929   XZ=              0.0000   YZ=              0.0000

 Normal termination of Gaussian 16 at Sat Aug 27 01:14:07 2022.
