 Gaussian 16, Revision A.03,
 Gaussian 16:  ES64L-G16RevA.03 25-Dec-2016

 ------------------
 #p CCSD(T)/cc-pVTZ
 ------------------

 -----------
 H2O_H2O_521
 -----------
 Symbolic Z-matrix:
 Charge =  0 Multiplicity = 1

                         Standard orientation:
 ---------------------------------------------------------------------
 Center     Atomic      Atomic             Coordinates (Angstroms)
 Number     Number       Type             X           Y           Z
 ---------------------------------------------------------------------
      1          8           0        0.056223   -1.019853    0.000000
      2          1           0       -0.745924   -1.587361    0.000000
      3          1           0        0.853202   -1.594598    0.000000
      4          8           0        0.056223    1.111287    0.000000
      5          1           0       -0.343889    2.008737    0.000000
      6          1           0       -0.662961    0.441750    0.000000
 ---------------------------------------------------------------------

 SCF Done:  E(RHF) =  -152.072189034     A.U. after   11 cycles
 E2 =    -0.5346676452D+00 EUMP2 =    -0.15260685667884D+03
 CCSD(T)
 CCSD(T)= -0.15263345312D+03

 The electronic state is 1-A'.
 Alpha  occ. eigenvalues --  -20.56053 -20.50749  -1.35279  -1.28304  -0.72729
 Alpha  occ. eigenvalues --   -0.69481  -0.53727  -0.51895  -0.51525  -0.45267
 Alpha virt. eigenvalues --    0.13173   0.18716   0.19371   0.26066   0.50430
 Alpha virt. eigenvalues --    0.55677   0.61530   0.64341   0.72072   0.74452
 Alpha virt. eigenvalues --    0.78361   0.81757   0.83762   0.84942   0.87502

 Mulliken charges:
               1
     1  O   -0.413721
     2  H    0.210797
     3  H    0.239895
     4  O   -0.488179
     5  H    0.193463
     6  H    0.257744
 Sum of Mulliken charges =  -0.00000

 Dipole moment (field-independent basis, Debye):
    X=             -1.6664    Y=             -2.0380    Z=              0.0000  Tot=              2.6325
 Quadrupole moment (field-independent basis, Debye-Ang):
   XX=             -9.8033   YY=             -6.1307   ZZ=            -14.6820
   XY=             -2.0110   XZ=              0.0000   YZ=              0.0000

 Normal termination of Gaussian 16 at Fri Aug 26 17:17:42 2022.
