 Gaussian 16, Revision A.03,
 Gaussian 16:  ES64L-G16RevA.03 25-Dec-2016

 ------------------
 #p CCSD(T)/cc-pVTZ
 ------------------

 ------------
 H2O_H2O_3564
 ------------
 Symbolic Z-matrix:
 Charge =  0 Multiplicity = 1

                         Standard orientation:
 ---------------------------------------------------------------------
 Center     Atomic      Atomic             Coordinates (Angstroms)
 Number     Number       Type             X           Y           Z
 ---------------------------------------------------------------------
      1          8           0        0.045343   -2.667418    0.000000
      2          1           0       -0.755055   -3.237390    0.000000
      3          1           0        0.844085   -3.239709    0.000000
      4          8           0        0.045343    2.711976    0.000000
      5          1           0        0.080406    3.693953    0.000000
      6          1           0       -0.894929    2.426681    0.000000
 ---------------------------------------------------------------------

 SCF Done:  E(RHF) =  -152.106972852     A.U. after   10 cycles
 E2 =    -0.5259405364D+00 EUMP2 =    -0.15263291338875D+03
 CCSD(T)
 CCSD(T)= -0.15266014119D+03

 The electronic state is 1-A'.
 Alpha  occ. eigenvalues --  -20.55347 -20.54986  -1.32644  -1.32280  -0.70051
 Alpha  occ. eigenvalues --   -0.69679  -0.56071  -0.55707  -0.49752  -0.49390
 Alpha virt. eigenvalues --    0.14174   0.14751   0.20318   0.20762   0.54491
 Alpha virt. eigenvalues --    0.54905   0.57393   0.57753   0.67782   0.68937
 Alpha virt. eigenvalues --    0.79127   0.79482   0.80555   0.80924   0.82588

 Mulliken charges:
               1
     1  O   -0.506337
     2  H    0.251554
     3  H    0.254796
     4  O   -0.505975
     5  H    0.250390
     6  H    0.255571
 Sum of Mulliken charges =  -0.00000

 Dipole moment (field-independent basis, Debye):
    X=             -1.5533    Y=             -0.7838    Z=              0.0000  Tot=              1.7399
 Quadrupole moment (field-independent basis, Debye-Ang):
   XX=             -9.0980   YY=              6.5110   ZZ=            -14.7113
   XY=             -3.4135   XZ=              0.0000   YZ=              0.0000

 Normal termination of Gaussian 16 at Sat Aug 27 01:32:33 2022.
