 Gaussian 16, Revision A.03,
 Gaussian 16:  ES64L-G16RevA.03 25-Dec-2016

 ------------------
 #p CCSD(T)/cc-pVTZ
 ------------------

 ------------
 H2O_H2O_2490
 ------------
 Symbolic Z-matrix:
 Charge =  0 Multiplicity = 1

                         Standard orientation:
 ---------------------------------------------------------------------
 Center     Atomic      Atomic             Coordinates (Angstroms)
 Number     Number       Type             X           Y           Z
 ---------------------------------------------------------------------
      1          8           0        0.047537   -2.092422    0.000000
      2          1           0       -0.753135   -2.662009    0.000000
      3          1           0        0.846004   -2.665096    0.000000
      4          8           0        0.047537    2.143004    0.000000
      5          1           0        0.018772    3.125184    0.000000
      6          1           0       -0.872229    1.797264    0.000000
 ---------------------------------------------------------------------

 SCF Done:  E(RHF) =  -152.106751008     A.U. after   10 cycles
 E2 =    -0.5261192114D+00 EUMP2 =    -0.15263287021973D+03
 CCSD(T)
 CCSD(T)= -0.15266008652D+03

 The electronic state is 1-A'.
 Alpha  occ. eigenvalues --  -20.55288 -20.54587  -1.32575  -1.31872  -0.69986
 Alpha  occ. eigenvalues --   -0.69259  -0.55982  -0.55277  -0.49682  -0.48984
 Alpha virt. eigenvalues --    0.13647   0.15588   0.20228   0.21453   0.53960
 Alpha virt. eigenvalues --    0.54975   0.57464   0.58104   0.65443   0.73625
 Alpha virt. eigenvalues --    0.79141   0.79935   0.80109   0.81836   0.83389

 Mulliken charges:
               1
     1  O   -0.503008
     2  H    0.248585
     3  H    0.255044
     4  O   -0.503469
     5  H    0.246435
     6  H    0.256412
 Sum of Mulliken charges =  -0.00000

 Dipole moment (field-independent basis, Debye):
    X=             -1.6123    Y=             -0.9120    Z=              0.0000  Tot=              1.8524
 Quadrupole moment (field-independent basis, Debye-Ang):
   XX=             -9.2301   YY=              2.4605   ZZ=            -14.7122
   XY=             -2.7509   XZ=              0.0000   YZ=              0.0000

 Normal termination of Gaussian 16 at Sat Aug 27 10:50:45 2022.
