 Gaussian 16, Revision A.03,
 Gaussian 16:  ES64L-G16RevA.03 25-Dec-2016

 ------------------
 #p CCSD(T)/cc-pVTZ
 ------------------

 ------------
 H2O_H2O_3414
 ------------
 Symbolic Z-matrix:
 Charge =  0 Multiplicity = 1

                         Standard orientation:
 ---------------------------------------------------------------------
 Center     Atomic      Atomic             Coordinates (Angstroms)
 Number     Number       Type             X           Y           Z
 ---------------------------------------------------------------------
      1          8           0        0.045344   -2.587645    0.000000
      2          1           0       -0.755079   -3.157581    0.000000
      3          1           0        0.844061   -3.159971    0.000000
      4          8           0        0.045344    2.632199    0.000000
      5          1           0        0.080451    3.614174    0.000000
      6          1           0       -0.894941    2.346945    0.000000
 ---------------------------------------------------------------------

 SCF Done:  E(RHF) =  -152.106928967     A.U. after   10 cycles
 E2 =    -0.5259518986D+00 EUMP2 =    -0.15263288086572D+03
 CCSD(T)
 CCSD(T)= -0.15266010899D+03

 The electronic state is 1-A'.
 Alpha  occ. eigenvalues --  -20.55331 -20.54945  -1.32627  -1.32239  -0.70035
 Alpha  occ. eigenvalues --   -0.69637  -0.56051  -0.55664  -0.49735  -0.49349
 Alpha virt. eigenvalues --    0.14136   0.14828   0.20318   0.20814   0.54491
 Alpha virt. eigenvalues --    0.54944   0.57406   0.57784   0.67622   0.69213
 Alpha virt. eigenvalues --    0.79145   0.79523   0.80558   0.80961   0.82658

 Mulliken charges:
               1
     1  O   -0.506065
     2  H    0.251279
     3  H    0.254811
     4  O   -0.505665
     5  H    0.250018
     6  H    0.255622
 Sum of Mulliken charges =  -0.00000

 Dipole moment (field-independent basis, Debye):
    X=             -1.5521    Y=             -0.7852    Z=              0.0000  Tot=              1.7394
 Quadrupole moment (field-independent basis, Debye-Ang):
   XX=             -9.0984   YY=              5.9938   ZZ=            -14.7113
   XY=             -3.2909   XZ=              0.0000   YZ=              0.0000

 Normal termination of Gaussian 16 at Fri Aug 26 22:08:06 2022.
