 Gaussian 16, Revision A.03,
 Gaussian 16:  ES64L-G16RevA.03 25-Dec-2016

 ------------------
 #p CCSD(T)/cc-pVTZ
 ------------------

 ------------
 H2O_H2O_1793
 ------------
 Symbolic Z-matrix:
 Charge =  0 Multiplicity = 1

                         Standard orientation:
 ---------------------------------------------------------------------
 Center     Atomic      Atomic             Coordinates (Angstroms)
 Number     Number       Type             X           Y           Z
 ---------------------------------------------------------------------
      1          8           0        0.052857   -1.709460    0.000000
      2          1           0       -0.748198   -2.278508    0.000000
      3          1           0        0.850939   -2.282672    0.000000
      4          8           0        0.052857    1.779699    0.000000
      5          1           0       -0.166323    2.737543    0.000000
      6          1           0       -0.782134    1.261726    0.000000
 ---------------------------------------------------------------------

 SCF Done:  E(RHF) =  -152.107276937     A.U. after   10 cycles
 E2 =    -0.5265820462D+00 EUMP2 =    -0.15263385898285D+03
 CCSD(T)
 CCSD(T)= -0.15266102901D+03

 The electronic state is 1-A'.
 Alpha  occ. eigenvalues --  -20.55582 -20.54043  -1.32856  -1.31318  -0.70272
 Alpha  occ. eigenvalues --   -0.68691  -0.56266  -0.54717  -0.49970  -0.48439
 Alpha virt. eigenvalues --    0.13389   0.16438   0.19990   0.22919   0.54170
 Alpha virt. eigenvalues --    0.54439   0.57209   0.58497   0.65061   0.76072
 Alpha virt. eigenvalues --    0.78100   0.78524   0.78644   0.80996   0.84803

 Mulliken charges:
               1
     1  O   -0.495015
     2  H    0.244045
     3  H    0.254996
     4  O   -0.502559
     5  H    0.240229
     6  H    0.258305
 Sum of Mulliken charges =  -0.00000

 Dipole moment (field-independent basis, Debye):
    X=             -1.7615    Y=             -1.3171    Z=              0.0000  Tot=              2.1994
 Quadrupole moment (field-independent basis, Debye-Ang):
   XX=             -9.5690   YY=             -0.8105   ZZ=            -14.7166
   XY=             -2.7259   XZ=              0.0000   YZ=              0.0000

 Normal termination of Gaussian 16 at Sat Aug 27 06:49:10 2022.
