 Gaussian 16, Revision A.03,
 Gaussian 16:  ES64L-G16RevA.03 25-Dec-2016

 ------------------
 #p CCSD(T)/cc-pVTZ
 ------------------

 ------------
 H2O_H2O_1487
 ------------
 Symbolic Z-matrix:
 Charge =  0 Multiplicity = 1

                         Standard orientation:
 ---------------------------------------------------------------------
 Center     Atomic      Atomic             Coordinates (Angstroms)
 Number     Number       Type             X           Y           Z
 ---------------------------------------------------------------------
      1          8           0        0.040422   -1.569982    0.000000
      2          1           0       -0.760399   -2.139360    0.000000
      3          1           0        0.838739   -2.142864    0.000000
      4          8           0        0.040422    1.603261    0.000000
      5          1           0        0.204076    2.572139    0.000000
      6          1           0       -0.929164    1.443854    0.000000
 ---------------------------------------------------------------------

 SCF Done:  E(RHF) =  -152.104487452     A.U. after   10 cycles
 E2 =    -0.5270518707D+00 EUMP2 =    -0.15263153932259D+03
 CCSD(T)
 CCSD(T)= -0.15265876438D+03

 The electronic state is 1-A'.
 Alpha  occ. eigenvalues --  -20.54725 -20.53924  -1.32020  -1.31179  -0.69446
 Alpha  occ. eigenvalues --   -0.68582  -0.55696  -0.54056  -0.49140  -0.48261
 Alpha virt. eigenvalues --    0.13917   0.16577   0.20296   0.22292   0.53421
 Alpha virt. eigenvalues --    0.56516   0.57866   0.58689   0.65078   0.76667
 Alpha virt. eigenvalues --    0.77854   0.78362   0.79238   0.82004   0.85463

 Mulliken charges:
               1
     1  O   -0.483542
     2  H    0.237281
     3  H    0.248224
     4  O   -0.483433
     5  H    0.233210
     6  H    0.248260
 Sum of Mulliken charges =  -0.00000

 Dipole moment (field-independent basis, Debye):
    X=             -1.3300    Y=             -0.6285    Z=              0.0000  Tot=              1.4710
 Quadrupole moment (field-independent basis, Debye-Ang):
   XX=             -8.8782   YY=             -0.4659   ZZ=            -14.7134
   XY=             -1.4051   XZ=              0.0000   YZ=              0.0000

 Normal termination of Gaussian 16 at Sat Aug 27 05:03:35 2022.
