 Gaussian 16, Revision A.03,
 Gaussian 16:  ES64L-G16RevA.03 25-Dec-2016

 ------------------
 #p CCSD(T)/cc-pVTZ
 ------------------

 ------------
 H2O_H2O_3880
 ------------
 Symbolic Z-matrix:
 Charge =  0 Multiplicity = 1

                         Standard orientation:
 ---------------------------------------------------------------------
 Center     Atomic      Atomic             Coordinates (Angstroms)
 Number     Number       Type             X           Y           Z
 ---------------------------------------------------------------------
      1          8           0        0.018360   -2.861184    0.000000
      2          1           0       -0.781526   -3.431874    0.000000
      3          1           0        0.817616   -3.432757    0.000000
      4          8           0        0.018360    2.867225    0.000000
      5          1           0        0.592354    3.664745    0.000000
      6          1           0       -0.922205    3.151553    0.000000
 ---------------------------------------------------------------------

 SCF Done:  E(RHF) =  -152.106648846     A.U. after   10 cycles
 E2 =    -0.5259547078D+00 EUMP2 =    -0.15263260355400D+03
 CCSD(T)
 CCSD(T)= -0.15265983930D+03

 The electronic state is 1-A'.
 Alpha  occ. eigenvalues --  -20.55128 -20.55086  -1.32423  -1.32380  -0.69831
 Alpha  occ. eigenvalues --   -0.69787  -0.55835  -0.55792  -0.49529  -0.49486
 Alpha virt. eigenvalues --    0.14446   0.14567   0.20511   0.20577   0.54733
 Alpha virt. eigenvalues --    0.54793   0.57589   0.57637   0.68262   0.68612
 Alpha virt. eigenvalues --    0.79349   0.79391   0.80795   0.80844   0.82728

 Mulliken charges:
               1
     1  O   -0.504396
     2  H    0.251648
     3  H    0.252748
     4  O   -0.504339
     5  H    0.251408
     6  H    0.252930
 Sum of Mulliken charges =  -0.00000

 Dipole moment (field-independent basis, Debye):
    X=             -0.6297    Y=             -0.1058    Z=              0.0000  Tot=              0.6385
 Quadrupole moment (field-independent basis, Debye-Ang):
   XX=             -8.0184   YY=             10.4719   ZZ=            -14.7105
   XY=             -1.2681   XZ=              0.0000   YZ=              0.0000

 Normal termination of Gaussian 16 at Sat Aug 27 04:00:03 2022.
