 Gaussian 16, Revision A.03,
 Gaussian 16:  ES64L-G16RevA.03 25-Dec-2016

 ------------------
 #p CCSD(T)/cc-pVTZ
 ------------------

 ------------
 H2O_H2O_2662
 ------------
 Symbolic Z-matrix:
 Charge =  0 Multiplicity = 1

                         Standard orientation:
 ---------------------------------------------------------------------
 Center     Atomic      Atomic             Coordinates (Angstroms)
 Number     Number       Type             X           Y           Z
 ---------------------------------------------------------------------
      1          8           0        0.040411   -2.194864    0.000000
      2          1           0       -0.760056   -2.764738    0.000000
      3          1           0        0.839084   -2.767252    0.000000
      4          8           0        0.040411    2.228193    0.000000
      5          1           0        0.203466    3.197171    0.000000
      6          1           0       -0.929075    2.068186    0.000000
 ---------------------------------------------------------------------

 SCF Done:  E(RHF) =  -152.106386319     A.U. after   10 cycles
 E2 =    -0.5260834051D+00 EUMP2 =    -0.15263246972442D+03
 CCSD(T)
 CCSD(T)= -0.15265970128D+03

 The electronic state is 1-A'.
 Alpha  occ. eigenvalues --  -20.55107 -20.54697  -1.32398  -1.31984  -0.69809
 Alpha  occ. eigenvalues --   -0.69381  -0.55794  -0.55374  -0.49502  -0.49091
 Alpha virt. eigenvalues --    0.13943   0.15348   0.20371   0.21130   0.54297
 Alpha virt. eigenvalues --    0.55186   0.57593   0.57974   0.65729   0.72403
 Alpha virt. eigenvalues --    0.79342   0.79810   0.80600   0.81474   0.82780

 Mulliken charges:
               1
     1  O   -0.502291
     2  H    0.248768
     3  H    0.253719
     4  O   -0.501922
     5  H    0.247319
     6  H    0.254407
 Sum of Mulliken charges =   0.00000

 Dipole moment (field-independent basis, Debye):
    X=             -1.3741    Y=             -0.5960    Z=              0.0000  Tot=              1.4978
 Quadrupole moment (field-independent basis, Debye-Ang):
   XX=             -8.8390   YY=              4.0090   ZZ=            -14.7110
   XY=             -2.2470   XZ=              0.0000   YZ=              0.0000

 Normal termination of Gaussian 16 at Fri Aug 26 14:50:16 2022.
