 Gaussian 16, Revision A.03,
 Gaussian 16:  ES64L-G16RevA.03 25-Dec-2016

 ------------------
 #p CCSD(T)/cc-pVTZ
 ------------------

 ------------
 H2O_H2O_4827
 ------------
 Symbolic Z-matrix:
 Charge =  0 Multiplicity = 1

                         Standard orientation:
 ---------------------------------------------------------------------
 Center     Atomic      Atomic             Coordinates (Angstroms)
 Number     Number       Type             X           Y           Z
 ---------------------------------------------------------------------
      1          8           0        0.007455   -3.369180    0.000000
      2          1           0       -0.792225   -3.940160    0.000000
      3          1           0        0.806917   -3.940465    0.000000
      4          8           0        0.007455    3.370155    0.000000
      5          1           0        0.725766    4.040629    0.000000
      6          1           0       -0.859736    3.832200    0.000000
 ---------------------------------------------------------------------

 SCF Done:  E(RHF) =  -152.106937969     A.U. after   10 cycles
 E2 =    -0.5259156939D+00 EUMP2 =    -0.15263285366287D+03
 CCSD(T)
 CCSD(T)= -0.15266008408D+03

 The electronic state is 1-A'.
 Alpha  occ. eigenvalues --  -20.55248 -20.55243  -1.32545  -1.32540  -0.69951
 Alpha  occ. eigenvalues --   -0.69946  -0.55970  -0.55965  -0.49652  -0.49648
 Alpha virt. eigenvalues --    0.14388   0.14398   0.20440   0.20447   0.54617
 Alpha virt. eigenvalues --    0.54622   0.57493   0.57498   0.68251   0.68266
 Alpha virt. eigenvalues --    0.79227   0.79232   0.80668   0.80674   0.82594

 Mulliken charges:
               1
     1  O   -0.506089
     2  H    0.252904
     3  H    0.253185
     4  O   -0.506085
     5  H    0.252842
     6  H    0.253243
 Sum of Mulliken charges =   0.00000

 Dipole moment (field-independent basis, Debye):
    X=             -0.2564    Y=             -0.0170    Z=              0.0000  Tot=              0.2569
 Quadrupole moment (field-independent basis, Debye-Ang):
   XX=             -7.8360   YY=             14.8402   ZZ=            -14.7108
   XY=             -0.6313   XZ=              0.0000   YZ=              0.0000

 Normal termination of Gaussian 16 at Sat Aug 27 09:33:28 2022.
