 Gaussian 16, Revision A.03,
 Gaussian 16:  ES64L-G16RevA.03 25-Dec-2016

 ------------------
 #p CCSD(T)/cc-pVTZ
 ------------------

 ------------
 H2O_H2O_2629
 ------------
 Symbolic Z-matrix:
 Charge =  0 Multiplicity = 1

                         Standard orientation:
 ---------------------------------------------------------------------
 Center     Atomic      Atomic             Coordinates (Angstroms)
 Number     Number       Type             X           Y           Z
 ---------------------------------------------------------------------
      1          8           0        0.014783   -2.197565    0.000000
      2          1           0       -0.785118   -2.768234    0.000000
      3          1           0        0.814024   -2.769159    0.000000
      4          8           0        0.014783    2.201440    0.000000
      5          1           0        0.639729    2.959694    0.000000
      6          1           0       -0.905164    2.546698    0.000000
 ---------------------------------------------------------------------

 SCF Done:  E(RHF) =  -152.105691774     A.U. after   10 cycles
 E2 =    -0.5261306170D+00 EUMP2 =    -0.15263182239108D+03
 CCSD(T)
 CCSD(T)= -0.15265907053D+03

 The electronic state is 1-A'.
 Alpha  occ. eigenvalues --  -20.54770 -20.54723  -1.32059  -1.32011  -0.69472
 Alpha  occ. eigenvalues --   -0.69422  -0.55468  -0.55318  -0.49160  -0.49110
 Alpha virt. eigenvalues --    0.14281   0.15265   0.20607   0.20939   0.54682
 Alpha virt. eigenvalues --    0.55514   0.57813   0.57979   0.65019   0.72526
 Alpha virt. eigenvalues --    0.79603   0.79869   0.81168   0.81181   0.82152

 Mulliken charges:
               1
     1  O   -0.498525
     2  H    0.248355
     3  H    0.250186
     4  O   -0.498402
     5  H    0.248060
     6  H    0.250326
 Sum of Mulliken charges =  -0.00000

 Dipole moment (field-independent basis, Debye):
    X=             -0.5025    Y=             -0.0692    Z=              0.0000  Tot=              0.5072
 Quadrupole moment (field-independent basis, Debye-Ang):
   XX=             -7.9609   YY=              5.3275   ZZ=            -14.7096
   XY=             -0.6794   XZ=              0.0000   YZ=              0.0000

 Normal termination of Gaussian 16 at Fri Aug 26 14:30:34 2022.
