 Gaussian 16, Revision A.03,
 Gaussian 16:  ES64L-G16RevA.03 25-Dec-2016

 ------------------
 #p CCSD(T)/cc-pVTZ
 ------------------

 ----------
 H2O_H2O_90
 ----------
 Symbolic Z-matrix:
 Charge =  0 Multiplicity = 1

                         Standard orientation:
 ---------------------------------------------------------------------
 Center     Atomic      Atomic             Coordinates (Angstroms)
 Number     Number       Type             X           Y           Z
 ---------------------------------------------------------------------
      1          8           0        0.047611   -0.816160    0.000000
      2          1           0       -0.754726   -1.383400    0.000000
      3          1           0        0.844397   -1.391170    0.000000
      4          8           0        0.047611    0.866463    0.000000
      5          1           0        0.021722    1.848724    0.000000
      6          1           0       -0.873164    0.523418    0.000000
 ---------------------------------------------------------------------

 SCF Done:  E(RHF) =  -151.955876968     A.U. after   12 cycles
 E2 =    -0.5471639387D+00 EUMP2 =    -0.15250304090676D+03
 CCSD(T)
 CCSD(T)= -0.15252836929D+03

 The electronic state is 1-A'.
 Alpha  occ. eigenvalues --  -20.53261 -20.51076  -1.37870  -1.26752  -0.74488
 Alpha  occ. eigenvalues --   -0.70249  -0.57435  -0.53330  -0.43573  -0.39588
 Alpha virt. eigenvalues --    0.13834   0.19027   0.19699   0.24128   0.52232
 Alpha virt. eigenvalues --    0.56510   0.59096   0.65857   0.73296   0.77072
 Alpha virt. eigenvalues --    0.81157   0.81483   0.82791   0.83958   0.88982

 Mulliken charges:
               1
     1  O   -0.343215
     2  H    0.158342
     3  H    0.198652
     4  O   -0.361361
     5  H    0.110326
     6  H    0.237256
 Sum of Mulliken charges =  -0.00000

 Dipole moment (field-independent basis, Debye):
    X=             -1.2604    Y=             -1.1500    Z=              0.0000  Tot=              1.7062
 Quadrupole moment (field-independent basis, Debye-Ang):
   XX=             -9.4518   YY=             -8.4297   ZZ=            -14.6344
   XY=             -0.7890   XZ=              0.0000   YZ=              0.0000

 Normal termination of Gaussian 16 at Fri Aug 26 12:39:41 2022.
