 Gaussian 16, Revision A.03,
 Gaussian 16:  ES64L-G16RevA.03 25-Dec-2016

 ------------------
 #p CCSD(T)/cc-pVTZ
 ------------------

 ------------
 H2O_H2O_1063
 ------------
 Symbolic Z-matrix:
 Charge =  0 Multiplicity = 1

                         Standard orientation:
 ---------------------------------------------------------------------
 Center     Atomic      Atomic             Coordinates (Angstroms)
 Number     Number       Type             X           Y           Z
 ---------------------------------------------------------------------
      1          8           0        0.042993   -1.341018    0.000000
      2          1           0       -0.758127   -1.909976    0.000000
      3          1           0        0.841009   -1.914321    0.000000
      4          8           0        0.042993    1.379697    0.000000
      5          1           0        0.143443    2.357150    0.000000
      6          1           0       -0.914208    1.157720    0.000000
 ---------------------------------------------------------------------

 SCF Done:  E(RHF) =  -152.101276851     A.U. after   11 cycles
 E2 =    -0.5281911379D+00 EUMP2 =    -0.15262946798875D+03
 CCSD(T)
 CCSD(T)= -0.15265669507D+03

 The electronic state is 1-A'.
 Alpha  occ. eigenvalues --  -20.54540 -20.53360  -1.31981  -1.30597  -0.69393
 Alpha  occ. eigenvalues --   -0.68107  -0.56132  -0.52763  -0.49143  -0.47602
 Alpha virt. eigenvalues --    0.13971   0.17123   0.20214   0.22986   0.53460
 Alpha virt. eigenvalues --    0.57885   0.58201   0.59129   0.69457   0.76267
 Alpha virt. eigenvalues --    0.76674   0.76927   0.82200   0.83069   0.85510

 Mulliken charges:
               1
     1  O   -0.475190
     2  H    0.231340
     3  H    0.246775
     4  O   -0.469469
     5  H    0.221448
     6  H    0.245096
 Sum of Mulliken charges =  -0.00000

 Dipole moment (field-independent basis, Debye):
    X=             -1.3727    Y=             -0.7490    Z=              0.0000  Tot=              1.5638
 Quadrupole moment (field-independent basis, Debye-Ang):
   XX=             -9.0458   YY=             -2.3673   ZZ=            -14.7199
   XY=             -1.2526   XZ=              0.0000   YZ=              0.0000

 Normal termination of Gaussian 16 at Sat Aug 27 01:46:57 2022.
