 Gaussian 16, Revision A.03,
 Gaussian 16:  ES64L-G16RevA.03 25-Dec-2016

 ------------------
 #p CCSD(T)/cc-pVTZ
 ------------------

 ------------
 H2O_H2O_1683
 ------------
 Symbolic Z-matrix:
 Charge =  0 Multiplicity = 1

                         Standard orientation:
 ---------------------------------------------------------------------
 Center     Atomic      Atomic             Coordinates (Angstroms)
 Number     Number       Type             X           Y           Z
 ---------------------------------------------------------------------
      1          8           0        0.028568   -1.686158    0.000000
      2          1           0       -0.771832   -2.256128    0.000000
      3          1           0        0.827309   -2.258450    0.000000
      4          8           0        0.028568    1.701378    0.000000
      5          1           0        0.436749    2.595187    0.000000
      6          1           0       -0.949309    1.797627    0.000000
 ---------------------------------------------------------------------

 SCF Done:  E(RHF) =  -152.104285107     A.U. after   10 cycles
 E2 =    -0.5267735964D+00 EUMP2 =    -0.15263105870305D+03
 CCSD(T)
 CCSD(T)= -0.15265830246D+03

 The electronic state is 1-A'.
 Alpha  occ. eigenvalues --  -20.54479 -20.54161  -1.31764  -1.31426  -0.69189
 Alpha  occ. eigenvalues --   -0.68838  -0.55453  -0.54262  -0.48883  -0.48500
 Alpha virt. eigenvalues --    0.14077   0.16280   0.20472   0.21711   0.52952
 Alpha virt. eigenvalues --    0.56735   0.58033   0.58541   0.63114   0.76775
 Alpha virt. eigenvalues --    0.78631   0.78810   0.79984   0.81486   0.84678

 Mulliken charges:
               1
     1  O   -0.484874
     2  H    0.239325
     3  H    0.246207
     4  O   -0.484707
     5  H    0.237873
     6  H    0.246177
 Sum of Mulliken charges =  -0.00000

 Dipole moment (field-independent basis, Debye):
    X=             -0.9498    Y=             -0.2839    Z=              0.0000  Tot=              0.9914
 Quadrupole moment (field-independent basis, Debye-Ang):
   XX=             -8.3656   YY=              0.8886   ZZ=            -14.7102
   XY=             -0.9332   XZ=              0.0000   YZ=              0.0000

 Normal termination of Gaussian 16 at Sat Aug 27 06:12:06 2022.
