 Gaussian 16, Revision A.03,
 Gaussian 16:  ES64L-G16RevA.03 25-Dec-2016

 ------------------
 #p CCSD(T)/cc-pVTZ
 ------------------

 ----------
 H2O_H2O_31
 ----------
 Symbolic Z-matrix:
 Charge =  0 Multiplicity = 1

                         Standard orientation:
 ---------------------------------------------------------------------
 Center     Atomic      Atomic             Coordinates (Angstroms)
 Number     Number       Type             X           Y           Z
 ---------------------------------------------------------------------
      1          8           0        0.021866   -0.812226    0.000000
      2          1           0       -0.779019   -1.381514    0.000000
      3          1           0        0.820119   -1.385199    0.000000
      4          8           0        0.021866    0.820820    0.000000
      5          1           0        0.543931    1.653259    0.000000
      6          1           0       -0.934890    1.044700    0.000000
 ---------------------------------------------------------------------

 SCF Done:  E(RHF) =  -151.926264857     A.U. after   12 cycles
 E2 =    -0.5510134782D+00 EUMP2 =    -0.15247727833514D+03
 CCSD(T)
 CCSD(T)= -0.15250170065D+03

 The electronic state is 1-A'.
 Alpha  occ. eigenvalues --  -20.51739 -20.51488  -1.37088  -1.26874  -0.71905
 Alpha  occ. eigenvalues --   -0.68996  -0.63922  -0.53088  -0.43200  -0.33437
 Alpha virt. eigenvalues --    0.14279   0.19418   0.19910   0.23271   0.52008
 Alpha virt. eigenvalues --    0.57088   0.58988   0.65802   0.69810   0.78767
 Alpha virt. eigenvalues --    0.80102   0.83449   0.83468   0.85296   0.88502

 Mulliken charges:
               1
     1  O   -0.346571
     2  H    0.163484
     3  H    0.184586
     4  O   -0.330644
     5  H    0.116731
     6  H    0.212415
 Sum of Mulliken charges =  -0.00000

 Dipole moment (field-independent basis, Debye):
    X=             -0.6186    Y=             -0.2382    Z=              0.0000  Tot=              0.6629
 Quadrupole moment (field-independent basis, Debye-Ang):
   XX=             -8.7194   YY=             -9.1355   ZZ=            -14.7480
   XY=             -0.3310   XZ=              0.0000   YZ=              0.0000

 890398\MP4DQ=-152.4800928\MP4SDQ=-152.4844694\CCSD=-152.48308\CCSD(T)=
 Normal termination of Gaussian 16 at Fri Aug 26 12:06:13 2022.
