 Gaussian 16, Revision A.03,
 Gaussian 16:  ES64L-G16RevA.03 25-Dec-2016

 ------------------
 #p CCSD(T)/cc-pVTZ
 ------------------

 ------------
 H2O_H2O_3485
 ------------
 Symbolic Z-matrix:
 Charge =  0 Multiplicity = 1

                         Standard orientation:
 ---------------------------------------------------------------------
 Center     Atomic      Atomic             Coordinates (Angstroms)
 Number     Number       Type             X           Y           Z
 ---------------------------------------------------------------------
      1          8           0        0.034782   -2.638953    0.000000
      2          1           0       -0.765434   -3.209182    0.000000
      3          1           0        0.833707   -3.210988    0.000000
      4          8           0        0.034782    2.662479    0.000000
      5          1           0        0.322503    3.602012    0.000000
      6          1           0       -0.947282    2.629949    0.000000
 ---------------------------------------------------------------------

 SCF Done:  E(RHF) =  -152.106665717     A.U. after   10 cycles
 E2 =    -0.5259675180D+00 EUMP2 =    -0.15263263323490D+03
 CCSD(T)
 CCSD(T)= -0.15265986771D+03

 The electronic state is 1-A'.
 Alpha  occ. eigenvalues --  -20.55177 -20.54983  -1.32472  -1.32276  -0.69881
 Alpha  occ. eigenvalues --   -0.69679  -0.55884  -0.55689  -0.49578  -0.49383
 Alpha virt. eigenvalues --    0.14323   0.14736   0.20444   0.20710   0.54661
 Alpha virt. eigenvalues --    0.54918   0.57538   0.57741   0.67886   0.69067
 Alpha virt. eigenvalues --    0.79299   0.79492   0.80736   0.80963   0.82705

 Mulliken charges:
               1
     1  O   -0.504522
     2  H    0.250966
     3  H    0.253561
     4  O   -0.504261
     5  H    0.250241
     6  H    0.254015
 Sum of Mulliken charges =  -0.00000

 Dipole moment (field-independent basis, Debye):
    X=             -1.1908    Y=             -0.4138    Z=              0.0000  Tot=              1.2606
 Quadrupole moment (field-independent basis, Debye-Ang):
   XX=             -8.5681   YY=              7.7031   ZZ=            -14.7107
   XY=             -2.3421   XZ=              0.0000   YZ=              0.0000

 Normal termination of Gaussian 16 at Fri Aug 26 22:43:40 2022.
