 Gaussian 16, Revision A.03,
 Gaussian 16:  ES64L-G16RevA.03 25-Dec-2016

 ------------------
 #p CCSD(T)/cc-pVTZ
 ------------------

 ------------
 H2O_H2O_1239
 ------------
 Symbolic Z-matrix:
 Charge =  0 Multiplicity = 1

                         Standard orientation:
 ---------------------------------------------------------------------
 Center     Atomic      Atomic             Coordinates (Angstroms)
 Number     Number       Type             X           Y           Z
 ---------------------------------------------------------------------
      1          8           0        0.045371   -1.430957    0.000000
      2          1           0       -0.755730   -1.999941    0.000000
      3          1           0        0.843406   -2.004233    0.000000
      4          8           0        0.045371    1.475403    0.000000
      5          1           0        0.081646    2.457336    0.000000
      6          1           0       -0.895253    1.191268    0.000000
 ---------------------------------------------------------------------

 SCF Done:  E(RHF) =  -152.103739246     A.U. after   10 cycles
 E2 =    -0.5276100812D+00 EUMP2 =    -0.15263134932768D+03
 CCSD(T)
 CCSD(T)= -0.15265856169D+03

 The electronic state is 1-A'.
 Alpha  occ. eigenvalues --  -20.54844 -20.53580  -1.32191  -1.30827  -0.69614
 Alpha  occ. eigenvalues --   -0.68270  -0.55954  -0.53559  -0.49323  -0.47890
 Alpha virt. eigenvalues --    0.13853   0.16932   0.20163   0.22917   0.53781
 Alpha virt. eigenvalues --    0.57473   0.57728   0.58397   0.67789   0.75930
 Alpha virt. eigenvalues --    0.76749   0.76930   0.80693   0.82624   0.85331

 Mulliken charges:
               1
     1  O   -0.479664
     2  H    0.234585
     3  H    0.248821
     4  O   -0.479198
     5  H    0.227173
     6  H    0.248282
 Sum of Mulliken charges =  -0.00000

 Dipole moment (field-independent basis, Debye):
    X=             -1.4690    Y=             -0.8546    Z=              0.0000  Tot=              1.6995
 Quadrupole moment (field-independent basis, Debye-Ang):
   XX=             -9.1534   YY=             -1.7883   ZZ=            -14.7179
   XY=             -1.5387   XZ=              0.0000   YZ=              0.0000

 Normal termination of Gaussian 16 at Sat Aug 27 03:15:51 2022.
