 Gaussian 16, Revision A.03,
 Gaussian 16:  ES64L-G16RevA.03 25-Dec-2016

 ------------------
 #p CCSD(T)/cc-pVTZ
 ------------------

 ------------
 H2O_H2O_3618
 ------------
 Symbolic Z-matrix:
 Charge =  0 Multiplicity = 1

                         Standard orientation:
 ---------------------------------------------------------------------
 Center     Atomic      Atomic             Coordinates (Angstroms)
 Number     Number       Type             X           Y           Z
 ---------------------------------------------------------------------
      1          8           0        0.052825   -2.680010    0.000000
      2          1           0       -0.747701   -3.249804    0.000000
      3          1           0        0.851439   -3.252479    0.000000
      4          8           0        0.052825    2.750347    0.000000
      5          1           0       -0.167248    3.707987    0.000000
      6          1           0       -0.781684    2.231598    0.000000
 ---------------------------------------------------------------------

 SCF Done:  E(RHF) =  -152.107323958     A.U. after   10 cycles
 E2 =    -0.5259115936D+00 EUMP2 =    -0.15263323555182D+03
 CCSD(T)
 CCSD(T)= -0.15266045546D+03

 The electronic state is 1-A'.
 Alpha  occ. eigenvalues --  -20.55541 -20.54977  -1.32839  -1.32273  -0.70246
 Alpha  occ. eigenvalues --   -0.69668  -0.56282  -0.55714  -0.49950  -0.49386
 Alpha virt. eigenvalues --    0.13981   0.14796   0.20174   0.20843   0.54294
 Alpha virt. eigenvalues --    0.54895   0.57226   0.57772   0.67565   0.68896
 Alpha virt. eigenvalues --    0.78931   0.79483   0.80343   0.80810   0.82554

 Mulliken charges:
               1
     1  O   -0.508384
     2  H    0.252397
     3  H    0.256020
     4  O   -0.507941
     5  H    0.250701
     6  H    0.257206
 Sum of Mulliken charges =  -0.00000

 Dipole moment (field-independent basis, Debye):
    X=             -1.8105    Y=             -1.2379    Z=              0.0000  Tot=              2.1932
 Quadrupole moment (field-independent basis, Debye-Ang):
   XX=             -9.5589   YY=              4.6550   ZZ=            -14.7121
   XY=             -4.4509   XZ=              0.0000   YZ=              0.0000

 Normal termination of Gaussian 16 at Sat Aug 27 01:56:11 2022.
