 Gaussian 16, Revision A.03,
 Gaussian 16:  ES64L-G16RevA.03 25-Dec-2016

 ------------------
 #p CCSD(T)/cc-pVTZ
 ------------------

 ------------
 H2O_H2O_3941
 ------------
 Symbolic Z-matrix:
 Charge =  0 Multiplicity = 1

                         Standard orientation:
 ---------------------------------------------------------------------
 Center     Atomic      Atomic             Coordinates (Angstroms)
 Number     Number       Type             X           Y           Z
 ---------------------------------------------------------------------
      1          8           0        0.049503   -2.860118    0.000000
      2          1           0       -0.750909   -3.430071    0.000000
      3          1           0        0.848232   -3.432428    0.000000
      4          8           0        0.049503    2.917085    0.000000
      5          1           0       -0.043884    3.895239    0.000000
      6          1           0       -0.845495    2.511521    0.000000
 ---------------------------------------------------------------------

 SCF Done:  E(RHF) =  -152.107198327     A.U. after   10 cycles
 E2 =    -0.5259088412D+00 EUMP2 =    -0.15263310716839D+03
 CCSD(T)
 CCSD(T)= -0.15266033098D+03

 The electronic state is 1-A'.
 Alpha  occ. eigenvalues --  -20.55464 -20.55066  -1.32762  -1.32361  -0.70169
 Alpha  occ. eigenvalues --   -0.69760  -0.56200  -0.55798  -0.49872  -0.49473
 Alpha virt. eigenvalues --    0.14145   0.14631   0.20248   0.20696   0.54388
 Alpha virt. eigenvalues --    0.54819   0.57294   0.57693   0.67886   0.68540
 Alpha virt. eigenvalues --    0.79008   0.79400   0.80441   0.80849   0.82415

 Mulliken charges:
               1
     1  O   -0.507667
     2  H    0.252403
     3  H    0.255269
     4  O   -0.507351
     5  H    0.251224
     6  H    0.256122
 Sum of Mulliken charges =  -0.00000

 Dipole moment (field-independent basis, Debye):
    X=             -1.6988    Y=             -0.9987    Z=              0.0000  Tot=              1.9706
 Quadrupole moment (field-independent basis, Debye-Ang):
   XX=             -9.3455   YY=              6.7752   ZZ=            -14.7117
   XY=             -4.2547   XZ=              0.0000   YZ=              0.0000

 Normal termination of Gaussian 16 at Sat Aug 27 04:27:32 2022.
