 Gaussian 16, Revision A.03,
 Gaussian 16:  ES64L-G16RevA.03 25-Dec-2016

 ------------------
 #p CCSD(T)/cc-pVTZ
 ------------------

 -----------
 H2O_H2O_741
 -----------
 Symbolic Z-matrix:
 Charge =  0 Multiplicity = 1

                         Standard orientation:
 ---------------------------------------------------------------------
 Center     Atomic      Atomic             Coordinates (Angstroms)
 Number     Number       Type             X           Y           Z
 ---------------------------------------------------------------------
      1          8           0        0.049564   -1.158351    0.000000
      2          1           0       -0.752051   -1.726610    0.000000
      3          1           0        0.847080   -1.732348    0.000000
      4          8           0        0.049564    1.215109    0.000000
      5          1           0       -0.041756    2.193458    0.000000
      6          1           0       -0.846291    0.811437    0.000000
 ---------------------------------------------------------------------

 SCF Done:  E(RHF) =  -152.093418286     A.U. after   11 cycles
 E2 =    -0.5303252782D+00 EUMP2 =    -0.15262374356396D+03
 CCSD(T)
 CCSD(T)= -0.15265086000D+03

 The electronic state is 1-A'.
 Alpha  occ. eigenvalues --  -20.54749 -20.52573  -1.32697  -1.29783  -0.70062
 Alpha  occ. eigenvalues --   -0.67979  -0.56349  -0.51589  -0.49817  -0.46723
 Alpha virt. eigenvalues --    0.13777   0.17748   0.19980   0.23962   0.52776
 Alpha virt. eigenvalues --    0.57399   0.58959   0.60807   0.71216   0.74953
 Alpha virt. eigenvalues --    0.78287   0.82048   0.83109   0.84967   0.87547

 Mulliken charges:
               1
     1  O   -0.462538
     2  H    0.225414
     3  H    0.244507
     4  O   -0.461986
     5  H    0.206263
     6  H    0.248341
 Sum of Mulliken charges =  -0.00000

 Dipole moment (field-independent basis, Debye):
    X=             -1.5248    Y=             -1.1365    Z=              0.0000  Tot=              1.9017
 Quadrupole moment (field-independent basis, Debye-Ang):
   XX=             -9.4320   YY=             -4.1942   ZZ=            -14.7235
   XY=             -1.4481   XZ=              0.0000   YZ=              0.0000

 Normal termination of Gaussian 16 at Fri Aug 26 19:35:31 2022.
