 Gaussian 16, Revision A.03,
 Gaussian 16:  ES64L-G16RevA.03 25-Dec-2016

 ------------------
 #p CCSD(T)/cc-pVTZ
 ------------------

 -----------
 H2O_H2O_460
 -----------
 Symbolic Z-matrix:
 Charge =  0 Multiplicity = 1

                         Standard orientation:
 ---------------------------------------------------------------------
 Center     Atomic      Atomic             Coordinates (Angstroms)
 Number     Number       Type             X           Y           Z
 ---------------------------------------------------------------------
      1          8           0        0.034802   -1.030211    0.000000
      2          1           0       -0.766406   -1.599044    0.000000
      3          1           0        0.832729   -1.603638    0.000000
      4          8           0        0.034802    1.053616    0.000000
      5          1           0        0.324161    1.992646    0.000000
      6          1           0       -0.947317    1.022798    0.000000
 ---------------------------------------------------------------------

 SCF Done:  E(RHF) =  -152.067176480     A.U. after   11 cycles
 E2 =    -0.5335613399D+00 EUMP2 =    -0.15260073781980D+03
 CCSD(T)
 CCSD(T)= -0.15262769621D+03

 The electronic state is 1-A'.
 Alpha  occ. eigenvalues --  -20.52915 -20.52128  -1.32203  -1.28979  -0.69229
 Alpha  occ. eigenvalues --   -0.67369  -0.58840  -0.49383  -0.46548  -0.45598
 Alpha virt. eigenvalues --    0.14355   0.17999   0.20278   0.23280   0.52814
 Alpha virt. eigenvalues --    0.57801   0.58460   0.63664   0.70818   0.76728
 Alpha virt. eigenvalues --    0.78736   0.81784   0.83686   0.85941   0.87925

 Mulliken charges:
               1
     1  O   -0.447599
     2  H    0.213482
     3  H    0.231956
     4  O   -0.418157
     5  H    0.184151
     6  H    0.236167
 Sum of Mulliken charges =  -0.00000

 Dipole moment (field-independent basis, Debye):
    X=             -1.0240    Y=             -0.4752    Z=              0.0000  Tot=              1.1289
 Quadrupole moment (field-independent basis, Debye-Ang):
   XX=             -8.7875   YY=             -5.2394   ZZ=            -14.7318
   XY=             -0.5303   XZ=              0.0000   YZ=              0.0000

 Normal termination of Gaussian 16 at Fri Aug 26 16:40:19 2022.
