 Gaussian 16, Revision A.03,
 Gaussian 16:  ES64L-G16RevA.03 25-Dec-2016

 ------------------
 #p CCSD(T)/cc-pVTZ
 ------------------

 ------------
 H2O_H2O_4434
 ------------
 Symbolic Z-matrix:
 Charge =  0 Multiplicity = 1

                         Standard orientation:
 ---------------------------------------------------------------------
 Center     Atomic      Atomic             Coordinates (Angstroms)
 Number     Number       Type             X           Y           Z
 ---------------------------------------------------------------------
      1          8           0        0.031739   -3.146550    0.000000
      2          1           0       -0.768326   -3.716990    0.000000
      3          1           0        0.830815   -3.718374    0.000000
      4          8           0        0.031739    3.165746    0.000000
      5          1           0        0.380049    4.084541    0.000000
      6          1           0       -0.950357    3.197256    0.000000
 ---------------------------------------------------------------------

 SCF Done:  E(RHF) =  -152.106960688     A.U. after   10 cycles
 E2 =    -0.5259185152D+00 EUMP2 =    -0.15263287920300D+03
 CCSD(T)
 CCSD(T)= -0.15266010884D+03

 The electronic state is 1-A'.
 Alpha  occ. eigenvalues --  -20.55290 -20.55179  -1.32586  -1.32475  -0.69993
 Alpha  occ. eigenvalues --   -0.69879  -0.56013  -0.55902  -0.49695  -0.49583
 Alpha virt. eigenvalues --    0.14346   0.14465   0.20401   0.20518   0.54574
 Alpha virt. eigenvalues --    0.54695   0.57453   0.57564   0.68201   0.68334
 Alpha virt. eigenvalues --    0.79184   0.79294   0.80625   0.80747   0.82552

 Mulliken charges:
               1
     1  O   -0.506234
     2  H    0.252396
     3  H    0.253838
     4  O   -0.506134
     5  H    0.251990
     6  H    0.254145
 Sum of Mulliken charges =  -0.00000

 Dipole moment (field-independent basis, Debye):
    X=             -1.0905    Y=             -0.3351    Z=              0.0000  Tot=              1.1408
 Quadrupole moment (field-independent basis, Debye-Ang):
   XX=             -8.4368   YY=             11.7020   ZZ=            -14.7110
   XY=             -2.6391   XZ=              0.0000   YZ=              0.0000

 495623\MP4DQ=-152.6420051\MP4SDQ=-152.645064\CCSD=-152.644476\CCSD(T)=
 Normal termination of Gaussian 16 at Sat Aug 27 07:17:55 2022.
