 Gaussian 16, Revision A.03,
 Gaussian 16:  ES64L-G16RevA.03 25-Dec-2016

 ------------------
 #p CCSD(T)/cc-pVTZ
 ------------------

 ------------
 H2O_H2O_1652
 ------------
 Symbolic Z-matrix:
 Charge =  0 Multiplicity = 1

                         Standard orientation:
 ---------------------------------------------------------------------
 Center     Atomic      Atomic             Coordinates (Angstroms)
 Number     Number       Type             X           Y           Z
 ---------------------------------------------------------------------
      1          8           0        0.007455   -1.680601    0.000000
      2          1           0       -0.792334   -2.251428    0.000000
      3          1           0        0.806808   -2.252038    0.000000
      4          8           0        0.007455    1.681573    0.000000
      5          1           0        0.725894    2.351910    0.000000
      6          1           0       -0.859648    2.143784    0.000000
 ---------------------------------------------------------------------

 SCF Done:  E(RHF) =  -152.103479744     A.U. after   10 cycles
 E2 =    -0.5268218265D+00 EUMP2 =    -0.15263030157000D+03
 CCSD(T)
 CCSD(T)= -0.15265756731D+03

 The electronic state is 1-A'.
 Alpha  occ. eigenvalues --  -20.54188 -20.54168  -1.31503  -1.31415  -0.68924
 Alpha  occ. eigenvalues --   -0.68850  -0.55358  -0.54000  -0.48656  -0.48440
 Alpha virt. eigenvalues --    0.14278   0.16269   0.20591   0.21543   0.52889
 Alpha virt. eigenvalues --    0.58071   0.58161   0.58507   0.61866   0.76041
 Alpha virt. eigenvalues --    0.78714   0.78916   0.79955   0.81642   0.84787

 Mulliken charges:
               1
     1  O   -0.481522
     2  H    0.239864
     3  H    0.241699
     4  O   -0.481477
     5  H    0.239767
     6  H    0.241670
 Sum of Mulliken charges =  -0.00000

 Dipole moment (field-independent basis, Debye):
    X=             -0.2479    Y=             -0.0181    Z=              0.0000  Tot=              0.2485
 Quadrupole moment (field-independent basis, Debye-Ang):
   XX=             -7.9013   YY=              1.1454   ZZ=            -14.7088
   XY=             -0.2076   XZ=              0.0000   YZ=              0.0000

 Normal termination of Gaussian 16 at Sat Aug 27 06:00:39 2022.
