 Gaussian 16, Revision A.03,
 Gaussian 16:  ES64L-G16RevA.03 25-Dec-2016

 ------------------
 #p CCSD(T)/cc-pVTZ
 ------------------

 ------------
 H2O_H2O_2620
 ------------
 Symbolic Z-matrix:
 Charge =  0 Multiplicity = 1

                         Standard orientation:
 ---------------------------------------------------------------------
 Center     Atomic      Atomic             Coordinates (Angstroms)
 Number     Number       Type             X           Y           Z
 ---------------------------------------------------------------------
      1          8           0        0.055259   -2.140524    0.000000
      2          1           0       -0.745553   -2.709915    0.000000
      3          1           0        0.853586   -2.713394    0.000000
      4          8           0        0.055259    2.224946    0.000000
      5          1           0       -0.287465    3.145840    0.000000
      6          1           0       -0.704713    1.602091    0.000000
 ---------------------------------------------------------------------

 SCF Done:  E(RHF) =  -152.107726708     A.U. after   10 cycles
 E2 =    -0.5260436549D+00 EUMP2 =    -0.15263377036340D+03
 CCSD(T)
 CCSD(T)= -0.15266096387D+03

 The electronic state is 1-A'.
 Alpha  occ. eigenvalues --  -20.55711 -20.54579  -1.32997  -1.31873  -0.70405
 Alpha  occ. eigenvalues --   -0.69252  -0.56445  -0.55319  -0.50111  -0.48992
 Alpha virt. eigenvalues --    0.13296   0.15610   0.20005   0.21768   0.54045
 Alpha virt. eigenvalues --    0.54715   0.57129   0.58179   0.66241   0.72427
 Alpha virt. eigenvalues --    0.78764   0.79649   0.79878   0.81354   0.82514

 Mulliken charges:
               1
     1  O   -0.507195
     2  H    0.250852
     3  H    0.257531
     4  O   -0.509086
     5  H    0.247786
     6  H    0.260112
 Sum of Mulliken charges =  -0.00000

 Dipole moment (field-independent basis, Debye):
    X=             -1.8781    Y=             -1.5227    Z=              0.0000  Tot=              2.4178
 Quadrupole moment (field-independent basis, Debye-Ang):
   XX=             -9.7228   YY=              0.7651   ZZ=            -14.7143
   XY=             -3.9057   XZ=              0.0000   YZ=              0.0000

 Normal termination of Gaussian 16 at Fri Aug 26 14:25:05 2022.
