 Gaussian 16, Revision A.03,
 Gaussian 16:  ES64L-G16RevA.03 25-Dec-2016

 ------------------
 #p CCSD(T)/cc-pVTZ
 ------------------

 ------------
 H2O_H2O_4462
 ------------
 Symbolic Z-matrix:
 Charge =  0 Multiplicity = 1

                         Standard orientation:
 ---------------------------------------------------------------------
 Center     Atomic      Atomic             Coordinates (Angstroms)
 Number     Number       Type             X           Y           Z
 ---------------------------------------------------------------------
      1          8           0        0.040403   -3.152149    0.000000
      2          1           0       -0.759794   -3.722404    0.000000
      3          1           0        0.839347   -3.724158    0.000000
      4          8           0        0.040403    3.185517    0.000000
      5          1           0        0.202998    4.154573    0.000000
      6          1           0       -0.929007    3.025049    0.000000
 ---------------------------------------------------------------------

 SCF Done:  E(RHF) =  -152.107077343     A.U. after   10 cycles
 E2 =    -0.5259084352D+00 EUMP2 =    -0.15263298577789D+03
 CCSD(T)
 CCSD(T)= -0.15266021292D+03

 The electronic state is 1-A'.
 Alpha  occ. eigenvalues --  -20.55368 -20.55177  -1.32666  -1.32473  -0.70072
 Alpha  occ. eigenvalues --   -0.69876  -0.56098  -0.55905  -0.49775  -0.49583
 Alpha virt. eigenvalues --    0.14277   0.14476   0.20337   0.20541   0.54493
 Alpha virt. eigenvalues --    0.54700   0.57383   0.57575   0.68108   0.68321
 Alpha virt. eigenvalues --    0.79105   0.79294   0.80542   0.80751   0.82469

 Mulliken charges:
               1
     1  O   -0.506928
     2  H    0.252559
     3  H    0.254369
     4  O   -0.506779
     5  H    0.251963
     6  H    0.254817
 Sum of Mulliken charges =   0.00000

 Dipole moment (field-independent basis, Debye):
    X=             -1.3885    Y=             -0.5826    Z=              0.0000  Tot=              1.5057
 Quadrupole moment (field-independent basis, Debye-Ang):
   XX=             -8.8302   YY=             10.5968   ZZ=            -14.7112
   XY=             -3.5578   XZ=              0.0000   YZ=              0.0000

 Normal termination of Gaussian 16 at Sat Aug 27 07:27:01 2022.
