 Gaussian 16, Revision A.03,
 Gaussian 16:  ES64L-G16RevA.03 25-Dec-2016

 ------------------
 #p CCSD(T)/cc-pVTZ
 ------------------

 -----------
 H2O_H2O_992
 -----------
 Symbolic Z-matrix:
 Charge =  0 Multiplicity = 1

                         Standard orientation:
 ---------------------------------------------------------------------
 Center     Atomic      Atomic             Coordinates (Angstroms)
 Number     Number       Type             X           Y           Z
 ---------------------------------------------------------------------
      1          8           0        0.051329   -1.287724    0.000000
      2          1           0       -0.750146   -1.856180    0.000000
      3          1           0        0.848987   -1.861525    0.000000
      4          8           0        0.051329    1.351086    0.000000
      5          1           0       -0.104020    2.321330    0.000000
      6          1           0       -0.816092    0.889474    0.000000
 ---------------------------------------------------------------------

 SCF Done:  E(RHF) =  -152.102055487     A.U. after   10 cycles
 E2 =    -0.5286398490D+00 EUMP2 =    -0.15263069533620D+03
 CCSD(T)
 CCSD(T)= -0.15265784994D+03

 The electronic state is 1-A'.
 Alpha  occ. eigenvalues --  -20.55243 -20.53026  -1.32756  -1.30281  -0.70164
 Alpha  occ. eigenvalues --   -0.68000  -0.56181  -0.53112  -0.49879  -0.47327
 Alpha virt. eigenvalues --    0.13632   0.17432   0.19943   0.23890   0.53044
 Alpha virt. eigenvalues --    0.57321   0.58726   0.58814   0.70616   0.75199
 Alpha virt. eigenvalues --    0.76535   0.79446   0.82532   0.82856   0.84899

 Mulliken charges:
               1
     1  O   -0.475170
     2  H    0.232910
     3  H    0.250895
     4  O   -0.480829
     5  H    0.220438
     6  H    0.251756
 Sum of Mulliken charges =  -0.00000

 Dipole moment (field-independent basis, Debye):
    X=             -1.6268    Y=             -1.2533    Z=              0.0000  Tot=              2.0536
 Quadrupole moment (field-independent basis, Debye-Ang):
   XX=             -9.5104   YY=             -3.3085   ZZ=            -14.7239
   XY=             -1.8250   XZ=              0.0000   YZ=              0.0000

 Normal termination of Gaussian 16 at Sat Aug 27 01:13:44 2022.
