 Gaussian 16, Revision A.03,
 Gaussian 16:  ES64L-G16RevA.03 25-Dec-2016

 ------------------
 #p CCSD(T)/cc-pVTZ
 ------------------

 ------------
 H2O_H2O_1310
 ------------
 Symbolic Z-matrix:
 Charge =  0 Multiplicity = 1

                         Standard orientation:
 ---------------------------------------------------------------------
 Center     Atomic      Atomic             Coordinates (Angstroms)
 Number     Number       Type             X           Y           Z
 ---------------------------------------------------------------------
      1          8           0        0.034792   -1.482240    0.000000
      2          1           0       -0.765922   -2.051769    0.000000
      3          1           0        0.833217   -2.054973    0.000000
      4          8           0        0.034792    1.505706    0.000000
      5          1           0        0.323334    2.444987    0.000000
      6          1           0       -0.947300    1.474035    0.000000
 ---------------------------------------------------------------------

 SCF Done:  E(RHF) =  -152.102795403     A.U. after   11 cycles
 E2 =    -0.5274175134D+00 EUMP2 =    -0.15263021291640D+03
 CCSD(T)
 CCSD(T)= -0.15265746562D+03

 The electronic state is 1-A'.
 Alpha  occ. eigenvalues --  -20.54367 -20.53765  -1.31701  -1.31017  -0.69125
 Alpha  occ. eigenvalues --   -0.68443  -0.55752  -0.53383  -0.48850  -0.48048
 Alpha virt. eigenvalues --    0.14093   0.16749   0.20382   0.22283   0.52928
 Alpha virt. eigenvalues --    0.57985   0.58101   0.58953   0.66553   0.76488
 Alpha virt. eigenvalues --    0.77422   0.77984   0.79928   0.82615   0.85719

 Mulliken charges:
               1
     1  O   -0.478199
     2  H    0.234155
     3  H    0.245127
     4  O   -0.474225
     5  H    0.229524
     6  H    0.243619
 Sum of Mulliken charges =  -0.00000

 Dipole moment (field-independent basis, Debye):
    X=             -1.1339    Y=             -0.4458    Z=              0.0000  Tot=              1.2184
 Quadrupole moment (field-independent basis, Debye-Ang):
   XX=             -8.6364   YY=             -0.9415   ZZ=            -14.7136
   XY=             -0.9988   XZ=              0.0000   YZ=              0.0000

 Normal termination of Gaussian 16 at Sat Aug 27 03:48:48 2022.
