 Gaussian 16, Revision A.03,
 Gaussian 16:  ES64L-G16RevA.03 25-Dec-2016

 ------------------
 #p CCSD(T)/cc-pVTZ
 ------------------

 ------------
 H2O_H2O_3514
 ------------
 Symbolic Z-matrix:
 Charge =  0 Multiplicity = 1

                         Standard orientation:
 ---------------------------------------------------------------------
 Center     Atomic      Atomic             Coordinates (Angstroms)
 Number     Number       Type             X           Y           Z
 ---------------------------------------------------------------------
      1          8           0        0.045344   -2.640827    0.000000
      2          1           0       -0.755063   -3.210788    0.000000
      3          1           0        0.844077   -3.213130    0.000000
      4          8           0        0.045344    2.685384    0.000000
      5          1           0        0.080421    3.667359    0.000000
      6          1           0       -0.894933    2.400101    0.000000
 ---------------------------------------------------------------------

 SCF Done:  E(RHF) =  -152.106958691     A.U. after   10 cycles
 E2 =    -0.5259440532D+00 EUMP2 =    -0.15263290274375D+03
 CCSD(T)
 CCSD(T)= -0.15266013066D+03

 The electronic state is 1-A'.
 Alpha  occ. eigenvalues --  -20.55342 -20.54973  -1.32638  -1.32267  -0.70046
 Alpha  occ. eigenvalues --   -0.69665  -0.56064  -0.55693  -0.49746  -0.49377
 Alpha virt. eigenvalues --    0.14163   0.14776   0.20318   0.20779   0.54492
 Alpha virt. eigenvalues --    0.54918   0.57397   0.57763   0.67734   0.69019
 Alpha virt. eigenvalues --    0.79133   0.79496   0.80557   0.80935   0.82610

 Mulliken charges:
               1
     1  O   -0.506250
     2  H    0.251466
     3  H    0.254801
     4  O   -0.505875
     5  H    0.250270
     6  H    0.255588
 Sum of Mulliken charges =   0.00000

 Dipole moment (field-independent basis, Debye):
    X=             -1.5529    Y=             -0.7842    Z=              0.0000  Tot=              1.7397
 Quadrupole moment (field-independent basis, Debye-Ang):
   XX=             -9.0981   YY=              6.3387   ZZ=            -14.7113
   XY=             -3.3726   XZ=              0.0000   YZ=              0.0000

 Normal termination of Gaussian 16 at Fri Aug 26 22:57:17 2022.
