 Gaussian 16, Revision A.03,
 Gaussian 16:  ES64L-G16RevA.03 25-Dec-2016

 ------------------
 #p CCSD(T)/cc-pVTZ
 ------------------

 ------------
 H2O_H2O_1140
 ------------
 Symbolic Z-matrix:
 Charge =  0 Multiplicity = 1

                         Standard orientation:
 ---------------------------------------------------------------------
 Center     Atomic      Atomic             Coordinates (Angstroms)
 Number     Number       Type             X           Y           Z
 ---------------------------------------------------------------------
      1          8           0        0.047562   -1.374492    0.000000
      2          1           0       -0.753674   -1.943286    0.000000
      3          1           0        0.845461   -1.947957    0.000000
      4          8           0        0.047562    1.424980    0.000000
      5          1           0        0.019769    2.407188    0.000000
      6          1           0       -0.872546    1.080150    0.000000
 ---------------------------------------------------------------------

 SCF Done:  E(RHF) =  -152.103243362     A.U. after   10 cycles
 E2 =    -0.5279332697D+00 EUMP2 =    -0.15263117663128D+03
 CCSD(T)
 CCSD(T)= -0.15265837622D+03

 The electronic state is 1-A'.
 Alpha  occ. eigenvalues --  -20.54946 -20.53399  -1.32336  -1.30644  -0.69756
 Alpha  occ. eigenvalues --   -0.68142  -0.56070  -0.53356  -0.49472  -0.47699
 Alpha virt. eigenvalues --    0.13794   0.17102   0.20092   0.23234   0.53700
 Alpha virt. eigenvalues --    0.57618   0.57922   0.58333   0.69114   0.75980
 Alpha virt. eigenvalues --    0.76198   0.77019   0.81420   0.82773   0.85222

 Mulliken charges:
               1
     1  O   -0.478223
     2  H    0.233735
     3  H    0.249602
     4  O   -0.478586
     5  H    0.224556
     6  H    0.248916
 Sum of Mulliken charges =   0.00000

 Dipole moment (field-independent basis, Debye):
    X=             -1.5279    Y=             -0.9796    Z=              0.0000  Tot=              1.8150
 Quadrupole moment (field-independent basis, Debye-Ang):
   XX=             -9.2825   YY=             -2.3540   ZZ=            -14.7203
   XY=             -1.6212   XZ=              0.0000   YZ=              0.0000

 Normal termination of Gaussian 16 at Sat Aug 27 02:26:14 2022.
