 Gaussian 16, Revision A.03,
 Gaussian 16:  ES64L-G16RevA.03 25-Dec-2016

 ------------------
 #p CCSD(T)/cc-pVTZ
 ------------------

 ------------
 H2O_H2O_3517
 ------------
 Symbolic Z-matrix:
 Charge =  0 Multiplicity = 1

                         Standard orientation:
 ---------------------------------------------------------------------
 Center     Atomic      Atomic             Coordinates (Angstroms)
 Number     Number       Type             X           Y           Z
 ---------------------------------------------------------------------
      1          8           0        0.051276   -2.630520    0.000000
      2          1           0       -0.749240   -3.200327    0.000000
      3          1           0        0.849900   -3.202976    0.000000
      4          8           0        0.051276    2.694056    0.000000
      5          1           0       -0.105709    3.664036    0.000000
      6          1           0       -0.815366    2.230982    0.000000
 ---------------------------------------------------------------------

 SCF Done:  E(RHF) =  -152.107222449     A.U. after   10 cycles
 E2 =    -0.5259246229D+00 EUMP2 =    -0.15263314707172D+03
 CCSD(T)
 CCSD(T)= -0.15266036883D+03

 The electronic state is 1-A'.
 Alpha  occ. eigenvalues --  -20.55487 -20.54956  -1.32784  -1.32251  -0.70191
 Alpha  occ. eigenvalues --   -0.69647  -0.56223  -0.55688  -0.49894  -0.49364
 Alpha virt. eigenvalues --    0.14004   0.14829   0.20208   0.20855   0.54341
 Alpha virt. eigenvalues --    0.54917   0.57273   0.57784   0.67545   0.69044
 Alpha virt. eigenvalues --    0.78987   0.79506   0.80392   0.80848   0.82607

 Mulliken charges:
               1
     1  O   -0.507776
     2  H    0.252036
     3  H    0.255779
     4  O   -0.507338
     5  H    0.250404
     6  H    0.256895
 Sum of Mulliken charges =  -0.00000

 Dipole moment (field-independent basis, Debye):
    X=             -1.7564    Y=             -1.1193    Z=              0.0000  Tot=              2.0827
 Quadrupole moment (field-independent basis, Debye-Ang):
   XX=             -9.4576   YY=              4.9017   ZZ=            -14.7119
   XY=             -4.1186   XZ=              0.0000   YZ=              0.0000

 Normal termination of Gaussian 16 at Sat Aug 27 01:10:55 2022.
