 Gaussian 16, Revision A.03,
 Gaussian 16:  ES64L-G16RevA.03 25-Dec-2016

 ------------------
 #p CCSD(T)/cc-pVTZ
 ------------------

 ------------
 H2O_H2O_3820
 ------------
 Symbolic Z-matrix:
 Charge =  0 Multiplicity = 1

                         Standard orientation:
 ---------------------------------------------------------------------
 Center     Atomic      Atomic             Coordinates (Angstroms)
 Number     Number       Type             X           Y           Z
 ---------------------------------------------------------------------
      1          8           0        0.055238   -2.778699    0.000000
      2          1           0       -0.745293   -3.348484    0.000000
      3          1           0        0.853847   -3.351176    0.000000
      4          8           0        0.055238    2.863175    0.000000
      5          1           0       -0.287939    3.783901    0.000000
      6          1           0       -0.704427    2.239946    0.000000
 ---------------------------------------------------------------------

 SCF Done:  E(RHF) =  -152.107500371     A.U. after   10 cycles
 E2 =    -0.5258887469D+00 EUMP2 =    -0.15263338911746D+03
 CCSD(T)
 CCSD(T)= -0.15266060584D+03

 The electronic state is 1-A'.
 Alpha  occ. eigenvalues --  -20.55641 -20.55016  -1.32940  -1.32314  -0.70346
 Alpha  occ. eigenvalues --   -0.69710  -0.56391  -0.55761  -0.50052  -0.49428
 Alpha virt. eigenvalues --    0.13937   0.14738   0.20109   0.20820   0.54203
 Alpha virt. eigenvalues --    0.54855   0.57140   0.57749   0.67563   0.68680
 Alpha virt. eigenvalues --    0.78830   0.79440   0.80249   0.80768   0.82434

 Mulliken charges:
               1
     1  O   -0.509439
     2  H    0.253065
     3  H    0.256398
     4  O   -0.508983
     5  H    0.251265
     6  H    0.257694
 Sum of Mulliken charges =  -0.00000

 Dipole moment (field-independent basis, Debye):
    X=             -1.8950    Y=             -1.4841    Z=              0.0000  Tot=              2.4070
 Quadrupole moment (field-independent basis, Debye-Ang):
   XX=             -9.7234   YY=              3.9911   ZZ=            -14.7124
   XY=             -5.0985   XZ=              0.0000   YZ=              0.0000

 Normal termination of Gaussian 16 at Sat Aug 27 03:34:16 2022.
