 Gaussian 16, Revision A.03,
 Gaussian 16:  ES64L-G16RevA.03 25-Dec-2016

 ------------------
 #p CCSD(T)/cc-pVTZ
 ------------------

 ------------
 H2O_H2O_1548
 ------------
 Symbolic Z-matrix:
 Charge =  0 Multiplicity = 1

                         Standard orientation:
 ---------------------------------------------------------------------
 Center     Atomic      Atomic             Coordinates (Angstroms)
 Number     Number       Type             X           Y           Z
 ---------------------------------------------------------------------
      1          8           0        0.057153   -1.556858    0.000000
      2          1           0       -0.744154   -2.125551    0.000000
      3          1           0        0.854980   -2.130424    0.000000
      4          8           0        0.057153    1.663266    0.000000
      5          1           0       -0.457914    2.500052    0.000000
      6          1           0       -0.567365    0.904659    0.000000
 ---------------------------------------------------------------------

 SCF Done:  E(RHF) =  -152.109544774     A.U. after   10 cycles
 E2 =    -0.5269844003D+00 EUMP2 =    -0.15263652917431D+03
 CCSD(T)
 CCSD(T)= -0.15266362507D+03

 The electronic state is 1-A'.
 Alpha  occ. eigenvalues --  -20.56473 -20.53491  -1.33758  -1.30809  -0.71156
 Alpha  occ. eigenvalues --   -0.68254  -0.57198  -0.54302  -0.50878  -0.47944
 Alpha virt. eigenvalues --    0.12970   0.17041   0.19611   0.25168   0.52485
 Alpha virt. eigenvalues --    0.55572   0.56669   0.58287   0.67938   0.75335
 Alpha virt. eigenvalues --    0.76185   0.76636   0.80726   0.81485   0.84128

 Mulliken charges:
               1
     1  O   -0.495109
     2  H    0.246441
     3  H    0.259851
     4  O   -0.515612
     5  H    0.239602
     6  H    0.264828
 Sum of Mulliken charges =  -0.00000

 Dipole moment (field-independent basis, Debye):
    X=             -1.8885    Y=             -2.0656    Z=              0.0000  Tot=              2.7987
 Quadrupole moment (field-independent basis, Debye-Ang):
   XX=             -9.8528   YY=             -3.3451   ZZ=            -14.7248
   XY=             -3.3440   XZ=              0.0000   YZ=              0.0000

 Normal termination of Gaussian 16 at Sat Aug 27 05:24:28 2022.
