 Gaussian 16, Revision A.03,
 Gaussian 16:  ES64L-G16RevA.03 25-Dec-2016

 ------------------
 #p CCSD(T)/cc-pVTZ
 ------------------

 ------------
 H2O_H2O_1406
 ------------
 Symbolic Z-matrix:
 Charge =  0 Multiplicity = 1

                         Standard orientation:
 ---------------------------------------------------------------------
 Center     Atomic      Atomic             Coordinates (Angstroms)
 Number     Number       Type             X           Y           Z
 ---------------------------------------------------------------------
      1          8           0        0.021862   -1.543476    0.000000
      2          1           0       -0.778403   -2.113635    0.000000
      3          1           0        0.820738   -2.115579    0.000000
      4          8           0        0.021862    1.552118    0.000000
      5          1           0        0.543020    2.385125    0.000000
      6          1           0       -0.935138    1.774956    0.000000
 ---------------------------------------------------------------------

 SCF Done:  E(RHF) =  -152.102515692     A.U. after   11 cycles
 E2 =    -0.5272103159D+00 EUMP2 =    -0.15262972600764D+03
 CCSD(T)
 CCSD(T)= -0.15265700050D+03

 The electronic state is 1-A'.
 Alpha  occ. eigenvalues --  -20.54116 -20.53913  -1.31447  -1.31165  -0.68868
 Alpha  occ. eigenvalues --   -0.68602  -0.55567  -0.53419  -0.48615  -0.48168
 Alpha virt. eigenvalues --    0.14254   0.16599   0.20514   0.21884   0.52310
 Alpha virt. eigenvalues --    0.58242   0.58385   0.58951   0.65112   0.76718
 Alpha virt. eigenvalues --    0.77941   0.78518   0.79155   0.82392   0.85933

 Mulliken charges:
               1
     1  O   -0.476940
     2  H    0.235252
     3  H    0.241989
     4  O   -0.475065
     5  H    0.233907
     6  H    0.240857
 Sum of Mulliken charges =  -0.00000

 Dipole moment (field-independent basis, Debye):
    X=             -0.7181    Y=             -0.1629    Z=              0.0000  Tot=              0.7363
 Quadrupole moment (field-independent basis, Debye-Ang):
   XX=             -8.1811   YY=             -0.1709   ZZ=            -14.7105
   XY=             -0.5659   XZ=              0.0000   YZ=              0.0000

 Normal termination of Gaussian 16 at Sat Aug 27 04:33:35 2022.
