 Gaussian 16, Revision A.03,
 Gaussian 16:  ES64L-G16RevA.03 25-Dec-2016

 ------------------
 #p CCSD(T)/cc-pVTZ
 ------------------

 ------------
 H2O_H2O_3588
 ------------
 Symbolic Z-matrix:
 Charge =  0 Multiplicity = 1

                         Standard orientation:
 ---------------------------------------------------------------------
 Center     Atomic      Atomic             Coordinates (Angstroms)
 Number     Number       Type             X           Y           Z
 ---------------------------------------------------------------------
      1          8           0        0.042967   -2.683844    0.000000
      2          1           0       -0.757385   -3.253883    0.000000
      3          1           0        0.841756   -3.256069    0.000000
      4          8           0        0.042967    2.722639    0.000000
      5          1           0        0.142097    3.700227    0.000000
      6          1           0       -0.913934    2.499371    0.000000
 ---------------------------------------------------------------------

 SCF Done:  E(RHF) =  -152.106905176     A.U. after   10 cycles
 E2 =    -0.5259445622D+00 EUMP2 =    -0.15263284973851D+03
 CCSD(T)
 CCSD(T)= -0.15266007916D+03

 The electronic state is 1-A'.
 Alpha  occ. eigenvalues --  -20.55307 -20.54997  -1.32604  -1.32291  -0.70011
 Alpha  occ. eigenvalues --   -0.69691  -0.56027  -0.55715  -0.49711  -0.49400
 Alpha virt. eigenvalues --    0.14223   0.14725   0.20351   0.20734   0.54535
 Alpha virt. eigenvalues --    0.54896   0.57427   0.57740   0.67856   0.68896
 Alpha virt. eigenvalues --    0.79168   0.79473   0.80600   0.80927   0.82600

 Mulliken charges:
               1
     1  O   -0.505938
     2  H    0.251458
     3  H    0.254490
     4  O   -0.505609
     5  H    0.250434
     6  H    0.255166
 Sum of Mulliken charges =   0.00000

 Dipole moment (field-independent basis, Debye):
    X=             -1.4720    Y=             -0.6820    Z=              0.0000  Tot=              1.6223
 Quadrupole moment (field-independent basis, Debye-Ang):
   XX=             -8.9663   YY=              7.0195   ZZ=            -14.7112
   XY=             -3.1763   XZ=              0.0000   YZ=              0.0000

 Normal termination of Gaussian 16 at Sat Aug 27 01:43:02 2022.
