 Gaussian 16, Revision A.03,
 Gaussian 16:  ES64L-G16RevA.03 25-Dec-2016

 ------------------
 #p CCSD(T)/cc-pVTZ
 ------------------

 ----------
 H2O_H2O_86
 ----------
 Symbolic Z-matrix:
 Charge =  0 Multiplicity = 1

                         Standard orientation:
 ---------------------------------------------------------------------
 Center     Atomic      Atomic             Coordinates (Angstroms)
 Number     Number       Type             X           Y           Z
 ---------------------------------------------------------------------
      1          8           0        0.037712   -0.828245    0.000000
      2          1           0       -0.764051   -1.396295    0.000000
      3          1           0        0.835079   -1.402449    0.000000
      4          8           0        0.037712    0.856301    0.000000
      5          1           0        0.265967    1.812024    0.000000
      6          1           0       -0.940381    0.762270    0.000000
 ---------------------------------------------------------------------

 SCF Done:  E(RHF) =  -151.960527188     A.U. after   12 cycles
 E2 =    -0.5467228943D+00 EUMP2 =    -0.15250725008198D+03
 CCSD(T)
 CCSD(T)= -0.15253252641D+03

 The electronic state is 1-A'.
 Alpha  occ. eigenvalues --  -20.52345 -20.51417  -1.36624  -1.26957  -0.72678
 Alpha  occ. eigenvalues --   -0.69117  -0.60677  -0.52628  -0.43526  -0.37535
 Alpha virt. eigenvalues --    0.14132   0.19036   0.19806   0.23653   0.53664
 Alpha virt. eigenvalues --    0.55889   0.58640   0.65471   0.72574   0.77835
 Alpha virt. eigenvalues --    0.80070   0.82400   0.82779   0.84479   0.88954

 Mulliken charges:
               1
     1  O   -0.361633
     2  H    0.169095
     3  H    0.195353
     4  O   -0.345950
     5  H    0.114968
     6  H    0.228167
 Sum of Mulliken charges =  -0.00000

 Dipole moment (field-independent basis, Debye):
    X=             -1.0245    Y=             -0.6687    Z=              0.0000  Tot=              1.2235
 Quadrupole moment (field-independent basis, Debye-Ang):
   XX=             -9.0465   YY=             -8.3951   ZZ=            -14.6871
   XY=             -0.5178   XZ=              0.0000   YZ=              0.0000

 2603\MP4DQ=-152.5115451\MP4SDQ=-152.5156264\CCSD=-152.5144667\CCSD(T)=
 Normal termination of Gaussian 16 at Fri Aug 26 12:37:35 2022.
