 Gaussian 16, Revision A.03,
 Gaussian 16:  ES64L-G16RevA.03 25-Dec-2016

 ------------------
 #p CCSD(T)/cc-pVTZ
 ------------------

 -----------
 H2O_H2O_853
 -----------
 Symbolic Z-matrix:
 Charge =  0 Multiplicity = 1

                         Standard orientation:
 ---------------------------------------------------------------------
 Center     Atomic      Atomic             Coordinates (Angstroms)
 Number     Number       Type             X           Y           Z
 ---------------------------------------------------------------------
      1          8           0        0.011143   -1.254477    0.000000
      2          1           0       -0.788864   -1.824998    0.000000
      3          1           0        0.810278   -1.826219    0.000000
      4          8           0        0.011143    1.256655    0.000000
      5          1           0        0.684475    1.972287    0.000000
      6          1           0       -0.884178    1.661508    0.000000
 ---------------------------------------------------------------------

 SCF Done:  E(RHF) =  -152.092726993     A.U. after   11 cycles
 E2 =    -0.5291436406D+00 EUMP2 =    -0.15262187063367D+03
 CCSD(T)
 CCSD(T)= -0.15264917051D+03

 The electronic state is 1-A'.
 Alpha  occ. eigenvalues --  -20.53140 -20.53077  -1.31041  -1.30170  -0.68330
 Alpha  occ. eigenvalues --   -0.67741  -0.56936  -0.50178  -0.48334  -0.46935
 Alpha virt. eigenvalues --    0.14487   0.17465   0.20565   0.22351   0.50602
 Alpha virt. eigenvalues --    0.58788   0.58886   0.62940   0.72817   0.76671
 Alpha virt. eigenvalues --    0.76882   0.79429   0.83949   0.84136   0.86469

 Mulliken charges:
               1
     1  O   -0.460671
     2  H    0.227527
     3  H    0.232728
     4  O   -0.457727
     5  H    0.225748
     6  H    0.232396
 Sum of Mulliken charges =   0.00000

 Dipole moment (field-independent basis, Debye):
    X=             -0.3497    Y=             -0.0421    Z=              0.0000  Tot=              0.3523
 Quadrupole moment (field-independent basis, Debye-Ang):
   XX=             -8.0542   YY=             -2.8036   ZZ=            -14.7242
   XY=             -0.1662   XZ=              0.0000   YZ=              0.0000

 Normal termination of Gaussian 16 at Fri Aug 26 20:35:14 2022.
