 Gaussian 16, Revision A.03,
 Gaussian 16:  ES64L-G16RevA.03 25-Dec-2016

 ------------------
 #p CCSD(T)/cc-pVTZ
 ------------------

 ------------
 H2O_H2O_1392
 ------------
 Symbolic Z-matrix:
 Charge =  0 Multiplicity = 1

                         Standard orientation:
 ---------------------------------------------------------------------
 Center     Atomic      Atomic             Coordinates (Angstroms)
 Number     Number       Type             X           Y           Z
 ---------------------------------------------------------------------
      1          8           0        0.051315   -1.500433    0.000000
      2          1           0       -0.749897   -2.069262    0.000000
      3          1           0        0.849239   -2.073864    0.000000
      4          8           0        0.051315    1.563843    0.000000
      5          1           0       -0.104485    2.534015    0.000000
      6          1           0       -0.815893    1.101828    0.000000
 ---------------------------------------------------------------------

 SCF Done:  E(RHF) =  -152.106044419     A.U. after   10 cycles
 E2 =    -0.5272419404D+00 EUMP2 =    -0.15263328635976D+03
 CCSD(T)
 CCSD(T)= -0.15266045849D+03

 The electronic state is 1-A'.
 Alpha  occ. eigenvalues --  -20.55404 -20.53650  -1.32711  -1.30910  -0.70132
 Alpha  occ. eigenvalues --   -0.68329  -0.56144  -0.54153  -0.49828  -0.48016
 Alpha virt. eigenvalues --    0.13573   0.16879   0.19986   0.23317   0.54085
 Alpha virt. eigenvalues --    0.55808   0.57331   0.58301   0.66998   0.75813
 Alpha virt. eigenvalues --    0.76870   0.76883   0.79716   0.82066   0.84923

 Mulliken charges:
               1
     1  O   -0.485478
     2  H    0.238624
     3  H    0.252841
     4  O   -0.492833
     5  H    0.232515
     6  H    0.254331
 Sum of Mulliken charges =  -0.00000

 Dipole moment (field-independent basis, Debye):
    X=             -1.6777    Y=             -1.2184    Z=              0.0000  Tot=              2.0734
 Quadrupole moment (field-independent basis, Debye-Ang):
   XX=             -9.4857   YY=             -1.8434   ZZ=            -14.7192
   XY=             -2.1776   XZ=              0.0000   YZ=              0.0000

 Normal termination of Gaussian 16 at Sat Aug 27 04:28:08 2022.
