 Gaussian 16, Revision A.03,
 Gaussian 16:  ES64L-G16RevA.03 25-Dec-2016

 ------------------
 #p CCSD(T)/cc-pVTZ
 ------------------

 ------------
 H2O_H2O_4218
 ------------
 Symbolic Z-matrix:
 Charge =  0 Multiplicity = 1

                         Standard orientation:
 ---------------------------------------------------------------------
 Center     Atomic      Atomic             Coordinates (Angstroms)
 Number     Number       Type             X           Y           Z
 ---------------------------------------------------------------------
      1          8           0        0.052818   -2.999102    0.000000
      2          1           0       -0.747607   -3.569036    0.000000
      3          1           0        0.851534   -3.571430    0.000000
      4          8           0        0.052818    3.069458    0.000000
      5          1           0       -0.167422    4.027060    0.000000
      6          1           0       -0.781599    2.550562    0.000000
 ---------------------------------------------------------------------

 SCF Done:  E(RHF) =  -152.107357445     A.U. after   10 cycles
 E2 =    -0.5258888673D+00 EUMP2 =    -0.15263324631214D+03
 CCSD(T)
 CCSD(T)= -0.15266046713D+03

 The electronic state is 1-A'.
 Alpha  occ. eigenvalues --  -20.55558 -20.55113  -1.32856  -1.32410  -0.70263
 Alpha  occ. eigenvalues --   -0.69809  -0.56301  -0.55853  -0.49967  -0.49523
 Alpha virt. eigenvalues --    0.14090   0.14576   0.20182   0.20666   0.54297
 Alpha virt. eigenvalues --    0.54767   0.57213   0.57658   0.67842   0.68399
 Alpha virt. eigenvalues --    0.78913   0.79350   0.80344   0.80807   0.82295

 Mulliken charges:
               1
     1  O   -0.508602
     2  H    0.252993
     3  H    0.255612
     4  O   -0.508302
     5  H    0.251763
     6  H    0.256536
 Sum of Mulliken charges =  -0.00000

 Dipole moment (field-independent basis, Debye):
    X=             -1.8143    Y=             -1.2312    Z=              0.0000  Tot=              2.1926
 Quadrupole moment (field-independent basis, Debye-Ang):
   XX=             -9.5593   YY=              6.4242   ZZ=            -14.7120
   XY=             -5.0245   XZ=              0.0000   YZ=              0.0000

 Normal termination of Gaussian 16 at Sat Aug 27 06:05:12 2022.
