 Gaussian 16, Revision A.03,
 Gaussian 16:  ES64L-G16RevA.03 25-Dec-2016

 ------------------
 #p CCSD(T)/cc-pVTZ
 ------------------

 ------------
 H2O_H2O_4007
 ------------
 Symbolic Z-matrix:
 Charge =  0 Multiplicity = 1

                         Standard orientation:
 ---------------------------------------------------------------------
 Center     Atomic      Atomic             Coordinates (Angstroms)
 Number     Number       Type             X           Y           Z
 ---------------------------------------------------------------------
      1          8           0        0.025265   -2.924567    0.000000
      2          1           0       -0.774730   -3.495106    0.000000
      3          1           0        0.824412   -3.496292    0.000000
      4          8           0        0.025265    2.936310    0.000000
      5          1           0        0.490415    3.801839    0.000000
      6          1           0       -0.944336    3.095620    0.000000
 ---------------------------------------------------------------------

 SCF Done:  E(RHF) =  -152.106758527     A.U. after   10 cycles
 E2 =    -0.5259428151D+00 EUMP2 =    -0.15263270134201D+03
 CCSD(T)
 CCSD(T)= -0.15265993489D+03

 The electronic state is 1-A'.
 Alpha  occ. eigenvalues --  -20.55186 -20.55108  -1.32482  -1.32402  -0.69890
 Alpha  occ. eigenvalues --   -0.69808  -0.55899  -0.55820  -0.49589  -0.49510
 Alpha virt. eigenvalues --    0.14413   0.14539   0.20472   0.20566   0.54677
 Alpha virt. eigenvalues --    0.54769   0.57540   0.57622   0.68252   0.68512
 Alpha virt. eigenvalues --    0.79290   0.79368   0.80734   0.80822   0.82666

 Mulliken charges:
               1
     1  O   -0.505045
     2  H    0.251813
     3  H    0.253232
     4  O   -0.504951
     5  H    0.251464
     6  H    0.253487
 Sum of Mulliken charges =  -0.00000

 Dipole moment (field-independent basis, Debye):
    X=             -0.8669    Y=             -0.2055    Z=              0.0000  Tot=              0.8909
 Quadrupole moment (field-independent basis, Debye-Ang):
   XX=             -8.2066   YY=             10.5872   ZZ=            -14.7107
   XY=             -1.8473   XZ=              0.0000   YZ=              0.0000

 Normal termination of Gaussian 16 at Sat Aug 27 04:51:13 2022.
