 Gaussian 16, Revision A.03,
 Gaussian 16:  ES64L-G16RevA.03 25-Dec-2016

 ------------------
 #p CCSD(T)/cc-pVTZ
 ------------------

 ------------
 H2O_H2O_3753
 ------------
 Symbolic Z-matrix:
 Charge =  0 Multiplicity = 1

                         Standard orientation:
 ---------------------------------------------------------------------
 Center     Atomic      Atomic             Coordinates (Angstroms)
 Number     Number       Type             X           Y           Z
 ---------------------------------------------------------------------
      1          8           0        0.011143   -2.796798    0.000000
      2          1           0       -0.788624   -3.367655    0.000000
      3          1           0        0.810518   -3.368204    0.000000
      4          8           0        0.011143    2.798985    0.000000
      5          1           0        0.684173    3.514900    0.000000
      6          1           0       -0.884349    3.203461    0.000000
 ---------------------------------------------------------------------

 SCF Done:  E(RHF) =  -152.106546859     A.U. after   10 cycles
 E2 =    -0.5259663414D+00 EUMP2 =    -0.15263251320011D+03
 CCSD(T)
 CCSD(T)= -0.15265975095D+03

 The electronic state is 1-A'.
 Alpha  occ. eigenvalues --  -20.55077 -20.55061  -1.32372  -1.32355  -0.69780
 Alpha  occ. eigenvalues --   -0.69763  -0.55779  -0.55762  -0.49477  -0.49461
 Alpha virt. eigenvalues --    0.14468   0.14605   0.20540   0.20595   0.54775
 Alpha virt. eigenvalues --    0.54825   0.57628   0.57658   0.68240   0.68737
 Alpha virt. eigenvalues --    0.79401   0.79417   0.80844   0.80874   0.82768

 Mulliken charges:
               1
     1  O   -0.503793
     2  H    0.251541
     3  H    0.252253
     4  O   -0.503769
     5  H    0.251402
     6  H    0.252367
 Sum of Mulliken charges =  -0.00000

 Dipole moment (field-independent basis, Debye):
    X=             -0.3819    Y=             -0.0383    Z=              0.0000  Tot=              0.3838
 Quadrupole moment (field-independent basis, Debye-Ang):
   XX=             -7.8858   YY=             10.2011   ZZ=            -14.7103
   XY=             -0.7310   XZ=              0.0000   YZ=              0.0000

 Normal termination of Gaussian 16 at Sat Aug 27 03:00:08 2022.
