 Gaussian 16, Revision A.03,
 Gaussian 16:  ES64L-G16RevA.03 25-Dec-2016

 ------------------
 #p CCSD(T)/cc-pVTZ
 ------------------

 ------------
 H2O_H2O_4930
 ------------
 Symbolic Z-matrix:
 Charge =  0 Multiplicity = 1

                         Standard orientation:
 ---------------------------------------------------------------------
 Center     Atomic      Atomic             Coordinates (Angstroms)
 Number     Number       Type             X           Y           Z
 ---------------------------------------------------------------------
      1          8           0        0.018360   -3.419610    0.000000
      2          1           0       -0.781475   -3.990373    0.000000
      3          1           0        0.817667   -3.991111    0.000000
      4          8           0        0.018360    3.425655    0.000000
      5          1           0        0.592282    4.223226    0.000000
      6          1           0       -0.922231    3.709898    0.000000
 ---------------------------------------------------------------------

 SCF Done:  E(RHF) =  -152.106993906     A.U. after   10 cycles
 E2 =    -0.5259101172D+00 EUMP2 =    -0.15263290402287D+03
 CCSD(T)
 CCSD(T)= -0.15266013330D+03

 The electronic state is 1-A'.
 Alpha  occ. eigenvalues --  -20.55284 -20.55254  -1.32581  -1.32551  -0.69987
 Alpha  occ. eigenvalues --   -0.69957  -0.56009  -0.55979  -0.49689  -0.49659
 Alpha virt. eigenvalues --    0.14359   0.14389   0.20412   0.20443   0.54580
 Alpha virt. eigenvalues --    0.54612   0.57461   0.57491   0.68212   0.68243
 Alpha virt. eigenvalues --    0.79190   0.79220   0.80631   0.80663   0.82556

 Mulliken charges:
               1
     1  O   -0.506420
     2  H    0.252879
     3  H    0.253541
     4  O   -0.506396
     5  H    0.252716
     6  H    0.253679
 Sum of Mulliken charges =  -0.00000

 Dipole moment (field-independent basis, Debye):
    X=             -0.6315    Y=             -0.1053    Z=              0.0000  Tot=              0.6402
 Quadrupole moment (field-independent basis, Debye-Ang):
   XX=             -8.0130   YY=             14.8240   ZZ=            -14.7110
   XY=             -1.6174   XZ=              0.0000   YZ=              0.0000

 Normal termination of Gaussian 16 at Sat Aug 27 10:11:06 2022.
