 Gaussian 16, Revision A.03,
 Gaussian 16:  ES64L-G16RevA.03 25-Dec-2016

 ------------------
 #p CCSD(T)/cc-pVTZ
 ------------------

 ------------
 H2O_H2O_2969
 ------------
 Symbolic Z-matrix:
 Charge =  0 Multiplicity = 1

                         Standard orientation:
 ---------------------------------------------------------------------
 Center     Atomic      Atomic             Coordinates (Angstroms)
 Number     Number       Type             X           Y           Z
 ---------------------------------------------------------------------
      1          8           0        0.054158   -2.330536    0.000000
      2          1           0       -0.746533   -2.900096    0.000000
      3          1           0        0.852605   -2.903238    0.000000
      4          8           0        0.054158    2.407833    0.000000
      5          1           0       -0.227802    3.349112    0.000000
      6          1           0       -0.744803    1.835848    0.000000
 ---------------------------------------------------------------------

 SCF Done:  E(RHF) =  -152.107458304     A.U. after   10 cycles
 E2 =    -0.5259700436D+00 EUMP2 =    -0.15263342834777D+03
 CCSD(T)
 CCSD(T)= -0.15266063771D+03

 The electronic state is 1-A'.
 Alpha  occ. eigenvalues --  -20.55603 -20.54755  -1.32896  -1.32049  -0.70303
 Alpha  occ. eigenvalues --   -0.69437  -0.56340  -0.55491  -0.50008  -0.49165
 Alpha virt. eigenvalues --    0.13579   0.15260   0.20089   0.21273   0.54129
 Alpha virt. eigenvalues --    0.54905   0.57196   0.57923   0.66711   0.70703
 Alpha virt. eigenvalues --    0.78878   0.79698   0.79997   0.80852   0.82789

 Mulliken charges:
               1
     1  O   -0.508150
     2  H    0.251581
     3  H    0.256969
     4  O   -0.508176
     5  H    0.249026
     6  H    0.258750
 Sum of Mulliken charges =  -0.00000

 Dipole moment (field-independent basis, Debye):
    X=             -1.8481    Y=             -1.3776    Z=              0.0000  Tot=              2.3051
 Quadrupole moment (field-independent basis, Debye-Ang):
   XX=             -9.6477   YY=              2.2335   ZZ=            -14.7130
   XY=             -4.0470   XZ=              0.0000   YZ=              0.0000

 Normal termination of Gaussian 16 at Fri Aug 26 17:54:51 2022.
