 Gaussian 16, Revision A.03,
 Gaussian 16:  ES64L-G16RevA.03 25-Dec-2016

 ------------------
 #p CCSD(T)/cc-pVTZ
 ------------------

 ------------
 H2O_H2O_3288
 ------------
 Symbolic Z-matrix:
 Charge =  0 Multiplicity = 1

                         Standard orientation:
 ---------------------------------------------------------------------
 Center     Atomic      Atomic             Coordinates (Angstroms)
 Number     Number       Type             X           Y           Z
 ---------------------------------------------------------------------
      1          8           0        0.042968   -2.524297    0.000000
      2          1           0       -0.757432   -3.094267    0.000000
      3          1           0        0.841708   -3.096591    0.000000
      4          8           0        0.042968    2.563084    0.000000
      5          1           0        0.142183    3.540664    0.000000
      6          1           0       -0.913951    2.339898    0.000000
 ---------------------------------------------------------------------

 SCF Done:  E(RHF) =  -152.106798847     A.U. after   10 cycles
 E2 =    -0.5259695935D+00 EUMP2 =    -0.15263276844048D+03
 CCSD(T)
 CCSD(T)= -0.15265999888D+03

 The electronic state is 1-A'.
 Alpha  occ. eigenvalues --  -20.55267 -20.54914  -1.32563  -1.32207  -0.69971
 Alpha  occ. eigenvalues --   -0.69606  -0.55981  -0.55626  -0.49670  -0.49316
 Alpha virt. eigenvalues --    0.14150   0.14884   0.20352   0.20837   0.54535
 Alpha virt. eigenvalues --    0.54980   0.57458   0.57805   0.67490   0.69513
 Alpha virt. eigenvalues --    0.79209   0.79556   0.80611   0.81026   0.82728

 Mulliken charges:
               1
     1  O   -0.505287
     2  H    0.250858
     3  H    0.254460
     4  O   -0.504882
     5  H    0.249659
     6  H    0.255191
 Sum of Mulliken charges =  -0.00000

 Dipole moment (field-independent basis, Debye):
    X=             -1.4696    Y=             -0.6845    Z=              0.0000  Tot=              1.6211
 Quadrupole moment (field-independent basis, Debye-Ang):
   XX=             -8.9675   YY=              5.9517   ZZ=            -14.7111
   XY=             -2.9441   XZ=              0.0000   YZ=              0.0000

 Normal termination of Gaussian 16 at Fri Aug 26 21:04:52 2022.
