 Gaussian 16, Revision A.03,
 Gaussian 16:  ES64L-G16RevA.03 25-Dec-2016

 ------------------
 #p CCSD(T)/cc-pVTZ
 ------------------

 ------------
 H2O_H2O_1045
 ------------
 Symbolic Z-matrix:
 Charge =  0 Multiplicity = 1

                         Standard orientation:
 ---------------------------------------------------------------------
 Center     Atomic      Atomic             Coordinates (Angstroms)
 Number     Number       Type             X           Y           Z
 ---------------------------------------------------------------------
      1          8           0        0.055316   -1.302959    0.000000
      2          1           0       -0.746266   -1.871265    0.000000
      3          1           0        0.852866   -1.876911    0.000000
      4          8           0        0.055316    1.387232    0.000000
      5          1           0       -0.286160    2.308590    0.000000
      6          1           0       -0.705499    0.765407    0.000000
 ---------------------------------------------------------------------

 SCF Done:  E(RHF) =  -152.104625748     A.U. after   10 cycles
 E2 =    -0.5285934881D+00 EUMP2 =    -0.15263321923625D+03
 CCSD(T)
 CCSD(T)= -0.15266030432D+03

 The electronic state is 1-A'.
 Alpha  occ. eigenvalues --  -20.55981 -20.52831  -1.33474  -1.30142  -0.70872
 Alpha  occ. eigenvalues --   -0.68004  -0.56417  -0.53534  -0.50570  -0.47230
 Alpha virt. eigenvalues --    0.13313   0.17603   0.19715   0.24811   0.52232
 Alpha virt. eigenvalues --    0.56788   0.58232   0.59497   0.70664   0.74588
 Alpha virt. eigenvalues --    0.75545   0.80541   0.82622   0.82793   0.84351

 Mulliken charges:
               1
     1  O   -0.477949
     2  H    0.237060
     3  H    0.254613
     4  O   -0.498028
     5  H    0.225183
     6  H    0.259121
 Sum of Mulliken charges =  -0.00000

 Dipole moment (field-independent basis, Debye):
    X=             -1.7632    Y=             -1.6957    Z=              0.0000  Tot=              2.4463
 Quadrupole moment (field-independent basis, Debye-Ang):
   XX=             -9.7454   YY=             -3.8149   ZZ=            -14.7252
   XY=             -2.3769   XZ=              0.0000   YZ=              0.0000

 Normal termination of Gaussian 16 at Sat Aug 27 01:38:40 2022.
