 Gaussian 16, Revision A.03,
 Gaussian 16:  ES64L-G16RevA.03 25-Dec-2016

 ------------------
 #p CCSD(T)/cc-pVTZ
 ------------------

 ------------
 H2O_H2O_4998
 ------------
 Symbolic Z-matrix:
 Charge =  0 Multiplicity = 1

                         Standard orientation:
 ---------------------------------------------------------------------
 Center     Atomic      Atomic             Coordinates (Angstroms)
 Number     Number       Type             X           Y           Z
 ---------------------------------------------------------------------
      1          8           0        0.057067   -3.391597    0.000000
      2          1           0       -0.743317   -3.961590    0.000000
      3          1           0        0.855824   -3.963867    0.000000
      4          8           0        0.057067    3.498190    0.000000
      5          1           0       -0.459358    4.334139    0.000000
      6          1           0       -0.566220    2.738571    0.000000
 ---------------------------------------------------------------------

 SCF Done:  E(RHF) =  -152.107609116     A.U. after   10 cycles
 E2 =    -0.5258553151D+00 EUMP2 =    -0.15263346443087D+03
 CCSD(T)
 CCSD(T)= -0.15266068068D+03

 The electronic state is 1-A'.
 Alpha  occ. eigenvalues --  -20.55731 -20.55223  -1.33031  -1.32522  -0.70437
 Alpha  occ. eigenvalues --   -0.69923  -0.56487  -0.55975  -0.50144  -0.49637
 Alpha virt. eigenvalues --    0.13962   0.14470   0.20047   0.20584   0.54123
 Alpha virt. eigenvalues --    0.54646   0.57059   0.57567   0.67685   0.68213
 Alpha virt. eigenvalues --    0.78735   0.79236   0.80163   0.80697   0.82086

 Mulliken charges:
               1
     1  O   -0.510071
     2  H    0.254121
     3  H    0.255951
     4  O   -0.509807
     5  H    0.252920
     6  H    0.256887
 Sum of Mulliken charges =   0.00000

 Dipole moment (field-independent basis, Debye):
    X=             -1.9636    Y=             -1.8576    Z=              0.0000  Tot=              2.7031
 Quadrupole moment (field-independent basis, Debye-Ang):
   XX=             -9.8556   YY=              4.5628   ZZ=            -14.7125
   XY=             -6.8815   XZ=              0.0000   YZ=              0.0000

 Normal termination of Gaussian 16 at Sat Aug 27 10:33:25 2022.
