 Gaussian 16, Revision A.03,
 Gaussian 16:  ES64L-G16RevA.03 25-Dec-2016

 ------------------
 #p CCSD(T)/cc-pVTZ
 ------------------

 ------------
 H2O_H2O_2498
 ------------
 Symbolic Z-matrix:
 Charge =  0 Multiplicity = 1

                         Standard orientation:
 ---------------------------------------------------------------------
 Center     Atomic      Atomic             Coordinates (Angstroms)
 Number     Number       Type             X           Y           Z
 ---------------------------------------------------------------------
      1          8           0        0.057115   -2.062059    0.000000
      2          1           0       -0.743779   -2.631335    0.000000
      3          1           0        0.855359   -2.635044    0.000000
      4          8           0        0.057115    2.168550    0.000000
      5          1           0       -0.458562    3.004961    0.000000
      6          1           0       -0.566852    1.409489    0.000000
 ---------------------------------------------------------------------

 SCF Done:  E(RHF) =  -152.108498857     A.U. after   10 cycles
 E2 =    -0.5260682503D+00 EUMP2 =    -0.15263456710700D+03
 CCSD(T)
 CCSD(T)= -0.15266173585D+03

 The electronic state is 1-A'.
 Alpha  occ. eigenvalues --  -20.56019 -20.54451  -1.33297  -1.31752  -0.70703
 Alpha  occ. eigenvalues --   -0.69125  -0.56774  -0.55217  -0.50417  -0.48877
 Alpha virt. eigenvalues --    0.13009   0.15834   0.19843   0.22391   0.53926
 Alpha virt. eigenvalues --    0.54842   0.56888   0.58445   0.66523   0.72339
 Alpha virt. eigenvalues --    0.78448   0.79366   0.79991   0.80906   0.82400

 Mulliken charges:
               1
     1  O   -0.508008
     2  H    0.251700
     3  H    0.258708
     4  O   -0.512712
     5  H    0.247855
     6  H    0.262457
 Sum of Mulliken charges =   0.00000

 Dipole moment (field-independent basis, Debye):
    X=             -1.9383    Y=             -1.9367    Z=              0.0000  Tot=              2.7401
 Quadrupole moment (field-independent basis, Debye-Ang):
   XX=             -9.8520   YY=             -1.0940   ZZ=            -14.7165
   XY=             -4.3018   XZ=              0.0000   YZ=              0.0000

 Normal termination of Gaussian 16 at Sat Aug 27 10:53:23 2022.
