 Gaussian 16, Revision A.03,
 Gaussian 16:  ES64L-G16RevA.03 25-Dec-2016

 ------------------
 #p CCSD(T)/cc-pVTZ
 ------------------

 ----------
 H2O_H2O_40
 ----------
 Symbolic Z-matrix:
 Charge =  0 Multiplicity = 1

                         Standard orientation:
 ---------------------------------------------------------------------
 Center     Atomic      Atomic             Coordinates (Angstroms)
 Number     Number       Type             X           Y           Z
 ---------------------------------------------------------------------
      1          8           0        0.047615   -0.789576    0.000000
      2          1           0       -0.754812   -1.356688    0.000000
      3          1           0        0.844310   -1.364712    0.000000
      4          8           0        0.047615    0.839864    0.000000
      5          1           0        0.021882    1.822129    0.000000
      6          1           0       -0.873214    0.496965    0.000000
 ---------------------------------------------------------------------

 SCF Done:  E(RHF) =  -151.925562832     A.U. after   12 cycles
 E2 =    -0.5503941740D+00 EUMP2 =    -0.15247595700584D+03
 CCSD(T)
 CCSD(T)= -0.15250078252D+03

 The electronic state is 1-A'.
 Alpha  occ. eigenvalues --  -20.53375 -20.51142  -1.39269  -1.26447  -0.75472
 Alpha  occ. eigenvalues --   -0.70978  -0.57501  -0.54253  -0.43313  -0.37685
 Alpha virt. eigenvalues --    0.13759   0.19003   0.19809   0.24101   0.51993
 Alpha virt. eigenvalues --    0.56418   0.58994   0.66267   0.73430   0.77012
 Alpha virt. eigenvalues --    0.80610   0.81611   0.82743   0.83822   0.89178

 Mulliken charges:
               1
     1  O   -0.319098
     2  H    0.145670
     3  H    0.190587
     4  O   -0.346325
     5  H    0.091142
     6  H    0.238025
 Sum of Mulliken charges =  -0.00000

 Dipole moment (field-independent basis, Debye):
    X=             -1.2376    Y=             -1.1839    Z=              0.0000  Tot=              1.7126
 Quadrupole moment (field-independent basis, Debye-Ang):
   XX=             -9.4815   YY=             -9.0282   ZZ=            -14.6181
   XY=             -0.7585   XZ=              0.0000   YZ=              0.0000

 Normal termination of Gaussian 16 at Fri Aug 26 12:10:49 2022.
