 Gaussian 16, Revision A.03,
 Gaussian 16:  ES64L-G16RevA.03 25-Dec-2016

 ------------------
 #p CCSD(T)/cc-pVTZ
 ------------------

 -----------
 H2O_H2O_667
 -----------
 Symbolic Z-matrix:
 Charge =  0 Multiplicity = 1

                         Standard orientation:
 ---------------------------------------------------------------------
 Center     Atomic      Atomic             Coordinates (Angstroms)
 Number     Number       Type             X           Y           Z
 ---------------------------------------------------------------------
      1          8           0        0.051345   -1.114904    0.000000
      2          1           0       -0.750416   -1.682956    0.000000
      3          1           0        0.848714   -1.689106    0.000000
      4          8           0        0.051345    1.178214    0.000000
      5          1           0       -0.103515    2.148536    0.000000
      6          1           0       -0.816309    0.717040    0.000000
 ---------------------------------------------------------------------

 SCF Done:  E(RHF) =  -152.089297279     A.U. after   11 cycles
 E2 =    -0.5312493867D+00 EUMP2 =    -0.15262054666607D+03
 CCSD(T)
 CCSD(T)= -0.15264759150D+03

 The electronic state is 1-A'.
 Alpha  occ. eigenvalues --  -20.54891 -20.52273  -1.33097  -1.29490  -0.70457
 Alpha  occ. eigenvalues --   -0.68139  -0.56117  -0.51344  -0.50156  -0.46424
 Alpha virt. eigenvalues --    0.13689   0.17958   0.19878   0.24307   0.52345
 Alpha virt. eigenvalues --    0.57149   0.59521   0.61408   0.71471   0.74744
 Alpha virt. eigenvalues --    0.78586   0.83010   0.83301   0.84647   0.87631

 Mulliken charges:
               1
     1  O   -0.453788
     2  H    0.222041
     3  H    0.241916
     4  O   -0.461082
     5  H    0.201552
     6  H    0.249361
 Sum of Mulliken charges =  -0.00000

 Dipole moment (field-independent basis, Debye):
    X=             -1.5623    Y=             -1.2872    Z=              0.0000  Tot=              2.0243
 Quadrupole moment (field-independent basis, Debye-Ang):
   XX=             -9.5375   YY=             -4.6871   ZZ=            -14.7194
   XY=             -1.5364   XZ=              0.0000   YZ=              0.0000

 Normal termination of Gaussian 16 at Fri Aug 26 18:50:59 2022.
