 Gaussian 16, Revision A.03,
 Gaussian 16:  ES64L-G16RevA.03 25-Dec-2016

 ------------------
 #p CCSD(T)/cc-pVTZ
 ------------------

 ------------
 H2O_H2O_3590
 ------------
 Symbolic Z-matrix:
 Charge =  0 Multiplicity = 1

                         Standard orientation:
 ---------------------------------------------------------------------
 Center     Atomic      Atomic             Coordinates (Angstroms)
 Number     Number       Type             X           Y           Z
 ---------------------------------------------------------------------
      1          8           0        0.047526   -2.677421    0.000000
      2          1           0       -0.752908   -3.247343    0.000000
      3          1           0        0.846232   -3.249762    0.000000
      4          8           0        0.047526    2.728043    0.000000
      5          1           0        0.018351    3.710211    0.000000
      6          1           0       -0.872095    2.381918    0.000000
 ---------------------------------------------------------------------

 SCF Done:  E(RHF) =  -152.107059185     A.U. after   10 cycles
 E2 =    -0.5259327757D+00 EUMP2 =    -0.15263299196079D+03
 CCSD(T)
 CCSD(T)= -0.15266021788D+03

 The electronic state is 1-A'.
 Alpha  occ. eigenvalues --  -20.55395 -20.54988  -1.32692  -1.32282  -0.70099
 Alpha  occ. eigenvalues --   -0.69680  -0.56123  -0.55712  -0.49801  -0.49393
 Alpha virt. eigenvalues --    0.14132   0.14755   0.20283   0.20777   0.54444
 Alpha virt. eigenvalues --    0.54900   0.57352   0.57755   0.67746   0.68904
 Alpha virt. eigenvalues --    0.79079   0.79479   0.80504   0.80904   0.82563

 Mulliken charges:
               1
     1  O   -0.506844
     2  H    0.251758
     3  H    0.255103
     4  O   -0.506464
     5  H    0.250477
     6  H    0.255971
 Sum of Mulliken charges =   0.00000

 Dipole moment (field-independent basis, Debye):
    X=             -1.6284    Y=             -0.8904    Z=              0.0000  Tot=              1.8559
 Quadrupole moment (field-independent basis, Debye-Ang):
   XX=             -9.2251   YY=              6.1417   ZZ=            -14.7115
   XY=             -3.6895   XZ=              0.0000   YZ=              0.0000

 Normal termination of Gaussian 16 at Sat Aug 27 01:43:53 2022.
