 Gaussian 16, Revision A.03,
 Gaussian 16:  ES64L-G16RevA.03 25-Dec-2016

 ------------------
 #p CCSD(T)/cc-pVTZ
 ------------------

 -----------
 H2O_H2O_902
 -----------
 Symbolic Z-matrix:
 Charge =  0 Multiplicity = 1

                         Standard orientation:
 ---------------------------------------------------------------------
 Center     Atomic      Atomic             Coordinates (Angstroms)
 Number     Number       Type             X           Y           Z
 ---------------------------------------------------------------------
      1          8           0        0.007455   -1.281725    0.000000
      2          1           0       -0.792402   -1.852457    0.000000
      3          1           0        0.806740   -1.853257    0.000000
      4          8           0        0.007455    1.282695    0.000000
      5          1           0        0.725973    1.952946    0.000000
      6          1           0       -0.859593    1.745009    0.000000
 ---------------------------------------------------------------------

 SCF Done:  E(RHF) =  -152.094187271     A.U. after   11 cycles
 E2 =    -0.5288513074D+00 EUMP2 =    -0.15262303857864D+03
 CCSD(T)
 CCSD(T)= -0.15265035004D+03

 The electronic state is 1-A'.
 Alpha  occ. eigenvalues --  -20.53202 -20.53175  -1.31025  -1.30277  -0.68338
 Alpha  occ. eigenvalues --   -0.67829  -0.56717  -0.50544  -0.48309  -0.47067
 Alpha virt. eigenvalues --    0.14487   0.17392   0.20570   0.22276   0.50542
 Alpha virt. eigenvalues --    0.58743   0.58868   0.62700   0.72972   0.76730
 Alpha virt. eigenvalues --    0.76794   0.79039   0.82454   0.83864   0.86451

 Mulliken charges:
               1
     1  O   -0.461458
     2  H    0.228933
     3  H    0.232357
     4  O   -0.460210
     5  H    0.228274
     6  H    0.232104
 Sum of Mulliken charges =  -0.00000

 Dipole moment (field-independent basis, Debye):
    X=             -0.2354    Y=             -0.0187    Z=              0.0000  Tot=              0.2361
 Quadrupole moment (field-independent basis, Debye-Ang):
   XX=             -8.0018   YY=             -2.5260   ZZ=            -14.7219
   XY=             -0.1143   XZ=              0.0000   YZ=              0.0000

 5151\MP4DQ=-152.6316947\MP4SDQ=-152.6349215\CCSD=-152.6342745\CCSD(T)=
 Normal termination of Gaussian 16 at Fri Aug 26 21:03:31 2022.
