 Gaussian 16, Revision A.03,
 Gaussian 16:  ES64L-G16RevA.03 25-Dec-2016

 ------------------
 #p CCSD(T)/cc-pVTZ
 ------------------

 ------------
 H2O_H2O_1191
 ------------
 Symbolic Z-matrix:
 Charge =  0 Multiplicity = 1

                         Standard orientation:
 ---------------------------------------------------------------------
 Center     Atomic      Atomic             Coordinates (Angstroms)
 Number     Number       Type             X           Y           Z
 ---------------------------------------------------------------------
      1          8           0        0.049546   -1.397646    0.000000
      2          1           0       -0.751726   -1.966388    0.000000
      3          1           0        0.847409   -1.971163    0.000000
      4          8           0        0.049546    1.454464    0.000000
      5          1           0       -0.042362    2.432757    0.000000
      6          1           0       -0.846064    1.050253    0.000000
 ---------------------------------------------------------------------

 SCF Done:  E(RHF) =  -152.104259857     A.U. after   10 cycles
 E2 =    -0.5277785681D+00 EUMP2 =    -0.15263203842537D+03
 CCSD(T)
 CCSD(T)= -0.15265922333D+03

 The electronic state is 1-A'.
 Alpha  occ. eigenvalues --  -20.55157 -20.53426  -1.32524  -1.30676  -0.69945
 Alpha  occ. eigenvalues --   -0.68164  -0.56089  -0.53629  -0.49650  -0.47752
 Alpha virt. eigenvalues --    0.13698   0.17086   0.20030   0.23372   0.53743
 Alpha virt. eigenvalues --    0.57375   0.57491   0.58317   0.68817   0.75705
 Alpha virt. eigenvalues --    0.76207   0.77079   0.80993   0.82598   0.85073

 Mulliken charges:
               1
     1  O   -0.480141
     2  H    0.235204
     3  H    0.251065
     4  O   -0.483805
     5  H    0.226658
     6  H    0.251020
 Sum of Mulliken charges =  -0.00000

 Dipole moment (field-independent basis, Debye):
    X=             -1.5979    Y=             -1.1028    Z=              0.0000  Tot=              1.9416
 Quadrupole moment (field-independent basis, Debye-Ang):
   XX=             -9.3920   YY=             -2.3457   ZZ=            -14.7206
   XY=             -1.8294   XZ=              0.0000   YZ=              0.0000

 Normal termination of Gaussian 16 at Sat Aug 27 02:51:48 2022.
