 Gaussian 16, Revision A.03,
 Gaussian 16:  ES64L-G16RevA.03 25-Dec-2016

 ------------------
 #p CCSD(T)/cc-pVTZ
 ------------------

 ----------
 H2O_H2O_42
 ----------
 Symbolic Z-matrix:
 Charge =  0 Multiplicity = 1

                         Standard orientation:
 ---------------------------------------------------------------------
 Center     Atomic      Atomic             Coordinates (Angstroms)
 Number     Number       Type             X           Y           Z
 ---------------------------------------------------------------------
      1          8           0        0.051395   -0.782590    0.000000
      2          1           0       -0.751257   -1.349383    0.000000
      3          1           0        0.847861   -1.358044    0.000000
      4          8           0        0.051395    0.845740    0.000000
      5          1           0       -0.101942    1.816303    0.000000
      6          1           0       -0.816982    0.385927    0.000000
 ---------------------------------------------------------------------

 SCF Done:  E(RHF) =  -151.915300953     A.U. after   12 cycles
 E2 =    -0.5512527591D+00 EUMP2 =    -0.15246655371235D+03
 CCSD(T)
 CCSD(T)= -0.15249126805D+03

 The electronic state is 1-A'.
 Alpha  occ. eigenvalues --  -20.54037 -20.50566  -1.40316  -1.26235  -0.76705
 Alpha  occ. eigenvalues --   -0.71719  -0.55488  -0.54792  -0.43224  -0.38649
 Alpha virt. eigenvalues --    0.13569   0.18885   0.19917   0.24474   0.51154
 Alpha virt. eigenvalues --    0.55815   0.59946   0.66992   0.73279   0.76773
 Alpha virt. eigenvalues --    0.79378   0.81291   0.83887   0.84054   0.89116

 Mulliken charges:
               1
     1  O   -0.303523
     2  H    0.141744
     3  H    0.192471
     4  O   -0.369354
     5  H    0.093821
     6  H    0.244842
 Sum of Mulliken charges =  -0.00000

 Dipole moment (field-independent basis, Debye):
    X=             -1.3185    Y=             -1.4878    Z=              0.0000  Tot=              1.9880
 Quadrupole moment (field-independent basis, Debye-Ang):
   XX=             -9.6592   YY=             -9.0995   ZZ=            -14.5872
   XY=             -0.9238   XZ=              0.0000   YZ=              0.0000

 Normal termination of Gaussian 16 at Fri Aug 26 12:11:52 2022.
