 Gaussian 16, Revision A.03,
 Gaussian 16:  ES64L-G16RevA.03 25-Dec-2016

 ------------------
 #p CCSD(T)/cc-pVTZ
 ------------------

 ------------
 H2O_H2O_2935
 ------------
 Symbolic Z-matrix:
 Charge =  0 Multiplicity = 1

                         Standard orientation:
 ---------------------------------------------------------------------
 Center     Atomic      Atomic             Coordinates (Angstroms)
 Number     Number       Type             X           Y           Z
 ---------------------------------------------------------------------
      1          8           0        0.034783   -2.346448    0.000000
      2          1           0       -0.765512   -2.916565    0.000000
      3          1           0        0.833629   -2.918595    0.000000
      4          8           0        0.034783    2.369965    0.000000
      5          1           0        0.322636    3.309458    0.000000
      6          1           0       -0.947285    2.337572    0.000000
 ---------------------------------------------------------------------

 SCF Done:  E(RHF) =  -152.106354189     A.U. after   10 cycles
 E2 =    -0.5260345458D+00 EUMP2 =    -0.15263238873434D+03
 CCSD(T)
 CCSD(T)= -0.15265962650D+03

 The electronic state is 1-A'.
 Alpha  occ. eigenvalues --  -20.55064 -20.54815  -1.32357  -1.32105  -0.69767
 Alpha  occ. eigenvalues --   -0.69507  -0.55754  -0.55500  -0.49461  -0.49211
 Alpha virt. eigenvalues --    0.14177   0.15078   0.20454   0.20910   0.54605
 Alpha virt. eigenvalues --    0.55142   0.57620   0.57879   0.66685   0.70820
 Alpha virt. eigenvalues --    0.79406   0.79670   0.80786   0.81235   0.82667

 Mulliken charges:
               1
     1  O   -0.502605
     2  H    0.249531
     3  H    0.253121
     4  O   -0.502207
     5  H    0.248574
     6  H    0.253586
 Sum of Mulliken charges =  -0.00000

 Dipole moment (field-independent basis, Debye):
    X=             -1.1862    Y=             -0.4171    Z=              0.0000  Tot=              1.2574
 Quadrupole moment (field-independent basis, Debye-Ang):
   XX=             -8.5726   YY=              5.5804   ZZ=            -14.7105
   XY=             -1.9985   XZ=              0.0000   YZ=              0.0000

 Normal termination of Gaussian 16 at Fri Aug 26 17:36:15 2022.
