 Gaussian 16, Revision A.03,
 Gaussian 16:  ES64L-G16RevA.03 25-Dec-2016

 ------------------
 #p CCSD(T)/cc-pVTZ
 ------------------

 -----------
 H2O_H2O_384
 -----------
 Symbolic Z-matrix:
 Charge =  0 Multiplicity = 1

                         Standard orientation:
 ---------------------------------------------------------------------
 Center     Atomic      Atomic             Coordinates (Angstroms)
 Number     Number       Type             X           Y           Z
 ---------------------------------------------------------------------
      1          8           0        0.031757   -0.992674    0.000000
      2          1           0       -0.769368   -1.561625    0.000000
      3          1           0        0.829768   -1.565983    0.000000
      4          8           0        0.031757    1.011752    0.000000
      5          1           0        0.381775    1.929898    0.000000
      6          1           0       -0.950279    1.045089    0.000000
 ---------------------------------------------------------------------

 SCF Done:  E(RHF) =  -152.054879678     A.U. after   11 cycles
 E2 =    -0.5351153057D+00 EUMP2 =    -0.15258999498413D+03
 CCSD(T)
 CCSD(T)= -0.15261680427D+03

 The electronic state is 1-A'.
 Alpha  occ. eigenvalues --  -20.52533 -20.51910  -1.32449  -1.28621  -0.69302
 Alpha  occ. eigenvalues --   -0.67190  -0.59718  -0.49577  -0.45169  -0.44893
 Alpha virt. eigenvalues --    0.14426   0.18175   0.20276   0.23259   0.52599
 Alpha virt. eigenvalues --    0.57813   0.58606   0.64366   0.70621   0.77228
 Alpha virt. eigenvalues --    0.78843   0.82224   0.83764   0.86029   0.88012

 Mulliken charges:
               1
     1  O   -0.439307
     2  H    0.209316
     3  H    0.227447
     4  O   -0.408948
     5  H    0.178133
     6  H    0.233360
 Sum of Mulliken charges =  -0.00000

 Dipole moment (field-independent basis, Debye):
    X=             -0.9220    Y=             -0.3958    Z=              0.0000  Tot=              1.0034
 Quadrupole moment (field-independent basis, Debye-Ang):
   XX=             -8.7005   YY=             -5.7270   ZZ=            -14.7338
   XY=             -0.4232   XZ=              0.0000   YZ=              0.0000

 Normal termination of Gaussian 16 at Fri Aug 26 15:54:14 2022.
