 Gaussian 16, Revision A.03,
 Gaussian 16:  ES64L-G16RevA.03 25-Dec-2016

 ------------------
 #p CCSD(T)/cc-pVTZ
 ------------------

 ------------
 H2O_H2O_4803
 ------------
 Symbolic Z-matrix:
 Charge =  0 Multiplicity = 1

                         Standard orientation:
 ---------------------------------------------------------------------
 Center     Atomic      Atomic             Coordinates (Angstroms)
 Number     Number       Type             X           Y           Z
 ---------------------------------------------------------------------
      1          8           0        0.011143   -3.355225    0.000000
      2          1           0       -0.788592   -3.926128    0.000000
      3          1           0        0.810550   -3.926585    0.000000
      4          8           0        0.011143    3.357413    0.000000
      5          1           0        0.684132    4.073368    0.000000
      6          1           0       -0.884372    3.761838    0.000000
 ---------------------------------------------------------------------

 SCF Done:  E(RHF) =  -152.106939194     A.U. after   10 cycles
 E2 =    -0.5259158399D+00 EUMP2 =    -0.15263285503405D+03
 CCSD(T)
 CCSD(T)= -0.15266008541D+03

 The electronic state is 1-A'.
 Alpha  occ. eigenvalues --  -20.55251 -20.55240  -1.32547  -1.32536  -0.69954
 Alpha  occ. eigenvalues --   -0.69942  -0.55973  -0.55962  -0.49655  -0.49644
 Alpha virt. eigenvalues --    0.14386   0.14401   0.20438   0.20450   0.54614
 Alpha virt. eigenvalues --    0.54627   0.57490   0.57502   0.68249   0.68268
 Alpha virt. eigenvalues --    0.79224   0.79235   0.80666   0.80678   0.82591

 Mulliken charges:
               1
     1  O   -0.506097
     2  H    0.252836
     3  H    0.253261
     4  O   -0.506087
     5  H    0.252740
     6  H    0.253347
 Sum of Mulliken charges =  -0.00000

 Dipole moment (field-independent basis, Debye):
    X=             -0.3831    Y=             -0.0381    Z=              0.0000  Tot=              0.3850
 Quadrupole moment (field-independent basis, Debye-Ang):
   XX=             -7.8793   YY=             14.6330   ZZ=            -14.7108
   XY=             -0.9428   XZ=              0.0000   YZ=              0.0000

 Normal termination of Gaussian 16 at Sat Aug 27 09:25:16 2022.
