 Gaussian 16, Revision A.03,
 Gaussian 16:  ES64L-G16RevA.03 25-Dec-2016

 ------------------
 #p CCSD(T)/cc-pVTZ
 ------------------

 ------------
 H2O_H2O_3989
 ------------
 Symbolic Z-matrix:
 Charge =  0 Multiplicity = 1

                         Standard orientation:
 ---------------------------------------------------------------------
 Center     Atomic      Atomic             Coordinates (Angstroms)
 Number     Number       Type             X           Y           Z
 ---------------------------------------------------------------------
      1          8           0        0.045341   -2.893443    0.000000
      2          1           0       -0.754994   -3.463505    0.000000
      3          1           0        0.844147   -3.465645    0.000000
      4          8           0        0.045341    2.938012    0.000000
      5          1           0        0.080293    3.919992    0.000000
      6          1           0       -0.894900    2.652610    0.000000
 ---------------------------------------------------------------------

 SCF Done:  E(RHF) =  -152.107077561     A.U. after   10 cycles
 E2 =    -0.5259174272D+00 EUMP2 =    -0.15263299498865D+03
 CCSD(T)
 CCSD(T)= -0.15266022155D+03

 The electronic state is 1-A'.
 Alpha  occ. eigenvalues --  -20.55389 -20.55084  -1.32687  -1.32379  -0.70094
 Alpha  occ. eigenvalues --   -0.69780  -0.56119  -0.55811  -0.49796  -0.49490
 Alpha virt. eigenvalues --    0.14225   0.14593   0.20309   0.20649   0.54467
 Alpha virt. eigenvalues --    0.54801   0.57360   0.57668   0.68006   0.68502
 Alpha virt. eigenvalues --    0.79084   0.79385   0.80520   0.80844   0.82466

 Mulliken charges:
               1
     1  O   -0.506948
     2  H    0.252190
     3  H    0.254761
     4  O   -0.506688
     5  H    0.251255
     6  H    0.255431
 Sum of Mulliken charges =  -0.00000

 Dipole moment (field-independent basis, Debye):
    X=             -1.5560    Y=             -0.7807    Z=              0.0000  Tot=              1.7409
 Quadrupole moment (field-independent basis, Debye-Ang):
   XX=             -9.0972   YY=              7.9727   ZZ=            -14.7114
   XY=             -3.7616   XZ=              0.0000   YZ=              0.0000

 Normal termination of Gaussian 16 at Sat Aug 27 04:45:29 2022.
