 Gaussian 16, Revision A.03,
 Gaussian 16:  ES64L-G16RevA.03 25-Dec-2016

 ------------------
 #p CCSD(T)/cc-pVTZ
 ------------------

 ------------
 H2O_H2O_1158
 ------------
 Symbolic Z-matrix:
 Charge =  0 Multiplicity = 1

                         Standard orientation:
 ---------------------------------------------------------------------
 Center     Atomic      Atomic             Coordinates (Angstroms)
 Number     Number       Type             X           Y           Z
 ---------------------------------------------------------------------
      1          8           0        0.028570   -1.406952    0.000000
      2          1           0       -0.771993   -1.976694    0.000000
      3          1           0        0.827147   -1.979473    0.000000
      4          8           0        0.028570    1.422156    0.000000
      5          1           0        0.437008    2.315849    0.000000
      6          1           0       -0.949279    1.518685    0.000000
 ---------------------------------------------------------------------

 SCF Done:  E(RHF) =  -152.100646313     A.U. after   11 cycles
 E2 =    -0.5278269986D+00 EUMP2 =    -0.15262847331125D+03
 CCSD(T)
 CCSD(T)= -0.15265575292D+03

 The electronic state is 1-A'.
 Alpha  occ. eigenvalues --  -20.53999 -20.53591  -1.31415  -1.30829  -0.68822
 Alpha  occ. eigenvalues --   -0.68290  -0.55947  -0.52571  -0.48614  -0.47782
 Alpha virt. eigenvalues --    0.14243   0.16932   0.20457   0.22282   0.52250
 Alpha virt. eigenvalues --    0.58324   0.58627   0.59973   0.68549   0.76527
 Alpha virt. eigenvalues --    0.77064   0.77966   0.80523   0.83119   0.85967

 Mulliken charges:
               1
     1  O   -0.473284
     2  H    0.231491
     3  H    0.241880
     4  O   -0.466511
     5  H    0.226984
     6  H    0.239439
 Sum of Mulliken charges =  -0.00000

 Dipole moment (field-independent basis, Debye):
    X=             -0.9220    Y=             -0.2900    Z=              0.0000  Tot=              0.9665
 Quadrupole moment (field-independent basis, Debye-Ang):
   XX=             -8.4156   YY=             -1.4527   ZZ=            -14.7148
   XY=             -0.6753   XZ=              0.0000   YZ=              0.0000

 Normal termination of Gaussian 16 at Sat Aug 27 02:36:18 2022.
