 Gaussian 16, Revision A.03,
 Gaussian 16:  ES64L-G16RevA.03 25-Dec-2016

 ------------------
 #p CCSD(T)/cc-pVTZ
 ------------------

 ------------
 H2O_H2O_3466
 ------------
 Symbolic Z-matrix:
 Charge =  0 Multiplicity = 1

                         Standard orientation:
 ---------------------------------------------------------------------
 Center     Atomic      Atomic             Coordinates (Angstroms)
 Number     Number       Type             X           Y           Z
 ---------------------------------------------------------------------
      1          8           0        0.049508   -2.607503    0.000000
      2          1           0       -0.750985   -3.177342    0.000000
      3          1           0        0.848155   -3.179926    0.000000
      4          8           0        0.049508    2.664456    0.000000
      5          1           0       -0.043742    3.642623    0.000000
      6          1           0       -0.845549    2.259018    0.000000
 ---------------------------------------------------------------------

 SCF Done:  E(RHF) =  -152.107121160     A.U. after   10 cycles
 E2 =    -0.5259349204D+00 EUMP2 =    -0.15263305608084D+03
 CCSD(T)
 CCSD(T)= -0.15266027996D+03

 The electronic state is 1-A'.
 Alpha  occ. eigenvalues --  -20.55433 -20.54948  -1.32730  -1.32243  -0.70138
 Alpha  occ. eigenvalues --   -0.69639  -0.56164  -0.55675  -0.49839  -0.49354
 Alpha virt. eigenvalues --    0.14044   0.14837   0.20245   0.20848   0.54391
 Alpha virt. eigenvalues --    0.54929   0.57319   0.57787   0.67561   0.69126
 Alpha virt. eigenvalues --    0.79041   0.79516   0.80446   0.80892   0.82628

 Mulliken charges:
               1
     1  O   -0.507182
     2  H    0.251743
     3  H    0.255476
     4  O   -0.506753
     5  H    0.250223
     6  H    0.256495
 Sum of Mulliken charges =  -0.00000

 Dipole moment (field-independent basis, Debye):
    X=             -1.6953    Y=             -1.0037    Z=              0.0000  Tot=              1.9701
 Quadrupole moment (field-independent basis, Debye-Ang):
   XX=             -9.3458   YY=              5.2522   ZZ=            -14.7117
   XY=             -3.8299   XZ=              0.0000   YZ=              0.0000

 Normal termination of Gaussian 16 at Fri Aug 26 22:34:51 2022.
