 Gaussian 16, Revision A.03,
 Gaussian 16:  ES64L-G16RevA.03 25-Dec-2016

 ------------------
 #p CCSD(T)/cc-pVTZ
 ------------------

 ------------
 H2O_H2O_4804
 ------------
 Symbolic Z-matrix:
 Charge =  0 Multiplicity = 1

                         Standard orientation:
 ---------------------------------------------------------------------
 Center     Atomic      Atomic             Coordinates (Angstroms)
 Number     Number       Type             X           Y           Z
 ---------------------------------------------------------------------
      1          8           0        0.014783   -3.354306    0.000000
      2          1           0       -0.785005   -3.925135    0.000000
      3          1           0        0.814137   -3.925741    0.000000
      4          8           0        0.014783    3.358187    0.000000
      5          1           0        0.639577    4.116565    0.000000
      6          1           0       -0.905233    3.703263    0.000000
 ---------------------------------------------------------------------

 SCF Done:  E(RHF) =  -152.106949976     A.U. after   10 cycles
 E2 =    -0.5259149525D+00 EUMP2 =    -0.15263286492824D+03
 CCSD(T)
 CCSD(T)= -0.15266009507D+03

 The electronic state is 1-A'.
 Alpha  occ. eigenvalues --  -20.55259 -20.55239  -1.32555  -1.32535  -0.69962
 Alpha  occ. eigenvalues --   -0.69942  -0.55982  -0.55962  -0.49663  -0.49643
 Alpha virt. eigenvalues --    0.14379   0.14402   0.20431   0.20452   0.54606
 Alpha virt. eigenvalues --    0.54628   0.57483   0.57503   0.68241   0.68266
 Alpha virt. eigenvalues --    0.79216   0.79236   0.80657   0.80679   0.82583

 Mulliken charges:
               1
     1  O   -0.506161
     2  H    0.252799
     3  H    0.253363
     4  O   -0.506144
     5  H    0.252667
     6  H    0.253477
 Sum of Mulliken charges =  -0.00000

 Dipole moment (field-independent basis, Debye):
    X=             -0.5083    Y=             -0.0676    Z=              0.0000  Tot=              0.5128
 Quadrupole moment (field-independent basis, Debye-Ang):
   XX=             -7.9387   YY=             14.4907   ZZ=            -14.7109
   XY=             -1.2587   XZ=              0.0000   YZ=              0.0000

 Normal termination of Gaussian 16 at Sat Aug 27 09:25:35 2022.
