 Gaussian 16, Revision A.03,
 Gaussian 16:  ES64L-G16RevA.03 25-Dec-2016

 ------------------
 #p CCSD(T)/cc-pVTZ
 ------------------

 ------------
 H2O_H2O_3283
 ------------
 Symbolic Z-matrix:
 Charge =  0 Multiplicity = 1

                         Standard orientation:
 ---------------------------------------------------------------------
 Center     Atomic      Atomic             Coordinates (Angstroms)
 Number     Number       Type             X           Y           Z
 ---------------------------------------------------------------------
      1          8           0        0.028564   -2.537082    0.000000
      2          1           0       -0.771558   -3.107441    0.000000
      3          1           0        0.827583   -3.108986    0.000000
      4          8           0        0.028564    2.552330    0.000000
      5          1           0        0.436312    3.446336    0.000000
      6          1           0       -0.949359    2.648104    0.000000
 ---------------------------------------------------------------------

 SCF Done:  E(RHF) =  -152.106441270     A.U. after   10 cycles
 E2 =    -0.5259955820D+00 EUMP2 =    -0.15263243685249D+03
 CCSD(T)
 CCSD(T)= -0.15265967555D+03

 The electronic state is 1-A'.
 Alpha  occ. eigenvalues --  -20.55071 -20.54934  -1.32365  -1.32226  -0.69774
 Alpha  occ. eigenvalues --   -0.69631  -0.55766  -0.55628  -0.49469  -0.49332
 Alpha virt. eigenvalues --    0.14354   0.14822   0.20504   0.20741   0.54737
 Alpha virt. eigenvalues --    0.54991   0.57623   0.57777   0.67643   0.69530
 Alpha virt. eigenvalues --    0.79406   0.79544   0.80836   0.81033   0.82742

 Mulliken charges:
               1
     1  O   -0.503196
     2  H    0.250408
     3  H    0.252794
     4  O   -0.502969
     5  H    0.249830
     6  H    0.253133
 Sum of Mulliken charges =  -0.00000

 Dipole moment (field-independent basis, Debye):
    X=             -0.9767    Y=             -0.2687    Z=              0.0000  Tot=              1.0130
 Quadrupole moment (field-independent basis, Debye-Ang):
   XX=             -8.3232   YY=              7.4342   ZZ=            -14.7103
   XY=             -1.7466   XZ=              0.0000   YZ=              0.0000

 Normal termination of Gaussian 16 at Fri Aug 26 21:02:00 2022.
