 Gaussian 16, Revision A.03,
 Gaussian 16:  ES64L-G16RevA.03 25-Dec-2016

 ------------------
 #p CCSD(T)/cc-pVTZ
 ------------------

 ------------
 H2O_H2O_2792
 ------------
 Symbolic Z-matrix:
 Charge =  0 Multiplicity = 1

                         Standard orientation:
 ---------------------------------------------------------------------
 Center     Atomic      Atomic             Coordinates (Angstroms)
 Number     Number       Type             X           Y           Z
 ---------------------------------------------------------------------
      1          8           0        0.051285   -2.244954    0.000000
      2          1           0       -0.749391   -2.814536    0.000000
      3          1           0        0.849748   -2.817633    0.000000
      4          8           0        0.051285    2.308461    0.000000
      5          1           0       -0.105428    3.278485    0.000000
      6          1           0       -0.815487    1.845630    0.000000
 ---------------------------------------------------------------------

 SCF Done:  E(RHF) =  -152.107148849     A.U. after   10 cycles
 E2 =    -0.5260176915D+00 EUMP2 =    -0.15263316654084D+03
 CCSD(T)
 CCSD(T)= -0.15266038081D+03

 The electronic state is 1-A'.
 Alpha  occ. eigenvalues --  -20.55459 -20.54704  -1.32751  -1.31994  -0.70160
 Alpha  occ. eigenvalues --   -0.69382  -0.56179  -0.55424  -0.49860  -0.49109
 Alpha virt. eigenvalues --    0.13636   0.15358   0.20161   0.21307   0.54155
 Alpha virt. eigenvalues --    0.54925   0.57319   0.57971   0.66395   0.71673
 Alpha virt. eigenvalues --    0.79017   0.79762   0.80116   0.81362   0.82815

 Mulliken charges:
               1
     1  O   -0.506186
     2  H    0.250436
     3  H    0.256182
     4  O   -0.506308
     5  H    0.248131
     6  H    0.257745
 Sum of Mulliken charges =   0.00000

 Dipole moment (field-independent basis, Debye):
    X=             -1.7467    Y=             -1.1356    Z=              0.0000  Tot=              2.0834
 Quadrupole moment (field-independent basis, Debye-Ang):
   XX=             -9.4587   YY=              2.6594   ZZ=            -14.7126
   XY=             -3.4503   XZ=              0.0000   YZ=              0.0000

 Normal termination of Gaussian 16 at Fri Aug 26 16:13:14 2022.
