 Gaussian 16, Revision A.03,
 Gaussian 16:  ES64L-G16RevA.03 25-Dec-2016

 ------------------
 #p CCSD(T)/cc-pVTZ
 ------------------

 -----------
 H2O_H2O_369
 -----------
 Symbolic Z-matrix:
 Charge =  0 Multiplicity = 1

                         Standard orientation:
 ---------------------------------------------------------------------
 Center     Atomic      Atomic             Coordinates (Angstroms)
 Number     Number       Type             X           Y           Z
 ---------------------------------------------------------------------
      1          8           0        0.054265   -0.947917    0.000000
      2          1           0       -0.747993   -1.515269    0.000000
      3          1           0        0.851131   -1.522817    0.000000
      4          8           0        0.054265    1.024916    0.000000
      5          1           0       -0.225101    1.966967    0.000000
      6          1           0       -0.746270    0.455133    0.000000
 ---------------------------------------------------------------------

 SCF Done:  E(RHF) =  -152.047161219     A.U. after   11 cycles
 E2 =    -0.5374623783D+00 EUMP2 =    -0.15258462359771D+03
 CCSD(T)
 CCSD(T)= -0.15261107449D+03

 The electronic state is 1-A'.
 Alpha  occ. eigenvalues --  -20.54998 -20.50756  -1.35385  -1.27970  -0.72926
 Alpha  occ. eigenvalues --   -0.69561  -0.54303  -0.51772  -0.48691  -0.44880
 Alpha virt. eigenvalues --    0.13468   0.18778   0.19527   0.25224   0.51073
 Alpha virt. eigenvalues --    0.55967   0.61069   0.64665   0.72429   0.75480
 Alpha virt. eigenvalues --    0.79801   0.81502   0.83953   0.84805   0.88021

 Mulliken charges:
               1
     1  O   -0.396758
     2  H    0.195804
     3  H    0.229108
     4  O   -0.452292
     5  H    0.173242
     6  H    0.250897
 Sum of Mulliken charges =  -0.00000

 Dipole moment (field-independent basis, Debye):
    X=             -1.5536    Y=             -1.6928    Z=              0.0000  Tot=              2.2977
 Quadrupole moment (field-independent basis, Debye-Ang):
   XX=             -9.7164   YY=             -6.5629   ZZ=            -14.6689
   XY=             -1.5427   XZ=              0.0000   YZ=              0.0000

 9634\MP4DQ=-152.591301\MP4SDQ=-152.5948102\CCSD=-152.5940381\CCSD(T)=-
 Normal termination of Gaussian 16 at Fri Aug 26 15:44:10 2022.
