 Gaussian 16, Revision A.03,
 Gaussian 16:  ES64L-G16RevA.03 25-Dec-2016

 ------------------
 #p CCSD(T)/cc-pVTZ
 ------------------

 ------------
 H2O_H2O_1441
 ------------
 Symbolic Z-matrix:
 Charge =  0 Multiplicity = 1

                         Standard orientation:
 ---------------------------------------------------------------------
 Center     Atomic      Atomic             Coordinates (Angstroms)
 Number     Number       Type             X           Y           Z
 ---------------------------------------------------------------------
      1          8           0        0.049539   -1.530592    0.000000
      2          1           0       -0.751589   -2.099538    0.000000
      3          1           0        0.847547   -2.103906    0.000000
      4          8           0        0.049539    1.587435    0.000000
      5          1           0       -0.042618    2.565705    0.000000
      6          1           0       -0.845969    1.182996    0.000000
 ---------------------------------------------------------------------

 SCF Done:  E(RHF) =  -152.105788780     A.U. after   10 cycles
 E2 =    -0.5271324265D+00 EUMP2 =    -0.15263292120665D+03
 CCSD(T)
 CCSD(T)= -0.15266010595D+03

 The electronic state is 1-A'.
 Alpha  occ. eigenvalues --  -20.55252 -20.53755  -1.32550  -1.31011  -0.69973
 Alpha  occ. eigenvalues --   -0.68415  -0.56024  -0.54201  -0.49667  -0.48115
 Alpha virt. eigenvalues --    0.13646   0.16768   0.20058   0.23019   0.54174
 Alpha virt. eigenvalues --    0.55688   0.57451   0.58358   0.66261   0.76058
 Alpha virt. eigenvalues --    0.77138   0.77238   0.79411   0.81985   0.85047

 Mulliken charges:
               1
     1  O   -0.485670
     2  H    0.238547
     3  H    0.251853
     4  O   -0.491028
     5  H    0.233055
     6  H    0.253242
 Sum of Mulliken charges =  -0.00000

 Dipole moment (field-independent basis, Debye):
    X=             -1.6243    Y=             -1.0853    Z=              0.0000  Tot=              1.9535
 Quadrupole moment (field-independent basis, Debye-Ang):
   XX=             -9.3764   YY=             -1.4276   ZZ=            -14.7175
   XY=             -2.0431   XZ=              0.0000   YZ=              0.0000

 Normal termination of Gaussian 16 at Sat Aug 27 04:47:00 2022.
