 Gaussian 16, Revision A.03,
 Gaussian 16:  ES64L-G16RevA.03 25-Dec-2016

 ------------------
 #p CCSD(T)/cc-pVTZ
 ------------------

 ------------
 H2O_H2O_2682
 ------------
 Symbolic Z-matrix:
 Charge =  0 Multiplicity = 1

                         Standard orientation:
 ---------------------------------------------------------------------
 Center     Atomic      Atomic             Coordinates (Angstroms)
 Number     Number       Type             X           Y           Z
 ---------------------------------------------------------------------
      1          8           0        0.025266   -2.219890    0.000000
      2          1           0       -0.774862   -2.790240    0.000000
      3          1           0        0.824279   -2.791803    0.000000
      4          8           0        0.025266    2.231620    0.000000
      5          1           0        0.490620    3.097041    0.000000
      6          1           0       -0.944297    2.391160    0.000000
 ---------------------------------------------------------------------

 SCF Done:  E(RHF) =  -152.105915499     A.U. after   10 cycles
 E2 =    -0.5261053211D+00 EUMP2 =    -0.15263202081998D+03
 CCSD(T)
 CCSD(T)= -0.15265926476D+03

 The electronic state is 1-A'.
 Alpha  occ. eigenvalues --  -20.54874 -20.54734  -1.32164  -1.32022  -0.69576
 Alpha  occ. eigenvalues --   -0.69429  -0.55554  -0.55373  -0.49265  -0.49125
 Alpha virt. eigenvalues --    0.14211   0.15245   0.20544   0.20959   0.54599
 Alpha virt. eigenvalues --    0.55385   0.57754   0.57956   0.65468   0.72190
 Alpha virt. eigenvalues --    0.79545   0.79809   0.81001   0.81210   0.82360

 Mulliken charges:
               1
     1  O   -0.499872
     2  H    0.248440
     3  H    0.251478
     4  O   -0.499570
     5  H    0.247802
     6  H    0.251723
 Sum of Mulliken charges =  -0.00000

 Dipole moment (field-independent basis, Debye):
    X=             -0.8593    Y=             -0.2092    Z=              0.0000  Tot=              0.8844
 Quadrupole moment (field-independent basis, Debye-Ang):
   XX=             -8.2206   YY=              5.1831   ZZ=            -14.7100
   XY=             -1.2457   XZ=              0.0000   YZ=              0.0000

 Normal termination of Gaussian 16 at Fri Aug 26 15:03:57 2022.
