 Gaussian 16, Revision A.03,
 Gaussian 16:  ES64L-G16RevA.03 25-Dec-2016

 ------------------
 #p CCSD(T)/cc-pVTZ
 ------------------

 ------------
 H2O_H2O_1139
 ------------
 Symbolic Z-matrix:
 Charge =  0 Multiplicity = 1

                         Standard orientation:
 ---------------------------------------------------------------------
 Center     Atomic      Atomic             Coordinates (Angstroms)
 Number     Number       Type             X           Y           Z
 ---------------------------------------------------------------------
      1          8           0        0.045373   -1.377778    0.000000
      2          1           0       -0.755786   -1.946680    0.000000
      3          1           0        0.843350   -1.951136    0.000000
      4          8           0        0.045373    1.422216    0.000000
      5          1           0        0.081748    2.404143    0.000000
      6          1           0       -0.895280    1.138175    0.000000
 ---------------------------------------------------------------------

 SCF Done:  E(RHF) =  -152.102755332     A.U. after   10 cycles
 E2 =    -0.5279224140D+00 EUMP2 =    -0.15263067774642D+03
 CCSD(T)
 CCSD(T)= -0.15265789158D+03

 The electronic state is 1-A'.
 Alpha  occ. eigenvalues --  -20.54772 -20.53440  -1.32163  -1.30682  -0.69583
 Alpha  occ. eigenvalues --   -0.68166  -0.56043  -0.53220  -0.49306  -0.47725
 Alpha virt. eigenvalues --    0.13876   0.17060   0.20156   0.23051   0.53666
 Alpha virt. eigenvalues --    0.57747   0.58044   0.58472   0.68899   0.76115
 Alpha virt. eigenvalues --    0.76371   0.76900   0.81468   0.82849   0.85358

 Mulliken charges:
               1
     1  O   -0.477507
     2  H    0.233090
     3  H    0.248371
     4  O   -0.475417
     5  H    0.224163
     6  H    0.247301
 Sum of Mulliken charges =  -0.00000

 Dipole moment (field-independent basis, Debye):
    X=             -1.4578    Y=             -0.8594    Z=              0.0000  Tot=              1.6923
 Quadrupole moment (field-independent basis, Debye-Ang):
   XX=             -9.1624   YY=             -2.1918   ZZ=            -14.7194
   XY=             -1.4609   XZ=              0.0000   YZ=              0.0000

 Normal termination of Gaussian 16 at Sat Aug 27 02:25:49 2022.
