 Gaussian 16, Revision A.03,
 Gaussian 16:  ES64L-G16RevA.03 25-Dec-2016

 ------------------
 #p CCSD(T)/cc-pVTZ
 ------------------

 ------------
 H2O_H2O_2606
 ------------
 Symbolic Z-matrix:
 Charge =  0 Multiplicity = 1

                         Standard orientation:
 ---------------------------------------------------------------------
 Center     Atomic      Atomic             Coordinates (Angstroms)
 Number     Number       Type             X           Y           Z
 ---------------------------------------------------------------------
      1          8           0        0.021860   -2.181671    0.000000
      2          1           0       -0.778202   -2.752115    0.000000
      3          1           0        0.820939   -2.753491    0.000000
      4          8           0        0.021860    2.190328    0.000000
      5          1           0        0.542722    3.023520    0.000000
      6          1           0       -0.935219    2.412827    0.000000
 ---------------------------------------------------------------------

 SCF Done:  E(RHF) =  -152.105772638     A.U. after   10 cycles
 E2 =    -0.5261315623D+00 EUMP2 =    -0.15263190420034D+03
 CCSD(T)
 CCSD(T)= -0.15265914976D+03

 The electronic state is 1-A'.
 Alpha  occ. eigenvalues --  -20.54814 -20.54708  -1.32103  -1.31995  -0.69516
 Alpha  occ. eigenvalues --   -0.69404  -0.55501  -0.55321  -0.49204  -0.49096
 Alpha virt. eigenvalues --    0.14220   0.15302   0.20569   0.20977   0.54586
 Alpha virt. eigenvalues --    0.55490   0.57789   0.57985   0.64975   0.72648
 Alpha virt. eigenvalues --    0.79570   0.79872   0.81078   0.81173   0.82241

 Mulliken charges:
               1
     1  O   -0.498939
     2  H    0.248113
     3  H    0.250868
     4  O   -0.498690
     5  H    0.247583
     6  H    0.251065
 Sum of Mulliken charges =  -0.00000

 Dipole moment (field-independent basis, Debye):
    X=             -0.7428    Y=             -0.1547    Z=              0.0000  Tot=              0.7587
 Quadrupole moment (field-independent basis, Debye-Ang):
   XX=             -8.1224   YY=              5.0122   ZZ=            -14.7098
   XY=             -1.0276   XZ=              0.0000   YZ=              0.0000

 Normal termination of Gaussian 16 at Fri Aug 26 14:17:02 2022.
