 Gaussian 16, Revision A.03,
 Gaussian 16:  ES64L-G16RevA.03 25-Dec-2016

 ------------------
 #p CCSD(T)/cc-pVTZ
 ------------------

 ------------
 H2O_H2O_3009
 ------------
 Symbolic Z-matrix:
 Charge =  0 Multiplicity = 1

                         Standard orientation:
 ---------------------------------------------------------------------
 Center     Atomic      Atomic             Coordinates (Angstroms)
 Number     Number       Type             X           Y           Z
 ---------------------------------------------------------------------
      1          8           0        0.031741   -2.388692    0.000000
      2          1           0       -0.768480   -2.958913    0.000000
      3          1           0        0.830661   -2.960734    0.000000
      4          8           0        0.031741    2.407870    0.000000
      5          1           0        0.380303    3.326571    0.000000
      6          1           0       -0.950346    2.439650    0.000000
 ---------------------------------------------------------------------

 SCF Done:  E(RHF) =  -152.106325301     A.U. after   10 cycles
 E2 =    -0.5260273282D+00 EUMP2 =    -0.15263235262878D+03
 CCSD(T)
 CCSD(T)= -0.15265959197D+03

 The electronic state is 1-A'.
 Alpha  occ. eigenvalues --  -20.55040 -20.54846  -1.32334  -1.32136  -0.69744
 Alpha  occ. eigenvalues --   -0.69540  -0.55729  -0.55530  -0.49437  -0.49242
 Alpha virt. eigenvalues --    0.14248   0.15009   0.20485   0.20855   0.54673
 Alpha virt. eigenvalues --    0.55118   0.57639   0.57854   0.66930   0.70480
 Alpha virt. eigenvalues --    0.79432   0.79638   0.80834   0.81174   0.82667

 Mulliken charges:
               1
     1  O   -0.502480
     2  H    0.249690
     3  H    0.252816
     4  O   -0.502141
     5  H    0.248904
     6  H    0.253210
 Sum of Mulliken charges =  -0.00000

 Dipole moment (field-independent basis, Debye):
    X=             -1.0831    Y=             -0.3395    Z=              0.0000  Tot=              1.1351
 Quadrupole moment (field-independent basis, Debye-Ang):
   XX=             -8.4456   YY=              6.1135   ZZ=            -14.7104
   XY=             -1.8233   XZ=              0.0000   YZ=              0.0000

 Normal termination of Gaussian 16 at Fri Aug 26 18:26:34 2022.
