 Gaussian 16, Revision A.03,
 Gaussian 16:  ES64L-G16RevA.03 25-Dec-2016

 ------------------
 #p CCSD(T)/cc-pVTZ
 ------------------

 ------------
 H2O_H2O_1954
 ------------
 Symbolic Z-matrix:
 Charge =  0 Multiplicity = 1

                         Standard orientation:
 ---------------------------------------------------------------------
 Center     Atomic      Atomic             Coordinates (Angstroms)
 Number     Number       Type             X           Y           Z
 ---------------------------------------------------------------------
      1          8           0        0.014783   -1.838577    0.000000
      2          1           0       -0.785182   -2.409156    0.000000
      3          1           0        0.813959   -2.410262    0.000000
      4          8           0        0.014783    1.842449    0.000000
      5          1           0        0.639815    2.600632    0.000000
      6          1           0       -0.905125    2.187812    0.000000
 ---------------------------------------------------------------------

 SCF Done:  E(RHF) =  -152.104614859     A.U. after   10 cycles
 E2 =    -0.5264999571D+00 EUMP2 =    -0.15263111481628D+03
 CCSD(T)
 CCSD(T)= -0.15265836328D+03

 The electronic state is 1-A'.
 Alpha  occ. eigenvalues --  -20.54454 -20.54385  -1.31737  -1.31658  -0.69158
 Alpha  occ. eigenvalues --   -0.69077  -0.55333  -0.54625  -0.48855  -0.48730
 Alpha virt. eigenvalues --    0.14169   0.15932   0.20591   0.21332   0.53668
 Alpha virt. eigenvalues --    0.56748   0.57968   0.58315   0.61452   0.75672
 Alpha virt. eigenvalues --    0.79241   0.79897   0.80765   0.80830   0.83037

 Mulliken charges:
               1
     1  O   -0.489274
     2  H    0.243256
     3  H    0.246128
     4  O   -0.489252
     5  H    0.242869
     6  H    0.246272
 Sum of Mulliken charges =  -0.00000

 Dipole moment (field-independent basis, Debye):
    X=             -0.4962    Y=             -0.0713    Z=              0.0000  Tot=              0.5013
 Quadrupole moment (field-independent basis, Debye-Ang):
   XX=             -7.9834   YY=              2.4146   ZZ=            -14.7093
   XY=             -0.5025   XZ=              0.0000   YZ=              0.0000

 Normal termination of Gaussian 16 at Sat Aug 27 07:45:14 2022.
