 Gaussian 16, Revision A.03,
 Gaussian 16:  ES64L-G16RevA.03 25-Dec-2016

 ------------------
 #p CCSD(T)/cc-pVTZ
 ------------------

 ------------
 H2O_H2O_1822
 ------------
 Symbolic Z-matrix:
 Charge =  0 Multiplicity = 1

                         Standard orientation:
 ---------------------------------------------------------------------
 Center     Atomic      Atomic             Coordinates (Angstroms)
 Number     Number       Type             X           Y           Z
 ---------------------------------------------------------------------
      1          8           0        0.056762   -1.707135    0.000000
      2          1           0       -0.744391   -2.276046    0.000000
      3          1           0        0.854745   -2.280484    0.000000
      4          8           0        0.056762    1.806137    0.000000
      5          1           0       -0.402710    2.674695    0.000000
      6          1           0       -0.615839    1.089818    0.000000
 ---------------------------------------------------------------------

 SCF Done:  E(RHF) =  -152.108900824     A.U. after   10 cycles
 E2 =    -0.5265382219D+00 EUMP2 =    -0.15263543904640D+03
 CCSD(T)
 CCSD(T)= -0.15266257130D+03

 The electronic state is 1-A'.
 Alpha  occ. eigenvalues --  -20.56159 -20.53908  -1.33427  -1.31206  -0.70833
 Alpha  occ. eigenvalues --   -0.68581  -0.56888  -0.54679  -0.50548  -0.48339
 Alpha virt. eigenvalues --    0.13045   0.16596   0.19750   0.24016   0.53299
 Alpha virt. eigenvalues --    0.55424   0.56693   0.58244   0.66496   0.74992
 Alpha virt. eigenvalues --    0.77537   0.77833   0.79312   0.80891   0.84360

 Mulliken charges:
               1
     1  O   -0.498495
     2  H    0.247207
     3  H    0.258043
     4  O   -0.512526
     5  H    0.242495
     6  H    0.263276
 Sum of Mulliken charges =  -0.00000

 Dipole moment (field-independent basis, Debye):
    X=             -1.8956    Y=             -1.8710    Z=              0.0000  Tot=              2.6634
 Quadrupole moment (field-independent basis, Debye-Ang):
   XX=             -9.8267   YY=             -2.2348   ZZ=            -14.7202
   XY=             -3.4635   XZ=              0.0000   YZ=              0.0000

 Normal termination of Gaussian 16 at Sat Aug 27 06:58:59 2022.
