 Gaussian 16, Revision A.03,
 Gaussian 16:  ES64L-G16RevA.03 25-Dec-2016

 ------------------
 #p CCSD(T)/cc-pVTZ
 ------------------

 ------------
 H2O_H2O_2999
 ------------
 Symbolic Z-matrix:
 Charge =  0 Multiplicity = 1

                         Standard orientation:
 ---------------------------------------------------------------------
 Center     Atomic      Atomic             Coordinates (Angstroms)
 Number     Number       Type             X           Y           Z
 ---------------------------------------------------------------------
      1          8           0        0.057231   -2.323905    0.000000
      2          1           0       -0.743518   -2.893385    0.000000
      3          1           0        0.855621   -2.896687    0.000000
      4          8           0        0.057231    2.437896    0.000000
      5          1           0       -0.512249    3.238645    0.000000
      6          1           0       -0.515551    1.639506    0.000000
 ---------------------------------------------------------------------

 SCF Done:  E(RHF) =  -152.108248657     A.U. after   10 cycles
 E2 =    -0.5259320169D+00 EUMP2 =    -0.15263418067365D+03
 CCSD(T)
 CCSD(T)= -0.15266136872D+03

 The electronic state is 1-A'.
 Alpha  occ. eigenvalues --  -20.55961 -20.54706  -1.33252  -1.32008  -0.70657
 Alpha  occ. eigenvalues --   -0.69392  -0.56730  -0.55471  -0.50370  -0.49130
 Alpha virt. eigenvalues --    0.13205   0.15376   0.19879   0.21568   0.53880
 Alpha virt. eigenvalues --    0.54866   0.56907   0.58008   0.66682   0.70257
 Alpha virt. eigenvalues --    0.78526   0.79510   0.79722   0.80189   0.82815

 Mulliken charges:
               1
     1  O   -0.511363
     2  H    0.253531
     3  H    0.258696
     4  O   -0.512078
     5  H    0.249946
     6  H    0.261269
 Sum of Mulliken charges =  -0.00000

 Dipole moment (field-independent basis, Debye):
    X=             -1.9539    Y=             -2.0367    Z=              0.0000  Tot=              2.8224
 Quadrupole moment (field-independent basis, Debye-Ang):
   XX=             -9.8622   YY=             -0.5824   ZZ=            -14.7151
   XY=             -4.9564   XZ=              0.0000   YZ=              0.0000

 Normal termination of Gaussian 16 at Fri Aug 26 18:17:58 2022.
