 Gaussian 16, Revision A.03,
 Gaussian 16:  ES64L-G16RevA.03 25-Dec-2016

 ------------------
 #p CCSD(T)/cc-pVTZ
 ------------------

 ------------
 H2O_H2O_2175
 ------------
 Symbolic Z-matrix:
 Charge =  0 Multiplicity = 1

                         Standard orientation:
 ---------------------------------------------------------------------
 Center     Atomic      Atomic             Coordinates (Angstroms)
 Number     Number       Type             X           Y           Z
 ---------------------------------------------------------------------
      1          8           0        0.000000   -0.000000    1.960343
      2          1           0        0.000000    0.799571    2.531475
      3          1           0       -0.000000   -0.799571    2.531475
      4          8           0        0.000000   -0.000000   -1.960343
      5          1           0       -0.000000   -0.799571   -2.531475
      6          1           0        0.000000    0.799571   -2.531475
 ---------------------------------------------------------------------

 SCF Done:  E(RHF) =  -152.104960051     A.U. after   10 cycles
 E2 =    -0.5263381304D+00 EUMP2 =    -0.15263129818091D+03
 CCSD(T)
 CCSD(T)= -0.15265854840D+03

 The electronic state is 1-AG.
 Alpha  occ. eigenvalues --  -20.54522 -20.54522  -1.31813  -1.31795  -0.69232
 Alpha  occ. eigenvalues --   -0.69213  -0.55331  -0.54890  -0.48929  -0.48871
 Alpha virt. eigenvalues --    0.14219   0.15681   0.20637   0.21149   0.54284
 Alpha virt. eigenvalues --    0.56420   0.57911   0.58196   0.61842   0.74945
 Alpha virt. eigenvalues --    0.79494   0.80417   0.80736   0.81088   0.82156

 Mulliken charges:
               1
     1  O   -0.492856
     2  H    0.246428
     3  H    0.246428
     4  O   -0.492856
     5  H    0.246428
     6  H    0.246428
 Sum of Mulliken charges =  -0.00000

 Dipole moment (field-independent basis, Debye):
    X=             -0.0000    Y=              0.0000    Z=             -0.0000  Tot=              0.0000
 Quadrupole moment (field-independent basis, Debye-Ang):
   XX=            -14.7092   YY=             -7.8390   ZZ=              3.5277
   XY=              0.0000   XZ=              0.0000   YZ=             -0.0000

 2\MP4DQ=-152.6403675\MP4SDQ=-152.6434541\CCSD=-152.6428539\CCSD(T)=-15
 Normal termination of Gaussian 16 at Sat Aug 27 09:01:32 2022.
