 Gaussian 16, Revision A.03,
 Gaussian 16:  ES64L-G16RevA.03 25-Dec-2016

 ------------------
 #p CCSD(T)/cc-pVTZ
 ------------------

 ------------
 H2O_H2O_1733
 ------------
 Symbolic Z-matrix:
 Charge =  0 Multiplicity = 1

                         Standard orientation:
 ---------------------------------------------------------------------
 Center     Atomic      Atomic             Coordinates (Angstroms)
 Number     Number       Type             X           Y           Z
 ---------------------------------------------------------------------
      1          8           0        0.028567   -1.712749    0.000000
      2          1           0       -0.771819   -2.282738    0.000000
      3          1           0        0.827321   -2.285023    0.000000
      4          8           0        0.028567    1.727971    0.000000
      5          1           0        0.436729    2.621788    0.000000
      6          1           0       -0.949311    1.824197    0.000000
 ---------------------------------------------------------------------

 SCF Done:  E(RHF) =  -152.104455485     A.U. after   10 cycles
 E2 =    -0.5267125800D+00 EUMP2 =    -0.15263116806472D+03
 CCSD(T)
 CCSD(T)= -0.15265840960D+03

 The electronic state is 1-A'.
 Alpha  occ. eigenvalues --  -20.54512 -20.54202  -1.31794  -1.31468  -0.69219
 Alpha  occ. eigenvalues --   -0.68879  -0.55441  -0.54363  -0.48909  -0.48546
 Alpha virt. eigenvalues --    0.14063   0.16223   0.20475   0.21662   0.53015
 Alpha virt. eigenvalues --    0.56572   0.58011   0.58498   0.62892   0.76653
 Alpha virt. eigenvalues --    0.78744   0.78928   0.80168   0.81342   0.84358

 Mulliken charges:
               1
     1  O   -0.486043
     2  H    0.240030
     3  H    0.246640
     4  O   -0.486036
     5  H    0.238672
     6  H    0.246737
 Sum of Mulliken charges =  -0.00000

 Dipole moment (field-independent basis, Debye):
    X=             -0.9516    Y=             -0.2833    Z=              0.0000  Tot=              0.9929
 Quadrupole moment (field-independent basis, Debye-Ang):
   XX=             -8.3625   YY=              1.1025   ZZ=            -14.7101
   XY=             -0.9582   XZ=              0.0000   YZ=              0.0000

 Normal termination of Gaussian 16 at Sat Aug 27 06:28:43 2022.
