 Gaussian 16, Revision A.03,
 Gaussian 16:  ES64L-G16RevA.03 25-Dec-2016

 ------------------
 #p CCSD(T)/cc-pVTZ
 ------------------

 -----------
 H2O_H2O_996
 -----------
 Symbolic Z-matrix:
 Charge =  0 Multiplicity = 1

                         Standard orientation:
 ---------------------------------------------------------------------
 Center     Atomic      Atomic             Coordinates (Angstroms)
 Number     Number       Type             X           Y           Z
 ---------------------------------------------------------------------
      1          8           0        0.056184   -1.272425    0.000000
      2          1           0       -0.745471   -1.840628    0.000000
      3          1           0        0.853660   -1.846478    0.000000
      4          8           0        0.056184    1.363957    0.000000
      5          1           0       -0.344706    2.261059    0.000000
      6          1           0       -0.662420    0.693795    0.000000
 ---------------------------------------------------------------------

 SCF Done:  E(RHF) =  -152.104238318     A.U. after   10 cycles
 E2 =    -0.5289910163D+00 EUMP2 =    -0.15263322933463D+03
 CCSD(T)
 CCSD(T)= -0.15266026804D+03

 The electronic state is 1-A'.
 Alpha  occ. eigenvalues --  -20.56247 -20.52572  -1.33813  -1.29924  -0.71195
 Alpha  occ. eigenvalues --   -0.68032  -0.56481  -0.53409  -0.50887  -0.47010
 Alpha virt. eigenvalues --    0.13201   0.17788   0.19608   0.25352   0.51706
 Alpha virt. eigenvalues --    0.56547   0.58758   0.59995   0.70951   0.74153
 Alpha virt. eigenvalues --    0.75508   0.81133   0.82664   0.84102   0.84398

 Mulliken charges:
               1
     1  O   -0.474879
     2  H    0.237140
     3  H    0.254576
     4  O   -0.503247
     5  H    0.224402
     6  H    0.262008
 Sum of Mulliken charges =  -0.00000

 Dipole moment (field-independent basis, Debye):
    X=             -1.7833    Y=             -1.8708    Z=              0.0000  Tot=              2.5846
 Quadrupole moment (field-independent basis, Debye-Ang):
   XX=             -9.7975   YY=             -4.2594   ZZ=            -14.7244
   XY=             -2.4931   XZ=              0.0000   YZ=              0.0000

 Normal termination of Gaussian 16 at Sat Aug 27 01:15:13 2022.
