 Gaussian 16, Revision A.03,
 Gaussian 16:  ES64L-G16RevA.03 25-Dec-2016

 ------------------
 #p CCSD(T)/cc-pVTZ
 ------------------

 ------------
 H2O_H2O_3638
 ------------
 Symbolic Z-matrix:
 Charge =  0 Multiplicity = 1

                         Standard orientation:
 ---------------------------------------------------------------------
 Center     Atomic      Atomic             Coordinates (Angstroms)
 Number     Number       Type             X           Y           Z
 ---------------------------------------------------------------------
      1          8           0        0.042966   -2.710436    0.000000
      2          1           0       -0.757377   -3.280485    0.000000
      3          1           0        0.841763   -3.282650    0.000000
      4          8           0        0.042966    2.749231    0.000000
      5          1           0        0.142084    3.726821    0.000000
      6          1           0       -0.913931    2.525951    0.000000
 ---------------------------------------------------------------------

 SCF Done:  E(RHF) =  -152.106921050     A.U. after   10 cycles
 E2 =    -0.5259412148D+00 EUMP2 =    -0.15263286226487D+03
 CCSD(T)
 CCSD(T)= -0.15266009149D+03

 The electronic state is 1-A'.
 Alpha  occ. eigenvalues --  -20.55313 -20.55009  -1.32610  -1.32303  -0.70018
 Alpha  occ. eigenvalues --   -0.69703  -0.56034  -0.55728  -0.49718  -0.49413
 Alpha virt. eigenvalues --    0.14231   0.14704   0.20350   0.20719   0.54532
 Alpha virt. eigenvalues --    0.54882   0.57423   0.57730   0.67896   0.68826
 Alpha virt. eigenvalues --    0.79161   0.79461   0.80595   0.80916   0.82583

 Mulliken charges:
               1
     1  O   -0.506032
     2  H    0.251545
     3  H    0.254494
     4  O   -0.505715
     5  H    0.250548
     6  H    0.255160
 Sum of Mulliken charges =  -0.00000

 Dipole moment (field-independent basis, Debye):
    X=             -1.4724    Y=             -0.6816    Z=              0.0000  Tot=              1.6225
 Quadrupole moment (field-independent basis, Debye-Ang):
   XX=             -8.9662   YY=              7.1972   ZZ=            -14.7112
   XY=             -3.2151   XZ=              0.0000   YZ=              0.0000

 Normal termination of Gaussian 16 at Sat Aug 27 02:07:30 2022.
