 Gaussian 16, Revision A.03,
 Gaussian 16:  ES64L-G16RevA.03 25-Dec-2016

 ------------------
 #p CCSD(T)/cc-pVTZ
 ------------------

 ------------
 H2O_H2O_1017
 ------------
 Symbolic Z-matrix:
 Charge =  0 Multiplicity = 1

                         Standard orientation:
 ---------------------------------------------------------------------
 Center     Atomic      Atomic             Coordinates (Angstroms)
 Number     Number       Type             X           Y           Z
 ---------------------------------------------------------------------
      1          8           0        0.051328   -1.301018    0.000000
      2          1           0       -0.750128   -1.869501    0.000000
      3          1           0        0.849005   -1.874792    0.000000
      4          8           0        0.051328    1.364384    0.000000
      5          1           0       -0.104053    2.334622    0.000000
      6          1           0       -0.816078    0.902742    0.000000
 ---------------------------------------------------------------------

 SCF Done:  E(RHF) =  -152.102521996     A.U. after   10 cycles
 E2 =    -0.5285128414D+00 EUMP2 =    -0.15263103483757D+03
 CCSD(T)
 CCSD(T)= -0.15265819233D+03

 The electronic state is 1-A'.
 Alpha  occ. eigenvalues --  -20.55259 -20.53073  -1.32747  -1.30328  -0.70158
 Alpha  occ. eigenvalues --   -0.68011  -0.56180  -0.53202  -0.49871  -0.47380
 Alpha virt. eigenvalues --    0.13629   0.17395   0.19945   0.23855   0.53109
 Alpha virt. eigenvalues --    0.57326   0.58560   0.58727   0.70487   0.75286
 Alpha virt. eigenvalues --    0.76366   0.79066   0.82307   0.82823   0.84905

 Mulliken charges:
               1
     1  O   -0.476071
     2  H    0.233376
     3  H    0.251197
     4  O   -0.481802
     5  H    0.221436
     6  H    0.251865
 Sum of Mulliken charges =  -0.00000

 Dipole moment (field-independent basis, Debye):
    X=             -1.6308    Y=             -1.2510    Z=              0.0000  Tot=              2.0553
 Quadrupole moment (field-independent basis, Debye-Ang):
   XX=             -9.5086   YY=             -3.2114   ZZ=            -14.7237
   XY=             -1.8470   XZ=              0.0000   YZ=              0.0000

 Normal termination of Gaussian 16 at Sat Aug 27 01:24:55 2022.
