 Gaussian 16, Revision A.03,
 Gaussian 16:  ES64L-G16RevA.03 25-Dec-2016

 ------------------
 #p CCSD(T)/cc-pVTZ
 ------------------

 ------------
 H2O_H2O_1182
 ------------
 Symbolic Z-matrix:
 Charge =  0 Multiplicity = 1

                         Standard orientation:
 ---------------------------------------------------------------------
 Center     Atomic      Atomic             Coordinates (Angstroms)
 Number     Number       Type             X           Y           Z
 ---------------------------------------------------------------------
      1          8           0        0.025269   -1.422150    0.000000
      2          1           0       -0.775170   -1.992064    0.000000
      3          1           0        0.823970   -1.994499    0.000000
      4          8           0        0.025269    1.433853    0.000000
      5          1           0        0.491095    2.299018    0.000000
      6          1           0       -0.944207    1.593921    0.000000
 ---------------------------------------------------------------------

 SCF Done:  E(RHF) =  -152.100660660     A.U. after   11 cycles
 E2 =    -0.5277498372D+00 EUMP2 =    -0.15262841049741D+03
 CCSD(T)
 CCSD(T)= -0.15265569695D+03

 The electronic state is 1-A'.
 Alpha  occ. eigenvalues --  -20.53938 -20.53631  -1.31352  -1.30867  -0.68758
 Alpha  occ. eigenvalues --   -0.68328  -0.55893  -0.52594  -0.48556  -0.47813
 Alpha virt. eigenvalues --    0.14280   0.16901   0.20487   0.22182   0.52035
 Alpha virt. eigenvalues --    0.58364   0.58661   0.60030   0.68348   0.76527
 Alpha virt. eigenvalues --    0.77192   0.78231   0.79974   0.83078   0.86021

 Mulliken charges:
               1
     1  O   -0.472817
     2  H    0.231810
     3  H    0.241011
     4  O   -0.467236
     5  H    0.228508
     6  H    0.238723
 Sum of Mulliken charges =  -0.00000

 Dipole moment (field-independent basis, Debye):
    X=             -0.8175    Y=             -0.2227    Z=              0.0000  Tot=              0.8473
 Quadrupole moment (field-independent basis, Debye-Ang):
   XX=             -8.3048   YY=             -1.2755   ZZ=            -14.7139
   XY=             -0.5811   XZ=              0.0000   YZ=              0.0000

 Normal termination of Gaussian 16 at Sat Aug 27 02:47:41 2022.
