 Gaussian 16, Revision A.03,
 Gaussian 16:  ES64L-G16RevA.03 25-Dec-2016

 ------------------
 #p CCSD(T)/cc-pVTZ
 ------------------

 ------------
 H2O_H2O_3207
 ------------
 Symbolic Z-matrix:
 Charge =  0 Multiplicity = 1

                         Standard orientation:
 ---------------------------------------------------------------------
 Center     Atomic      Atomic             Coordinates (Angstroms)
 Number     Number       Type             X           Y           Z
 ---------------------------------------------------------------------
      1          8           0        0.025266   -2.499101    0.000000
      2          1           0       -0.774801   -3.069539    0.000000
      3          1           0        0.824341   -3.070927    0.000000
      4          8           0        0.025266    2.510837    0.000000
      5          1           0        0.490525    3.376308    0.000000
      6          1           0       -0.944315    2.670271    0.000000
 ---------------------------------------------------------------------

 SCF Done:  E(RHF) =  -152.106339608     A.U. after   10 cycles
 E2 =    -0.5260083002D+00 EUMP2 =    -0.15263234790778D+03
 CCSD(T)
 CCSD(T)= -0.15265958850D+03

 The electronic state is 1-A'.
 Alpha  occ. eigenvalues --  -20.55023 -20.54915  -1.32317  -1.32207  -0.69726
 Alpha  occ. eigenvalues --   -0.69613  -0.55714  -0.55602  -0.49421  -0.49312
 Alpha virt. eigenvalues --    0.14367   0.14858   0.20530   0.20752   0.54765
 Alpha virt. eigenvalues --    0.55028   0.57659   0.57792   0.67502   0.69758
 Alpha virt. eigenvalues --    0.79453   0.79566   0.80880   0.81061   0.82723

 Mulliken charges:
               1
     1  O   -0.502594
     2  H    0.250199
     3  H    0.252401
     4  O   -0.502397
     5  H    0.249703
     6  H    0.252688
 Sum of Mulliken charges =  -0.00000

 Dipole moment (field-independent basis, Debye):
    X=             -0.8634    Y=             -0.2070    Z=              0.0000  Tot=              0.8879
 Quadrupole moment (field-independent basis, Debye-Ang):
   XX=             -8.2131   YY=              7.3343   ZZ=            -14.7102
   XY=             -1.4831   XZ=              0.0000   YZ=              0.0000

 Normal termination of Gaussian 16 at Fri Aug 26 20:22:30 2022.
