 Gaussian 16, Revision A.03,
 Gaussian 16:  ES64L-G16RevA.03 25-Dec-2016

 ------------------
 #p CCSD(T)/cc-pVTZ
 ------------------

 ------------
 H2O_H2O_2397
 ------------
 Symbolic Z-matrix:
 Charge =  0 Multiplicity = 1

                         Standard orientation:
 ---------------------------------------------------------------------
 Center     Atomic      Atomic             Coordinates (Angstroms)
 Number     Number       Type             X           Y           Z
 ---------------------------------------------------------------------
      1          8           0        0.056742   -2.012917    0.000000
      2          1           0       -0.744177   -2.582157    0.000000
      3          1           0        0.854961   -2.585937    0.000000
      4          8           0        0.056742    2.111966    0.000000
      5          1           0       -0.403088    2.980334    0.000000
      6          1           0       -0.615565    1.395370    0.000000
 ---------------------------------------------------------------------

 SCF Done:  E(RHF) =  -152.108340055     A.U. after   10 cycles
 E2 =    -0.5261139772D+00 EUMP2 =    -0.15263445403218D+03
 CCSD(T)
 CCSD(T)= -0.15266162390D+03

 The electronic state is 1-A'.
 Alpha  occ. eigenvalues --  -20.55949 -20.54406  -1.33227  -1.31704  -0.70633
 Alpha  occ. eigenvalues --   -0.69076  -0.56693  -0.55165  -0.50345  -0.48829
 Alpha virt. eigenvalues --    0.13056   0.15908   0.19875   0.22471   0.54005
 Alpha virt. eigenvalues --    0.54736   0.56943   0.58483   0.66277   0.73075
 Alpha virt. eigenvalues --    0.78489   0.79343   0.80062   0.81335   0.82340

 Mulliken charges:
               1
     1  O   -0.506545
     2  H    0.250782
     3  H    0.258323
     4  O   -0.511783
     5  H    0.247082
     6  H    0.262140
 Sum of Mulliken charges =   0.00000

 Dipole moment (field-independent basis, Debye):
    X=             -1.9222    Y=             -1.8077    Z=              0.0000  Tot=              2.6387
 Quadrupole moment (field-independent basis, Debye-Ang):
   XX=             -9.8255   YY=             -0.8074   ZZ=            -14.7163
   XY=             -4.0413   XZ=              0.0000   YZ=              0.0000

 Normal termination of Gaussian 16 at Sat Aug 27 10:20:04 2022.
