 Gaussian 16, Revision A.03,
 Gaussian 16:  ES64L-G16RevA.03 25-Dec-2016

 ------------------
 #p CCSD(T)/cc-pVTZ
 ------------------

 ------------
 H2O_H2O_4919
 ------------
 Symbolic Z-matrix:
 Charge =  0 Multiplicity = 1

                         Standard orientation:
 ---------------------------------------------------------------------
 Center     Atomic      Atomic             Coordinates (Angstroms)
 Number     Number       Type             X           Y           Z
 ---------------------------------------------------------------------
      1          8           0        0.054135   -3.367583    0.000000
      2          1           0       -0.746216   -3.937622    0.000000
      3          1           0        0.852925   -3.939808    0.000000
      4          8           0        0.054135    3.444945    0.000000
      5          1           0       -0.228388    4.386054    0.000000
      6          1           0       -0.744484    2.872482    0.000000
 ---------------------------------------------------------------------

 SCF Done:  E(RHF) =  -152.107434631     A.U. after   10 cycles
 E2 =    -0.5258721393D+00 EUMP2 =    -0.15263330676996D+03
 CCSD(T)
 CCSD(T)= -0.15266052660D+03

 The electronic state is 1-A'.
 Alpha  occ. eigenvalues --  -20.55606 -20.55224  -1.32905  -1.32523  -0.70311
 Alpha  occ. eigenvalues --   -0.69924  -0.56354  -0.55969  -0.50017  -0.49636
 Alpha virt. eigenvalues --    0.14072   0.14454   0.20148   0.20551   0.54250
 Alpha virt. eigenvalues --    0.54648   0.57171   0.57553   0.67833   0.68226
 Alpha virt. eigenvalues --    0.78862   0.79239   0.80293   0.80698   0.82217

 Mulliken charges:
               1
     1  O   -0.509039
     2  H    0.253572
     3  H    0.255467
     4  O   -0.508834
     5  H    0.252620
     6  H    0.256213
 Sum of Mulliken charges =   0.00000

 Dipole moment (field-independent basis, Debye):
    X=             -1.8625    Y=             -1.3485    Z=              0.0000  Tot=              2.2994
 Quadrupole moment (field-independent basis, Debye-Ang):
   XX=             -9.6491   YY=              7.7241   ZZ=            -14.7120
   XY=             -5.9576   XZ=              0.0000   YZ=              0.0000

 Normal termination of Gaussian 16 at Sat Aug 27 10:07:34 2022.
