 Gaussian 16, Revision A.03,
 Gaussian 16:  ES64L-G16RevA.03 25-Dec-2016

 ------------------
 #p CCSD(T)/cc-pVTZ
 ------------------

 ----------
 H2O_H2O_33
 ----------
 Symbolic Z-matrix:
 Charge =  0 Multiplicity = 1

                         Standard orientation:
 ---------------------------------------------------------------------
 Center     Atomic      Atomic             Coordinates (Angstroms)
 Number     Number       Type             X           Y           Z
 ---------------------------------------------------------------------
      1          8           0        0.028579   -0.808674    0.000000
      2          1           0       -0.772708   -1.377395    0.000000
      3          1           0        0.826427   -1.382212    0.000000
      4          8           0        0.028579    0.823805    0.000000
      5          1           0        0.438156    1.716977    0.000000
      6          1           0       -0.949145    0.921580    0.000000
 ---------------------------------------------------------------------

 SCF Done:  E(RHF) =  -151.929358620     A.U. after   12 cycles
 E2 =    -0.5505371935D+00 EUMP2 =    -0.15247989581298D+03
 CCSD(T)
 CCSD(T)= -0.15250443466D+03

 The electronic state is 1-A'.
 Alpha  occ. eigenvalues --  -20.51989 -20.51532  -1.37345  -1.26815  -0.72510
 Alpha  occ. eigenvalues --   -0.69280  -0.62869  -0.53233  -0.43233  -0.34189
 Alpha virt. eigenvalues --    0.14189   0.19274   0.19889   0.23414   0.52996
 Alpha virt. eigenvalues --    0.56109   0.58848   0.65666   0.71075   0.78408
 Alpha virt. eigenvalues --    0.79775   0.83015   0.83156   0.84857   0.88805

 Mulliken charges:
               1
     1  O   -0.346001
     2  H    0.162403
     3  H    0.186019
     4  O   -0.328963
     5  H    0.106296
     6  H    0.220245
 Sum of Mulliken charges =   0.00000

 Dipole moment (field-independent basis, Debye):
    X=             -0.7937    Y=             -0.4023    Z=              0.0000  Tot=              0.8898
 Quadrupole moment (field-independent basis, Debye-Ang):
   XX=             -8.8386   YY=             -9.0954   ZZ=            -14.7227
   XY=             -0.4134   XZ=              0.0000   YZ=              0.0000

 Normal termination of Gaussian 16 at Fri Aug 26 12:07:21 2022.
