 Gaussian 16, Revision A.03,
 Gaussian 16:  ES64L-G16RevA.03 25-Dec-2016

 ------------------
 #p CCSD(T)/cc-pVTZ
 ------------------

 -----------
 H2O_H2O_312
 -----------
 Symbolic Z-matrix:
 Charge =  0 Multiplicity = 1

                         Standard orientation:
 ---------------------------------------------------------------------
 Center     Atomic      Atomic             Coordinates (Angstroms)
 Number     Number       Type             X           Y           Z
 ---------------------------------------------------------------------
      1          8           0        0.040445   -0.945134    0.000000
      2          1           0       -0.761185   -1.513372    0.000000
      3          1           0        0.837947   -1.519153    0.000000
      4          8           0        0.040445    0.978298    0.000000
      5          1           0        0.205479    1.946941    0.000000
      6          1           0       -0.929366    0.820272    0.000000
 ---------------------------------------------------------------------

 SCF Done:  E(RHF) =  -152.041666993     A.U. after   11 cycles
 E2 =    -0.5371468487D+00 EUMP2 =    -0.15257881384217D+03
 CCSD(T)
 CCSD(T)= -0.15260541311D+03

 The electronic state is 1-A'.
 Alpha  occ. eigenvalues --  -20.52872 -20.51700  -1.33495  -1.28248  -0.70439
 Alpha  occ. eigenvalues --   -0.67858  -0.58980  -0.50372  -0.44870  -0.44443
 Alpha virt. eigenvalues --    0.14222   0.18351   0.20052   0.23641   0.53357
 Alpha virt. eigenvalues --    0.57087   0.58486   0.64111   0.71824   0.76935
 Alpha virt. eigenvalues --    0.80028   0.82016   0.83284   0.85185   0.88405

 Mulliken charges:
               1
     1  O   -0.423332
     2  H    0.200765
     3  H    0.221626
     4  O   -0.396762
     5  H    0.163348
     6  H    0.234355
 Sum of Mulliken charges =  -0.00000

 Dipole moment (field-independent basis, Debye):
    X=             -1.1504    Y=             -0.6946    Z=              0.0000  Tot=              1.3438
 Quadrupole moment (field-independent basis, Debye-Ang):
   XX=             -9.0584   YY=             -6.3208   ZZ=            -14.7139
   XY=             -0.6414   XZ=              0.0000   YZ=              0.0000

 39282\MP4DQ=-152.58563\MP4SDQ=-152.5892253\CCSD=-152.5884032\CCSD(T)=-
 Normal termination of Gaussian 16 at Fri Aug 26 15:09:29 2022.
