 Gaussian 16, Revision A.03,
 Gaussian 16:  ES64L-G16RevA.03 25-Dec-2016

 ------------------
 #p CCSD(T)/cc-pVTZ
 ------------------

 ------------
 H2O_H2O_4860
 ------------
 Symbolic Z-matrix:
 Charge =  0 Multiplicity = 1

                         Standard orientation:
 ---------------------------------------------------------------------
 Center     Atomic      Atomic             Coordinates (Angstroms)
 Number     Number       Type             X           Y           Z
 ---------------------------------------------------------------------
      1          8           0        0.034779   -3.370219    0.000000
      2          1           0       -0.765297   -3.940644    0.000000
      3          1           0        0.833844   -3.942059    0.000000
      4          8           0        0.034779    3.393762    0.000000
      5          1           0        0.322270    4.333366    0.000000
      6          1           0       -0.947277    3.360992    0.000000
 ---------------------------------------------------------------------

 SCF Done:  E(RHF) =  -152.107086742     A.U. after   10 cycles
 E2 =    -0.5259029973D+00 EUMP2 =    -0.15263298973891D+03
 CCSD(T)
 CCSD(T)= -0.15266021698D+03

 The electronic state is 1-A'.
 Alpha  occ. eigenvalues --  -20.55357 -20.55239  -1.32654  -1.32535  -0.70061
 Alpha  occ. eigenvalues --   -0.69940  -0.56087  -0.55968  -0.49763  -0.49645
 Alpha virt. eigenvalues --    0.14293   0.14412   0.20351   0.20475   0.54505
 Alpha virt. eigenvalues --    0.54632   0.57395   0.57513   0.68127   0.68248
 Alpha virt. eigenvalues --    0.79116   0.79233   0.80554   0.80682   0.82479

 Mulliken charges:
               1
     1  O   -0.506974
     2  H    0.252840
     3  H    0.254134
     4  O   -0.506889
     5  H    0.252447
     6  H    0.254442
 Sum of Mulliken charges =  -0.00000

 Dipole moment (field-independent basis, Debye):
    X=             -1.1962    Y=             -0.4102    Z=              0.0000  Tot=              1.2645
 Quadrupole moment (field-independent basis, Debye-Ang):
   XX=             -8.5631   YY=             12.9619   ZZ=            -14.7112
   XY=             -3.2078   XZ=              0.0000   YZ=              0.0000

 Normal termination of Gaussian 16 at Sat Aug 27 09:44:47 2022.
