 Gaussian 16, Revision A.03,
 Gaussian 16:  ES64L-G16RevA.03 25-Dec-2016

 ------------------
 #p CCSD(T)/cc-pVTZ
 ------------------

 ------------
 H2O_H2O_2197
 ------------
 Symbolic Z-matrix:
 Charge =  0 Multiplicity = 1

                         Standard orientation:
 ---------------------------------------------------------------------
 Center     Atomic      Atomic             Coordinates (Angstroms)
 Number     Number       Type             X           Y           Z
 ---------------------------------------------------------------------
      1          8           0        0.056748   -1.906557    0.000000
      2          1           0       -0.744244   -2.475695    0.000000
      3          1           0        0.854893   -2.479680    0.000000
      4          8           0        0.056748    2.005591    0.000000
      5          1           0       -0.402970    2.874019    0.000000
      6          1           0       -0.615650    1.289082    0.000000
 ---------------------------------------------------------------------

 SCF Done:  E(RHF) =  -152.108531179     A.U. after   10 cycles
 E2 =    -0.5262170156D+00 EUMP2 =    -0.15263474819512D+03
 CCSD(T)
 CCSD(T)= -0.15266190606D+03

 The electronic state is 1-A'.
 Alpha  occ. eigenvalues --  -20.56012 -20.54260  -1.33284  -1.31557  -0.70691
 Alpha  occ. eigenvalues --   -0.68925  -0.56752  -0.55021  -0.50404  -0.48685
 Alpha virt. eigenvalues --    0.13027   0.16133   0.19837   0.22977   0.53873
 Alpha virt. eigenvalues --    0.54905   0.56877   0.58563   0.66161   0.73853
 Alpha virt. eigenvalues --    0.78313   0.79206   0.80272   0.80588   0.83296

 Mulliken charges:
               1
     1  O   -0.504277
     2  H    0.249749
     3  H    0.258206
     4  O   -0.512237
     5  H    0.245821
     6  H    0.262738
 Sum of Mulliken charges =  -0.00000

 Dipole moment (field-independent basis, Debye):
    X=             -1.9149    Y=             -1.8263    Z=              0.0000  Tot=              2.6461
 Quadrupole moment (field-independent basis, Debye-Ang):
   XX=             -9.8256   YY=             -1.2966   ZZ=            -14.7174
   XY=             -3.8396   XZ=              0.0000   YZ=              0.0000

 Normal termination of Gaussian 16 at Sat Aug 27 09:09:36 2022.
