 Gaussian 16, Revision A.03,
 Gaussian 16:  ES64L-G16RevA.03 25-Dec-2016

 ------------------
 #p CCSD(T)/cc-pVTZ
 ------------------

 -----------
 H2O_H2O_458
 -----------
 Symbolic Z-matrix:
 Charge =  0 Multiplicity = 1

                         Standard orientation:
 ---------------------------------------------------------------------
 Center     Atomic      Atomic             Coordinates (Angstroms)
 Number     Number       Type             X           Y           Z
 ---------------------------------------------------------------------
      1          8           0        0.028575   -1.034685    0.000000
      2          1           0       -0.772341   -1.603929    0.000000
      3          1           0        0.826796   -1.607702    0.000000
      4          8           0        0.028575    1.049854    0.000000
      5          1           0        0.437567    1.943292    0.000000
      6          1           0       -0.949214    1.146989    0.000000
 ---------------------------------------------------------------------

 SCF Done:  E(RHF) =  -152.065695565     A.U. after   11 cycles
 E2 =    -0.5335630982D+00 EUMP2 =    -0.15259925866356D+03
 CCSD(T)
 CCSD(T)= -0.15262622353D+03

 The electronic state is 1-A'.
 Alpha  occ. eigenvalues --  -20.52601 -20.52110  -1.31956  -1.28947  -0.68899
 Alpha  occ. eigenvalues --   -0.67122  -0.59333  -0.49178  -0.45983  -0.45515
 Alpha virt. eigenvalues --    0.14469   0.18039   0.20370   0.23090   0.52090
 Alpha virt. eigenvalues --    0.58276   0.58670   0.64305   0.70371   0.77073
 Alpha virt. eigenvalues --    0.78352   0.82076   0.83921   0.86260   0.87715

 Mulliken charges:
               1
     1  O   -0.446370
     2  H    0.213782
     3  H    0.230195
     4  O   -0.420431
     5  H    0.188895
     6  H    0.233928
 Sum of Mulliken charges =  -0.00000

 Dipole moment (field-independent basis, Debye):
    X=             -0.8425    Y=             -0.3099    Z=              0.0000  Tot=              0.8977
 Quadrupole moment (field-independent basis, Debye-Ang):
   XX=             -8.5695   YY=             -5.2088   ZZ=            -14.7374
   XY=             -0.3750   XZ=              0.0000   YZ=              0.0000

 50043\MP4DQ=-152.6068761\MP4SDQ=-152.6103282\CCSD=-152.609584\CCSD(T)=
 Normal termination of Gaussian 16 at Fri Aug 26 16:39:14 2022.
