 Gaussian 16, Revision A.03,
 Gaussian 16:  ES64L-G16RevA.03 25-Dec-2016

 ------------------
 #p CCSD(T)/cc-pVTZ
 ------------------

 ------------
 H2O_H2O_3971
 ------------
 Symbolic Z-matrix:
 Charge =  0 Multiplicity = 1

                         Standard orientation:
 ---------------------------------------------------------------------
 Center     Atomic      Atomic             Coordinates (Angstroms)
 Number     Number       Type             X           Y           Z
 ---------------------------------------------------------------------
      1          8           0        0.056092   -2.854521    0.000000
      2          1           0       -0.744427   -3.424323    0.000000
      3          1           0        0.854713   -3.426982    0.000000
      4          8           0        0.056092    2.946277    0.000000
      5          1           0       -0.346587    3.842578    0.000000
      6          1           0       -0.661172    2.274683    0.000000
 ---------------------------------------------------------------------

 SCF Done:  E(RHF) =  -152.107571111     A.U. after   10 cycles
 E2 =    -0.5258774193D+00 EUMP2 =    -0.15263344853004D+03
 CCSD(T)
 CCSD(T)= -0.15266066418D+03

 The electronic state is 1-A'.
 Alpha  occ. eigenvalues --  -20.55684 -20.55046  -1.32984  -1.32345  -0.70389
 Alpha  occ. eigenvalues --   -0.69741  -0.56439  -0.55794  -0.50096  -0.49460
 Alpha virt. eigenvalues --    0.13928   0.14693   0.20080   0.20792   0.54163
 Alpha virt. eigenvalues --    0.54825   0.57102   0.57729   0.67579   0.68561
 Alpha virt. eigenvalues --    0.78785   0.79409   0.80208   0.80772   0.82330

 Mulliken charges:
               1
     1  O   -0.509865
     2  H    0.253400
     3  H    0.256481
     4  O   -0.509415
     5  H    0.251611
     6  H    0.257789
 Sum of Mulliken charges =  -0.00000

 Dipole moment (field-independent basis, Debye):
    X=             -1.9254    Y=             -1.6098    Z=              0.0000  Tot=              2.5097
 Quadrupole moment (field-independent basis, Debye-Ang):
   XX=             -9.7837   YY=              3.7027   ZZ=            -14.7126
   XY=             -5.4575   XZ=              0.0000   YZ=              0.0000

 Normal termination of Gaussian 16 at Sat Aug 27 04:39:19 2022.
