 Gaussian 16, Revision A.03,
 Gaussian 16:  ES64L-G16RevA.03 25-Dec-2016

 ------------------
 #p CCSD(T)/cc-pVTZ
 ------------------

 ------------
 H2O_H2O_4330
 ------------
 Symbolic Z-matrix:
 Charge =  0 Multiplicity = 1

                         Standard orientation:
 ---------------------------------------------------------------------
 Center     Atomic      Atomic             Coordinates (Angstroms)
 Number     Number       Type             X           Y           Z
 ---------------------------------------------------------------------
      1          8           0        0.018360   -3.100509    0.000000
      2          1           0       -0.781502   -3.671234    0.000000
      3          1           0        0.817640   -3.672048    0.000000
      4          8           0        0.018360    3.106553    0.000000
      5          1           0        0.592320    3.904095    0.000000
      6          1           0       -0.922217    3.390840    0.000000
 ---------------------------------------------------------------------

 SCF Done:  E(RHF) =  -152.106826077     A.U. after   10 cycles
 E2 =    -0.5259310947D+00 EUMP2 =    -0.15263275717161D+03
 CCSD(T)
 CCSD(T)= -0.15265998962D+03

 The electronic state is 1-A'.
 Alpha  occ. eigenvalues --  -20.55204 -20.55168  -1.32500  -1.32464  -0.69907
 Alpha  occ. eigenvalues --   -0.69870  -0.55921  -0.55884  -0.49607  -0.49571
 Alpha virt. eigenvalues --    0.14416   0.14469   0.20467   0.20509   0.54661
 Alpha virt. eigenvalues --    0.54702   0.57528   0.57565   0.68288   0.68378
 Alpha virt. eigenvalues --    0.79272   0.79307   0.80715   0.80755   0.82644

 Mulliken charges:
               1
     1  O   -0.505434
     2  H    0.252279
     3  H    0.253155
     4  O   -0.505395
     5  H    0.252077
     6  H    0.253318
 Sum of Mulliken charges =  -0.00000

 Dipole moment (field-independent basis, Debye):
    X=             -0.6306    Y=             -0.1055    Z=              0.0000  Tot=              0.6394
 Quadrupole moment (field-independent basis, Debye-Ang):
   XX=             -8.0156   YY=             12.3410   ZZ=            -14.7107
   XY=             -1.4175   XZ=              0.0000   YZ=              0.0000

 Normal termination of Gaussian 16 at Sat Aug 27 06:42:32 2022.
