 Gaussian 16, Revision A.03,
 Gaussian 16:  ES64L-G16RevA.03 25-Dec-2016

 ------------------
 #p CCSD(T)/cc-pVTZ
 ------------------

 ------------
 H2O_H2O_1121
 ------------
 Symbolic Z-matrix:
 Charge =  0 Multiplicity = 1

                         Standard orientation:
 ---------------------------------------------------------------------
 Center     Atomic      Atomic             Coordinates (Angstroms)
 Number     Number       Type             X           Y           Z
 ---------------------------------------------------------------------
      1          8           0        0.056176   -1.338894    0.000000
      2          1           0       -0.745380   -1.907238    0.000000
      3          1           0        0.853753   -1.912807    0.000000
      4          8           0        0.056176    1.430445    0.000000
      5          1           0       -0.344872    2.327478    0.000000
      6          1           0       -0.662310    0.760158    0.000000
 ---------------------------------------------------------------------

 SCF Done:  E(RHF) =  -152.106315578     A.U. after   10 cycles
 E2 =    -0.5282940274D+00 EUMP2 =    -0.15263460960586D+03
 CCSD(T)
 CCSD(T)= -0.15266168207D+03

 The electronic state is 1-A'.
 Alpha  occ. eigenvalues --  -20.56231 -20.52879  -1.33671  -1.30205  -0.71065
 Alpha  occ. eigenvalues --   -0.68005  -0.56683  -0.53684  -0.50768  -0.47310
 Alpha virt. eigenvalues --    0.13198   0.17569   0.19648   0.25120   0.52092
 Alpha virt. eigenvalues --    0.56609   0.57643   0.59461   0.70284   0.74616
 Alpha virt. eigenvalues --    0.75011   0.79650   0.82466   0.82937   0.84209

 Mulliken charges:
               1
     1  O   -0.481854
     2  H    0.239693
     3  H    0.256693
     4  O   -0.505090
     5  H    0.228690
     6  H    0.261868
 Sum of Mulliken charges =  -0.00000

 Dipole moment (field-independent basis, Debye):
    X=             -1.8035    Y=             -1.8413    Z=              0.0000  Tot=              2.5774
 Quadrupole moment (field-independent basis, Debye-Ang):
   XX=             -9.7954   YY=             -3.8498   ZZ=            -14.7259
   XY=             -2.6143   XZ=              0.0000   YZ=              0.0000

 Normal termination of Gaussian 16 at Sat Aug 27 02:17:51 2022.
