 Gaussian 16, Revision A.03,
 Gaussian 16:  ES64L-G16RevA.03 25-Dec-2016

 ------------------
 #p CCSD(T)/cc-pVTZ
 ------------------

 ------------
 H2O_H2O_4036
 ------------
 Symbolic Z-matrix:
 Charge =  0 Multiplicity = 1

                         Standard orientation:
 ---------------------------------------------------------------------
 Center     Atomic      Atomic             Coordinates (Angstroms)
 Number     Number       Type             X           Y           Z
 ---------------------------------------------------------------------
      1          8           0        0.037673   -2.928890    0.000000
      2          1           0       -0.762527   -3.499141    0.000000
      3          1           0        0.836614   -3.500903    0.000000
      4          8           0        0.037673    2.957154    0.000000
      5          1           0        0.263302    3.913499    0.000000
      6          1           0       -0.940158    2.860436    0.000000
 ---------------------------------------------------------------------

 SCF Done:  E(RHF) =  -152.106927472     A.U. after   10 cycles
 E2 =    -0.5259285166D+00 EUMP2 =    -0.15263285598886D+03
 CCSD(T)
 CCSD(T)= -0.15266008590D+03

 The electronic state is 1-A'.
 Alpha  occ. eigenvalues --  -20.55293 -20.55104  -1.32589  -1.32399  -0.69997
 Alpha  occ. eigenvalues --   -0.69802  -0.56014  -0.55824  -0.49697  -0.49508
 Alpha virt. eigenvalues --    0.14321   0.14554   0.20388   0.20598   0.54568
 Alpha virt. eigenvalues --    0.54778   0.57446   0.57638   0.68142   0.68478
 Alpha virt. eigenvalues --    0.79182   0.79369   0.80622   0.80828   0.82556

 Mulliken charges:
               1
     1  O   -0.506052
     2  H    0.251982
     3  H    0.254071
     4  O   -0.505868
     5  H    0.251343
     6  H    0.254524
 Sum of Mulliken charges =   0.00000

 Dipole moment (field-independent basis, Debye):
    X=             -1.2929    Y=             -0.4947    Z=              0.0000  Tot=              1.3844
 Quadrupole moment (field-independent basis, Debye-Ang):
   XX=             -8.6971   YY=              9.4504   ZZ=            -14.7110
   XY=             -2.9669   XZ=              0.0000   YZ=              0.0000

 Normal termination of Gaussian 16 at Sat Aug 27 05:00:59 2022.
