 Gaussian 16, Revision A.03,
 Gaussian 16:  ES64L-G16RevA.03 25-Dec-2016

 ------------------
 #p CCSD(T)/cc-pVTZ
 ------------------

 ----------
 H2O_H2O_12
 ----------
 Symbolic Z-matrix:
 Charge =  0 Multiplicity = 1

                         Standard orientation:
 ---------------------------------------------------------------------
 Center     Atomic      Atomic             Coordinates (Angstroms)
 Number     Number       Type             X           Y           Z
 ---------------------------------------------------------------------
      1          8           0        0.040457   -0.785614    0.000000
      2          1           0       -0.761581   -1.353275    0.000000
      3          1           0        0.837546   -1.360206    0.000000
      4          8           0        0.040457    0.818719    0.000000
      5          1           0        0.206187    1.787243    0.000000
      6          1           0       -0.929468    0.661391    0.000000
 ---------------------------------------------------------------------

 SCF Done:  E(RHF) =  -151.915447060     A.U. after   12 cycles
 E2 =    -0.5518445356D+00 EUMP2 =    -0.15246729159585D+03
 CCSD(T)
 CCSD(T)= -0.15249173644D+03

 The electronic state is 1-A'.
 Alpha  occ. eigenvalues --  -20.52779 -20.51602  -1.38981  -1.26526  -0.74545
 Alpha  occ. eigenvalues --   -0.70553  -0.60218  -0.54241  -0.43208  -0.35056
 Alpha virt. eigenvalues --    0.13909   0.19045   0.19901   0.23730   0.53186
 Alpha virt. eigenvalues --    0.55784   0.58537   0.65867   0.73348   0.77469
 Alpha virt. eigenvalues --    0.80451   0.81833   0.82184   0.83878   0.89260

 Mulliken charges:
               1
     1  O   -0.320135
     2  H    0.146733
     3  H    0.182073
     4  O   -0.321433
     5  H    0.082108
     6  H    0.230653
 Sum of Mulliken charges =  -0.00000

 Dipole moment (field-independent basis, Debye):
    X=             -1.0737    Y=             -0.8286    Z=              0.0000  Tot=              1.3562
 Quadrupole moment (field-independent basis, Debye-Ang):
   XX=             -9.2062   YY=             -9.3750   ZZ=            -14.6594
   XY=             -0.5876   XZ=              0.0000   YZ=              0.0000

 Normal termination of Gaussian 16 at Fri Aug 26 11:52:36 2022.
