 Gaussian 16, Revision A.03,
 Gaussian 16:  ES64L-G16RevA.03 25-Dec-2016

 ------------------
 #p CCSD(T)/cc-pVTZ
 ------------------

 ------------
 H2O_H2O_4846
 ------------
 Symbolic Z-matrix:
 Charge =  0 Multiplicity = 1

                         Standard orientation:
 ---------------------------------------------------------------------
 Center     Atomic      Atomic             Coordinates (Angstroms)
 Number     Number       Type             X           Y           Z
 ---------------------------------------------------------------------
      1          8           0        0.056082   -3.319865    0.000000
      2          1           0       -0.744307   -3.889851    0.000000
      3          1           0        0.854834   -3.892142    0.000000
      4          8           0        0.056082    3.411646    0.000000
      5          1           0       -0.346804    4.307854    0.000000
      6          1           0       -0.661029    2.739887    0.000000
 ---------------------------------------------------------------------

 SCF Done:  E(RHF) =  -152.107526527     A.U. after   10 cycles
 E2 =    -0.5258645449D+00 EUMP2 =    -0.15263339107197D+03
 CCSD(T)
 CCSD(T)= -0.15266060893D+03

 The electronic state is 1-A'.
 Alpha  occ. eigenvalues --  -20.55670 -20.55207  -1.32970  -1.32506  -0.70376
 Alpha  occ. eigenvalues --   -0.69907  -0.56422  -0.55956  -0.50083  -0.49620
 Alpha virt. eigenvalues --    0.14014   0.14480   0.20096   0.20587   0.54184
 Alpha virt. eigenvalues --    0.54664   0.57113   0.57576   0.67754   0.68238
 Alpha virt. eigenvalues --    0.78797   0.79253   0.80226   0.80715   0.82151

 Mulliken charges:
               1
     1  O   -0.509585
     2  H    0.253799
     3  H    0.255786
     4  O   -0.509335
     5  H    0.252661
     6  H    0.256674
 Sum of Mulliken charges =   0.00000

 Dipole moment (field-independent basis, Debye):
    X=             -1.9292    Y=             -1.6005    Z=              0.0000  Tot=              2.5067
 Quadrupole moment (field-independent basis, Debye-Ang):
   XX=             -9.7846   YY=              5.9245   ZZ=            -14.7123
   XY=             -6.3490   XZ=              0.0000   YZ=              0.0000

 Normal termination of Gaussian 16 at Sat Aug 27 09:39:59 2022.
