 Gaussian 16, Revision A.03,
 Gaussian 16:  ES64L-G16RevA.03 25-Dec-2016

 ------------------
 #p CCSD(T)/cc-pVTZ
 ------------------

 ------------
 H2O_H2O_2835
 ------------
 Symbolic Z-matrix:
 Charge =  0 Multiplicity = 1

                         Standard orientation:
 ---------------------------------------------------------------------
 Center     Atomic      Atomic             Coordinates (Angstroms)
 Number     Number       Type             X           Y           Z
 ---------------------------------------------------------------------
      1          8           0        0.034784   -2.293266    0.000000
      2          1           0       -0.765528   -2.863359    0.000000
      3          1           0        0.833612   -2.865436    0.000000
      4          8           0        0.034784    2.316780    0.000000
      5          1           0        0.322664    3.256264    0.000000
      6          1           0       -0.947285    2.284416    0.000000
 ---------------------------------------------------------------------

 SCF Done:  E(RHF) =  -152.106286050     A.U. after   10 cycles
 E2 =    -0.5260536930D+00 EUMP2 =    -0.15263233974328D+03
 CCSD(T)
 CCSD(T)= -0.15265957765D+03

 The electronic state is 1-A'.
 Alpha  occ. eigenvalues --  -20.55040 -20.54779  -1.32333  -1.32068  -0.69743
 Alpha  occ. eigenvalues --   -0.69470  -0.55727  -0.55457  -0.49436  -0.49174
 Alpha virt. eigenvalues --    0.14137   0.15158   0.20452   0.20958   0.54555
 Alpha virt. eigenvalues --    0.55193   0.57638   0.57909   0.66315   0.71332
 Alpha virt. eigenvalues --    0.79423   0.79714   0.80791   0.81290   0.82620

 Mulliken charges:
               1
     1  O   -0.502132
     2  H    0.249190
     3  H    0.253008
     4  O   -0.501716
     5  H    0.248182
     6  H    0.253468
 Sum of Mulliken charges =   0.00000

 Dipole moment (field-independent basis, Debye):
    X=             -1.1851    Y=             -0.4180    Z=              0.0000  Tot=              1.2566
 Quadrupole moment (field-independent basis, Debye-Ang):
   XX=             -8.5737   YY=              5.1930   ZZ=            -14.7105
   XY=             -1.9363   XZ=              0.0000   YZ=              0.0000

 Normal termination of Gaussian 16 at Fri Aug 26 16:37:08 2022.
