 Gaussian 16, Revision A.03,
 Gaussian 16:  ES64L-G16RevA.03 25-Dec-2016

 ------------------
 #p CCSD(T)/cc-pVTZ
 ------------------

 ------------
 H2O_H2O_3641
 ------------
 Symbolic Z-matrix:
 Charge =  0 Multiplicity = 1

                         Standard orientation:
 ---------------------------------------------------------------------
 Center     Atomic      Atomic             Coordinates (Angstroms)
 Number     Number       Type             X           Y           Z
 ---------------------------------------------------------------------
      1          8           0        0.049506   -2.700571    0.000000
      2          1           0       -0.750955   -3.270455    0.000000
      3          1           0        0.848185   -3.272950    0.000000
      4          8           0        0.049506    2.757530    0.000000
      5          1           0       -0.043797    3.735692    0.000000
      6          1           0       -0.845528    2.352043    0.000000
 ---------------------------------------------------------------------

 SCF Done:  E(RHF) =  -152.107151516     A.U. after   10 cycles
 E2 =    -0.5259233992D+00 EUMP2 =    -0.15263307491491D+03
 CCSD(T)
 CCSD(T)= -0.15266029892D+03

 The electronic state is 1-A'.
 Alpha  occ. eigenvalues --  -20.55445 -20.54995  -1.32743  -1.32290  -0.70150
 Alpha  occ. eigenvalues --   -0.69687  -0.56178  -0.55724  -0.49852  -0.49402
 Alpha virt. eigenvalues --    0.14094   0.14748   0.20248   0.20783   0.54395
 Alpha virt. eigenvalues --    0.54889   0.57309   0.57752   0.67723   0.68840
 Alpha virt. eigenvalues --    0.79028   0.79470   0.80452   0.80877   0.82530

 Mulliken charges:
               1
     1  O   -0.507388
     2  H    0.252013
     3  H    0.255392
     4  O   -0.506997
     5  H    0.250631
     6  H    0.256348
 Sum of Mulliken charges =  -0.00000

 Dipole moment (field-independent basis, Debye):
    X=             -1.6967    Y=             -1.0016    Z=              0.0000  Tot=              1.9703
 Quadrupole moment (field-independent basis, Debye-Ang):
   XX=             -9.3456   YY=              5.8139   ZZ=            -14.7117
   XY=             -3.9862   XZ=              0.0000   YZ=              0.0000

 Normal termination of Gaussian 16 at Sat Aug 27 02:08:44 2022.
