 Gaussian 16, Revision A.03,
 Gaussian 16:  ES64L-G16RevA.03 25-Dec-2016

 ------------------
 #p CCSD(T)/cc-pVTZ
 ------------------

 ------------
 H2O_H2O_2462
 ------------
 Symbolic Z-matrix:
 Charge =  0 Multiplicity = 1

                         Standard orientation:
 ---------------------------------------------------------------------
 Center     Atomic      Atomic             Coordinates (Angstroms)
 Number     Number       Type             X           Y           Z
 ---------------------------------------------------------------------
      1          8           0        0.040413   -2.088500    0.000000
      2          1           0       -0.760100   -2.658310    0.000000
      3          1           0        0.839039   -2.660951    0.000000
      4          8           0        0.040413    2.121822    0.000000
      5          1           0        0.203544    3.090788    0.000000
      6          1           0       -0.929087    1.961892    0.000000
 ---------------------------------------------------------------------

 SCF Done:  E(RHF) =  -152.106255956     A.U. after   10 cycles
 E2 =    -0.5261505444D+00 EUMP2 =    -0.15263240650080D+03
 CCSD(T)
 CCSD(T)= -0.15265963497D+03

 The electronic state is 1-A'.
 Alpha  occ. eigenvalues --  -20.55065 -20.54606  -1.32352  -1.31890  -0.69765
 Alpha  occ. eigenvalues --   -0.69285  -0.55745  -0.55263  -0.49456  -0.48997
 Alpha virt. eigenvalues --    0.13857   0.15538   0.20361   0.21274   0.54028
 Alpha virt. eigenvalues --    0.55241   0.57631   0.58064   0.64913   0.73696
 Alpha virt. eigenvalues --    0.79328   0.79959   0.80452   0.81427   0.82895

 Mulliken charges:
               1
     1  O   -0.500807
     2  H    0.247767
     3  H    0.253386
     4  O   -0.500641
     5  H    0.246176
     6  H    0.254119
 Sum of Mulliken charges =  -0.00000

 Dipole moment (field-independent basis, Debye):
    X=             -1.3702    Y=             -0.6000    Z=              0.0000  Tot=              1.4958
 Quadrupole moment (field-independent basis, Debye-Ang):
   XX=             -8.8418   YY=              3.2685   ZZ=            -14.7112
   XY=             -2.1026   XZ=              0.0000   YZ=              0.0000

 Normal termination of Gaussian 16 at Sat Aug 27 10:41:33 2022.
