 Gaussian 16, Revision A.03,
 Gaussian 16:  ES64L-G16RevA.03 25-Dec-2016

 ------------------
 #p CCSD(T)/cc-pVTZ
 ------------------

 ------------
 H2O_H2O_3951
 ------------
 Symbolic Z-matrix:
 Charge =  0 Multiplicity = 1

                         Standard orientation:
 ---------------------------------------------------------------------
 Center     Atomic      Atomic             Coordinates (Angstroms)
 Number     Number       Type             X           Y           Z
 ---------------------------------------------------------------------
      1          8           0        0.003735   -2.904220    0.000000
      2          1           0       -0.795899   -3.475264    0.000000
      3          1           0        0.803243   -3.475441    0.000000
      4          8           0        0.003735    2.904464    0.000000
      5          1           0        0.764310    3.526584    0.000000
      6          1           0       -0.831420    3.422171    0.000000
 ---------------------------------------------------------------------

 SCF Done:  E(RHF) =  -152.106625354     A.U. after   10 cycles
 E2 =    -0.5259547312D+00 EUMP2 =    -0.15263258008538D+03
 CCSD(T)
 CCSD(T)= -0.15265981644D+03

 The electronic state is 1-A'.
 Alpha  occ. eigenvalues --  -20.55105 -20.55103  -1.32400  -1.32398  -0.69808
 Alpha  occ. eigenvalues --   -0.69806  -0.55811  -0.55809  -0.49506  -0.49504
 Alpha virt. eigenvalues --    0.14467   0.14549   0.20526   0.20559   0.54751
 Alpha virt. eigenvalues --    0.54777   0.57606   0.57622   0.68310   0.68575
 Alpha virt. eigenvalues --    0.79372   0.79375   0.80815   0.80826   0.82745

 Mulliken charges:
               1
     1  O   -0.504252
     2  H    0.252018
     3  H    0.252233
     4  O   -0.504250
     5  H    0.251979
     6  H    0.252271
 Sum of Mulliken charges =  -0.00000

 Dipole moment (field-independent basis, Debye):
    X=             -0.1281    Y=             -0.0043    Z=              0.0000  Tot=              0.1282
 Quadrupole moment (field-independent basis, Debye-Ang):
   XX=             -7.8150   YY=             11.1797   ZZ=            -14.7104
   XY=             -0.2563   XZ=              0.0000   YZ=              0.0000

 Normal termination of Gaussian 16 at Sat Aug 27 04:31:14 2022.
