 Gaussian 16, Revision A.03,
 Gaussian 16:  ES64L-G16RevA.03 25-Dec-2016

 ------------------
 #p CCSD(T)/cc-pVTZ
 ------------------

 ------------
 H2O_H2O_1819
 ------------
 Symbolic Z-matrix:
 Charge =  0 Multiplicity = 1

                         Standard orientation:
 ---------------------------------------------------------------------
 Center     Atomic      Atomic             Coordinates (Angstroms)
 Number     Number       Type             X           Y           Z
 ---------------------------------------------------------------------
      1          8           0        0.054185   -1.718963    0.000000
      2          1           0       -0.746896   -2.287975    0.000000
      3          1           0        0.852240   -2.292211    0.000000
      4          8           0        0.054185    1.796186    0.000000
      5          1           0       -0.227131    2.737657    0.000000
      6          1           0       -0.745168    1.224746    0.000000
 ---------------------------------------------------------------------

 SCF Done:  E(RHF) =  -152.107665024     A.U. after   10 cycles
 E2 =    -0.5265476245D+00 EUMP2 =    -0.15263421264875D+03
 CCSD(T)
 CCSD(T)= -0.15266137449D+03

 The electronic state is 1-A'.
 Alpha  occ. eigenvalues --  -20.55719 -20.54031  -1.32992  -1.31311  -0.70405
 Alpha  occ. eigenvalues --   -0.68682  -0.56409  -0.54736  -0.50107  -0.48435
 Alpha virt. eigenvalues --    0.13302   0.16452   0.19935   0.23118   0.53975
 Alpha virt. eigenvalues --    0.54635   0.57092   0.58465   0.65321   0.75781
 Alpha virt. eigenvalues --    0.78028   0.78484   0.78701   0.80923   0.84697

 Mulliken charges:
               1
     1  O   -0.496291
     2  H    0.244950
     3  H    0.255835
     4  O   -0.505158
     5  H    0.241017
     6  H    0.259648
 Sum of Mulliken charges =   0.00000

 Dipole moment (field-independent basis, Debye):
    X=             -1.8077    Y=             -1.4488    Z=              0.0000  Tot=              2.3167
 Quadrupole moment (field-independent basis, Debye-Ang):
   XX=             -9.6547   YY=             -1.0727   ZZ=            -14.7173
   XY=             -2.9369   XZ=              0.0000   YZ=              0.0000

 Normal termination of Gaussian 16 at Sat Aug 27 06:58:01 2022.
