 Gaussian 16, Revision A.03,
 Gaussian 16:  ES64L-G16RevA.03 25-Dec-2016

 ------------------
 #p CCSD(T)/cc-pVTZ
 ------------------

 ------------
 H2O_H2O_2487
 ------------
 Symbolic Z-matrix:
 Charge =  0 Multiplicity = 1

                         Standard orientation:
 ---------------------------------------------------------------------
 Center     Atomic      Atomic             Coordinates (Angstroms)
 Number     Number       Type             X           Y           Z
 ---------------------------------------------------------------------
      1          8           0        0.040413   -2.101795    0.000000
      2          1           0       -0.760095   -2.671614    0.000000
      3          1           0        0.839045   -2.674238    0.000000
      4          8           0        0.040413    2.135119    0.000000
      5          1           0        0.203534    3.104086    0.000000
      6          1           0       -0.929085    1.975178    0.000000
 ---------------------------------------------------------------------

 SCF Done:  E(RHF) =  -152.106273316     A.U. after   10 cycles
 E2 =    -0.5261408044D+00 EUMP2 =    -0.15263241412058D+03
 CCSD(T)
 CCSD(T)= -0.15265964307D+03

 The electronic state is 1-A'.
 Alpha  occ. eigenvalues --  -20.55070 -20.54618  -1.32358  -1.31902  -0.69771
 Alpha  occ. eigenvalues --   -0.69298  -0.55751  -0.55278  -0.49462  -0.49010
 Alpha virt. eigenvalues --    0.13867   0.15513   0.20362   0.21254   0.54067
 Alpha virt. eigenvalues --    0.55234   0.57626   0.58051   0.65015   0.73536
 Alpha virt. eigenvalues --    0.79333   0.79937   0.80480   0.81441   0.82874

 Mulliken charges:
               1
     1  O   -0.501025
     2  H    0.247909
     3  H    0.253439
     4  O   -0.500824
     5  H    0.246336
     6  H    0.254164
 Sum of Mulliken charges =  -0.00000

 Dipole moment (field-independent basis, Debye):
    X=             -1.3707    Y=             -0.5994    Z=              0.0000  Tot=              1.4961
 Quadrupole moment (field-independent basis, Debye-Ang):
   XX=             -8.8414   YY=              3.3613   ZZ=            -14.7111
   XY=             -2.1206   XZ=              0.0000   YZ=              0.0000

 Normal termination of Gaussian 16 at Sat Aug 27 10:49:45 2022.
