 Gaussian 16, Revision A.03,
 Gaussian 16:  ES64L-G16RevA.03 25-Dec-2016

 ------------------
 #p CCSD(T)/cc-pVTZ
 ------------------

 ------------
 H2O_H2O_2823
 ------------
 Symbolic Z-matrix:
 Charge =  0 Multiplicity = 1

                         Standard orientation:
 ---------------------------------------------------------------------
 Center     Atomic      Atomic             Coordinates (Angstroms)
 Number     Number       Type             X           Y           Z
 ---------------------------------------------------------------------
      1          8           0        0.057105   -2.234895    0.000000
      2          1           0       -0.743688   -2.804312    0.000000
      3          1           0        0.855450   -2.807740    0.000000
      4          8           0        0.057105    2.341406    0.000000
      5          1           0       -0.458718    3.177728    0.000000
      6          1           0       -0.566728    1.582237    0.000000
 ---------------------------------------------------------------------

 SCF Done:  E(RHF) =  -152.108208829     A.U. after   10 cycles
 E2 =    -0.5259730733D+00 EUMP2 =    -0.15263418190262D+03
 CCSD(T)
 CCSD(T)= -0.15266136713D+03

 The electronic state is 1-A'.
 Alpha  occ. eigenvalues --  -20.55928 -20.54636  -1.33215  -1.31937  -0.70621
 Alpha  occ. eigenvalues --   -0.69318  -0.56688  -0.55398  -0.50333  -0.49059
 Alpha virt. eigenvalues --    0.13164   0.15507   0.19896   0.21749   0.53923
 Alpha virt. eigenvalues --    0.54830   0.56947   0.58120   0.66607   0.70974
 Alpha virt. eigenvalues --    0.78561   0.79488   0.79795   0.80402   0.82743

 Mulliken charges:
               1
     1  O   -0.510130
     2  H    0.252737
     3  H    0.258569
     4  O   -0.511715
     5  H    0.249183
     6  H    0.261356
 Sum of Mulliken charges =  -0.00000

 Dipole moment (field-independent basis, Debye):
    X=             -1.9461    Y=             -1.9126    Z=              0.0000  Tot=              2.7286
 Quadrupole moment (field-independent basis, Debye-Ang):
   XX=             -9.8526   YY=             -0.3560   ZZ=            -14.7152
   XY=             -4.6334   XZ=              0.0000   YZ=              0.0000

 Normal termination of Gaussian 16 at Fri Aug 26 16:30:26 2022.
