 Gaussian 16, Revision A.03,
 Gaussian 16:  ES64L-G16RevA.03 25-Dec-2016

 ------------------
 #p CCSD(T)/cc-pVTZ
 ------------------

 ------------
 H2O_H2O_3456
 ------------
 Symbolic Z-matrix:
 Charge =  0 Multiplicity = 1

                         Standard orientation:
 ---------------------------------------------------------------------
 Center     Atomic      Atomic             Coordinates (Angstroms)
 Number     Number       Type             X           Y           Z
 ---------------------------------------------------------------------
      1          8           0        0.021859   -2.633729    0.000000
      2          1           0       -0.778119   -3.204290    0.000000
      3          1           0        0.821023   -3.205431    0.000000
      4          8           0        0.021859    2.642393    0.000000
      5          1           0        0.542599    3.475661    0.000000
      6          1           0       -0.935252    2.864750    0.000000
 ---------------------------------------------------------------------

 SCF Done:  E(RHF) =  -152.106456125     A.U. after   10 cycles
 E2 =    -0.5259848402D+00 EUMP2 =    -0.15263244096482D+03
 CCSD(T)
 CCSD(T)= -0.15265968001D+03

 The electronic state is 1-A'.
 Alpha  occ. eigenvalues --  -20.55058 -20.54986  -1.32352  -1.32280  -0.69761
 Alpha  occ. eigenvalues --   -0.69686  -0.55755  -0.55682  -0.49457  -0.49385
 Alpha virt. eigenvalues --    0.14424   0.14723   0.20534   0.20672   0.54776
 Alpha virt. eigenvalues --    0.54921   0.57639   0.57727   0.67957   0.69146
 Alpha virt. eigenvalues --    0.79420   0.79492   0.80859   0.80963   0.82765

 Mulliken charges:
               1
     1  O   -0.503274
     2  H    0.250813
     3  H    0.252462
     4  O   -0.503155
     5  H    0.250453
     6  H    0.252701
 Sum of Mulliken charges =  -0.00000

 Dipole moment (field-independent basis, Debye):
    X=             -0.7482    Y=             -0.1523    Z=              0.0000  Tot=              0.7635
 Quadrupole moment (field-independent basis, Debye-Ang):
   XX=             -8.1101   YY=              8.5416   ZZ=            -14.7103
   XY=             -1.3603   XZ=              0.0000   YZ=              0.0000

 Normal termination of Gaussian 16 at Fri Aug 26 22:29:46 2022.
