 Gaussian 16, Revision A.03,
 Gaussian 16:  ES64L-G16RevA.03 25-Dec-2016

 ------------------
 #p CCSD(T)/cc-pVTZ
 ------------------

 ------------
 H2O_H2O_2619
 ------------
 Symbolic Z-matrix:
 Charge =  0 Multiplicity = 1

                         Standard orientation:
 ---------------------------------------------------------------------
 Center     Atomic      Atomic             Coordinates (Angstroms)
 Number     Number       Type             X           Y           Z
 ---------------------------------------------------------------------
      1          8           0        0.054165   -2.144403    0.000000
      2          1           0       -0.746622   -2.713829    0.000000
      3          1           0        0.852516   -2.717239    0.000000
      4          8           0        0.054165    2.221682    0.000000
      5          1           0       -0.227637    3.163007    0.000000
      6          1           0       -0.744893    1.649831    0.000000
 ---------------------------------------------------------------------

 SCF Done:  E(RHF) =  -152.107521421     A.U. after   10 cycles
 E2 =    -0.5260499519D+00 EUMP2 =    -0.15263357137335D+03
 CCSD(T)
 CCSD(T)= -0.15266077061D+03

 The electronic state is 1-A'.
 Alpha  occ. eigenvalues --  -20.55624 -20.54595  -1.32911  -1.31887  -0.70319
 Alpha  occ. eigenvalues --   -0.69268  -0.56350  -0.55327  -0.50023  -0.49005
 Alpha virt. eigenvalues --    0.13378   0.15580   0.20052   0.21666   0.54048
 Alpha virt. eigenvalues --    0.54746   0.57198   0.58139   0.66158   0.72575
 Alpha virt. eigenvalues --    0.78848   0.79756   0.79870   0.81569   0.82541

 Mulliken charges:
               1
     1  O   -0.506562
     2  H    0.250467
     3  H    0.257094
     4  O   -0.508011
     5  H    0.247612
     6  H    0.259400
 Sum of Mulliken charges =  -0.00000

 Dipole moment (field-independent basis, Debye):
    X=             -1.8408    Y=             -1.3924    Z=              0.0000  Tot=              2.3081
 Quadrupole moment (field-independent basis, Debye-Ang):
   XX=             -9.6483   YY=              1.2417   ZZ=            -14.7138
   XY=             -3.7076   XZ=              0.0000   YZ=              0.0000

 Normal termination of Gaussian 16 at Fri Aug 26 14:24:29 2022.
