 Gaussian 16, Revision A.03,
 Gaussian 16:  ES64L-G16RevA.03 25-Dec-2016

 ------------------
 #p CCSD(T)/cc-pVTZ
 ------------------

 ------------
 H2O_H2O_2108
 ------------
 Symbolic Z-matrix:
 Charge =  0 Multiplicity = 1

                         Standard orientation:
 ---------------------------------------------------------------------
 Center     Atomic      Atomic             Coordinates (Angstroms)
 Number     Number       Type             X           Y           Z
 ---------------------------------------------------------------------
      1          8           0        0.028566   -1.912183    0.000000
      2          1           0       -0.771735   -2.482291    0.000000
      3          1           0        0.827405   -2.484338    0.000000
      4          8           0        0.028566    1.927413    0.000000
      5          1           0        0.436595    2.821292    0.000000
      6          1           0       -0.949326    2.023495    0.000000
 ---------------------------------------------------------------------

 SCF Done:  E(RHF) =  -152.105324664     A.U. after   10 cycles
 E2 =    -0.5263666412D+00 EUMP2 =    -0.15263169130518D+03
 CCSD(T)
 CCSD(T)= -0.15265892799D+03

 The electronic state is 1-A'.
 Alpha  occ. eigenvalues --  -20.54707 -20.54455  -1.31988  -1.31731  -0.69407
 Alpha  occ. eigenvalues --   -0.69138  -0.55445  -0.54923  -0.49091  -0.48828
 Alpha virt. eigenvalues --    0.14013   0.15816   0.20498   0.21341   0.53653
 Alpha virt. eigenvalues --    0.55888   0.57874   0.58225   0.62724   0.75361
 Alpha virt. eigenvalues --    0.79316   0.80036   0.80469   0.81053   0.82779

 Mulliken charges:
               1
     1  O   -0.493889
     2  H    0.244600
     3  H    0.249613
     4  O   -0.493831
     5  H    0.243555
     6  H    0.249951
 Sum of Mulliken charges =  -0.00000

 Dipole moment (field-independent basis, Debye):
    X=             -0.9621    Y=             -0.2782    Z=              0.0000  Tot=              1.0015
 Quadrupole moment (field-independent basis, Debye-Ang):
   XX=             -8.3452   YY=              2.6737   ZZ=            -14.7102
   XY=             -1.1472   XZ=              0.0000   YZ=              0.0000

 Normal termination of Gaussian 16 at Sat Aug 27 08:38:04 2022.
