 Gaussian 16, Revision A.03,
 Gaussian 16:  ES64L-G16RevA.03 25-Dec-2016

 ------------------
 #p CCSD(T)/cc-pVTZ
 ------------------

 ------------
 H2O_H2O_3940
 ------------
 Symbolic Z-matrix:
 Charge =  0 Multiplicity = 1

                         Standard orientation:
 ---------------------------------------------------------------------
 Center     Atomic      Atomic             Coordinates (Angstroms)
 Number     Number       Type             X           Y           Z
 ---------------------------------------------------------------------
      1          8           0        0.047524   -2.863559    0.000000
      2          1           0       -0.752855   -3.433559    0.000000
      3          1           0        0.846286   -3.435822    0.000000
      4          8           0        0.047524    2.914190    0.000000
      5          1           0        0.018253    3.896356    0.000000
      6          1           0       -0.872064    2.567976    0.000000
 ---------------------------------------------------------------------

 SCF Done:  E(RHF) =  -152.107130753     A.U. after   10 cycles
 E2 =    -0.5259144065D+00 EUMP2 =    -0.15263304515954D+03
 CCSD(T)
 CCSD(T)= -0.15266027046D+03

 The electronic state is 1-A'.
 Alpha  occ. eigenvalues --  -20.55424 -20.55070  -1.32721  -1.32365  -0.70128
 Alpha  occ. eigenvalues --   -0.69765  -0.56156  -0.55799  -0.49831  -0.49476
 Alpha virt. eigenvalues --    0.14185   0.14619   0.20280   0.20677   0.54430
 Alpha virt. eigenvalues --    0.54816   0.57329   0.57685   0.67941   0.68537
 Alpha virt. eigenvalues --    0.79049   0.79397   0.80484   0.80853   0.82444

 Mulliken charges:
               1
     1  O   -0.507267
     2  H    0.252255
     3  H    0.255016
     4  O   -0.506974
     5  H    0.251189
     6  H    0.255781
 Sum of Mulliken charges =  -0.00000

 Dipole moment (field-independent basis, Debye):
    X=             -1.6307    Y=             -0.8875    Z=              0.0000  Tot=              1.8566
 Quadrupole moment (field-independent basis, Debye-Ang):
   XX=             -9.2247   YY=              7.3054   ZZ=            -14.7115
   XY=             -3.9901   XZ=              0.0000   YZ=              0.0000

 Normal termination of Gaussian 16 at Sat Aug 27 04:27:01 2022.
