 Gaussian 16, Revision A.03,
 Gaussian 16:  ES64L-G16RevA.03 25-Dec-2016

 ------------------
 #p CCSD(T)/cc-pVTZ
 ------------------

 -----------
 H2O_H2O_763
 -----------
 Symbolic Z-matrix:
 Charge =  0 Multiplicity = 1

                         Standard orientation:
 ---------------------------------------------------------------------
 Center     Atomic      Atomic             Coordinates (Angstroms)
 Number     Number       Type             X           Y           Z
 ---------------------------------------------------------------------
      1          8           0        0.043000   -1.181484    0.000000
      2          1           0       -0.758326   -1.750152    0.000000
      3          1           0        0.840809   -1.755074    0.000000
      4          8           0        0.043000    1.220131    0.000000
      5          1           0        0.143803    2.197548    0.000000
      6          1           0       -0.914281    0.998501    0.000000
 ---------------------------------------------------------------------

 SCF Done:  E(RHF) =  -152.093160820     A.U. after   11 cycles
 E2 =    -0.5299077680D+00 EUMP2 =    -0.15262306858752D+03
 CCSD(T)
 CCSD(T)= -0.15265025368D+03

 The electronic state is 1-A'.
 Alpha  occ. eigenvalues --  -20.54144 -20.52810  -1.32025  -1.29984  -0.69364
 Alpha  occ. eigenvalues --   -0.67834  -0.56790  -0.50939  -0.49224  -0.46858
 Alpha virt. eigenvalues --    0.14048   0.17542   0.20194   0.23353   0.53198
 Alpha virt. eigenvalues --    0.57870   0.58193   0.61065   0.70841   0.75642
 Alpha virt. eigenvalues --    0.77968   0.80100   0.83385   0.85562   0.87451

 Mulliken charges:
               1
     1  O   -0.466382
     2  H    0.225215
     3  H    0.243488
     4  O   -0.452799
     5  H    0.206972
     6  H    0.243506
 Sum of Mulliken charges =  -0.00000

 Dipole moment (field-independent basis, Debye):
    X=             -1.3276    Y=             -0.7612    Z=              0.0000  Tot=              1.5303
 Quadrupole moment (field-independent basis, Debye-Ang):
   XX=             -9.0856   YY=             -3.7321   ZZ=            -14.7257
   XY=             -1.0368   XZ=              0.0000   YZ=              0.0000

 Normal termination of Gaussian 16 at Fri Aug 26 19:46:26 2022.
