 Gaussian 16, Revision A.03,
 Gaussian 16:  ES64L-G16RevA.03 25-Dec-2016

 ------------------
 #p CCSD(T)/cc-pVTZ
 ------------------

 ---------
 H2O_H2O_3
 ---------
 Symbolic Z-matrix:
 Charge =  0 Multiplicity = 1

                         Standard orientation:
 ---------------------------------------------------------------------
 Center     Atomic      Atomic             Coordinates (Angstroms)
 Number     Number       Type             X           Y           Z
 ---------------------------------------------------------------------
      1          8           0        0.011144   -0.802421    0.000000
      2          1           0       -0.789109   -1.372598    0.000000
      3          1           0        0.810032   -1.374507    0.000000
      4          8           0        0.011144    0.804589    0.000000
      5          1           0        0.684783    1.519932    0.000000
      6          1           0       -0.884003    1.209827    0.000000
 ---------------------------------------------------------------------

 SCF Done:  E(RHF) =  -151.905569066     A.U. after   12 cycles
 E2 =    -0.5538524266D+00 EUMP2 =    -0.15245942149253D+03
 CCSD(T)
 CCSD(T)= -0.15248327344D+03

 The electronic state is 1-A'.
 Alpha  occ. eigenvalues --  -20.51648 -20.51586  -1.37632  -1.26895  -0.71689
 Alpha  occ. eigenvalues --   -0.69439  -0.65110  -0.53545  -0.43129  -0.31540
 Alpha virt. eigenvalues --    0.14306   0.19531   0.20083   0.23069   0.50799
 Alpha virt. eigenvalues --    0.58156   0.59112   0.65920   0.68472   0.79003
 Alpha virt. eigenvalues --    0.80823   0.83697   0.83868   0.85526   0.88108

 Mulliken charges:
               1
     1  O   -0.327237
     2  H    0.156767
     3  H    0.171124
     4  O   -0.321083
     5  H    0.130095
     6  H    0.190333
 Sum of Mulliken charges =  -0.00000

 Dipole moment (field-independent basis, Debye):
    X=             -0.3247    Y=             -0.0654    Z=              0.0000  Tot=              0.3312
 Quadrupole moment (field-independent basis, Debye-Ang):
   XX=             -8.6767   YY=             -9.5603   ZZ=            -14.7836
   XY=             -0.2009   XZ=              0.0000   YZ=              0.0000

 03813\MP4DQ=-152.461266\MP4SDQ=-152.4658164\CCSD=-152.4642778\CCSD(T)=
 Normal termination of Gaussian 16 at Fri Aug 26 11:48:08 2022.
