 Gaussian 16, Revision A.03,
 Gaussian 16:  ES64L-G16RevA.03 25-Dec-2016

 ------------------
 #p CCSD(T)/cc-pVTZ
 ------------------

 ------------
 H2O_H2O_1667
 ------------
 Symbolic Z-matrix:
 Charge =  0 Multiplicity = 1

                         Standard orientation:
 ---------------------------------------------------------------------
 Center     Atomic      Atomic             Coordinates (Angstroms)
 Number     Number       Type             X           Y           Z
 ---------------------------------------------------------------------
      1          8           0        0.051307   -1.646675    0.000000
      2          1           0       -0.749762   -2.215704    0.000000
      3          1           0        0.849375   -2.219905    0.000000
      4          8           0        0.051307    1.710111    0.000000
      5          1           0       -0.104736    2.680243    0.000000
      6          1           0       -0.815785    1.247878    0.000000
 ---------------------------------------------------------------------

 SCF Done:  E(RHF) =  -152.106767924     A.U. after   10 cycles
 E2 =    -0.5267476218D+00 EUMP2 =    -0.15263351554581D+03
 CCSD(T)
 CCSD(T)= -0.15266069134D+03

 The electronic state is 1-A'.
 Alpha  occ. eigenvalues --  -20.55440 -20.53959  -1.32718  -1.31225  -0.70137
 Alpha  occ. eigenvalues --   -0.68605  -0.56132  -0.54570  -0.49832  -0.48343
 Alpha virt. eigenvalues --    0.13503   0.16542   0.20030   0.22899   0.54346
 Alpha virt. eigenvalues --    0.54536   0.57318   0.58464   0.65153   0.76335
 Alpha virt. eigenvalues --    0.77881   0.78071   0.78572   0.81333   0.84913

 Mulliken charges:
               1
     1  O   -0.491543
     2  H    0.241999
     3  H    0.253699
     4  O   -0.498398
     5  H    0.237873
     6  H    0.256370
 Sum of Mulliken charges =  -0.00000

 Dipole moment (field-independent basis, Debye):
    X=             -1.7011    Y=             -1.1965    Z=              0.0000  Tot=              2.0798
 Quadrupole moment (field-independent basis, Debye-Ang):
   XX=             -9.4744   YY=             -0.9095   ZZ=            -14.7165
   XY=             -2.4236   XZ=              0.0000   YZ=              0.0000

 Normal termination of Gaussian 16 at Sat Aug 27 06:06:52 2022.
