 Gaussian 16, Revision A.03,
 Gaussian 16:  ES64L-G16RevA.03 25-Dec-2016

 ------------------
 #p CCSD(T)/cc-pVTZ
 ------------------

 ------------
 H2O_H2O_1503
 ------------
 Symbolic Z-matrix:
 Charge =  0 Multiplicity = 1

                         Standard orientation:
 ---------------------------------------------------------------------
 Center     Atomic      Atomic             Coordinates (Angstroms)
 Number     Number       Type             X           Y           Z
 ---------------------------------------------------------------------
      1          8           0        0.011143   -1.600169    0.000000
      2          1           0       -0.788770   -2.170822    0.000000
      3          1           0        0.810372   -2.171779    0.000000
      4          8           0        0.011143    1.602350    0.000000
      5          1           0        0.684357    2.318093    0.000000
      6          1           0       -0.884245    2.007055    0.000000
 ---------------------------------------------------------------------

 SCF Done:  E(RHF) =  -152.102765127     A.U. after   10 cycles
 E2 =    -0.5270380594D+00 EUMP2 =    -0.15262980318652D+03
 CCSD(T)
 CCSD(T)= -0.15265707987D+03

 The electronic state is 1-A'.
 Alpha  occ. eigenvalues --  -20.54075 -20.54027  -1.31411  -1.31268  -0.68829
 Alpha  occ. eigenvalues --   -0.68710  -0.55446  -0.53613  -0.48581  -0.48268
 Alpha virt. eigenvalues --    0.14312   0.16462   0.20569   0.21693   0.52378
 Alpha virt. eigenvalues --    0.58187   0.58501   0.58829   0.63422   0.76255
 Alpha virt. eigenvalues --    0.78310   0.78382   0.79603   0.82104   0.85854

 Mulliken charges:
               1
     1  O   -0.477749
     2  H    0.237337
     3  H    0.240497
     4  O   -0.477424
     5  H    0.237149
     6  H    0.240190
 Sum of Mulliken charges =  -0.00000

 Dipole moment (field-independent basis, Debye):
    X=             -0.3682    Y=             -0.0409    Z=              0.0000  Tot=              0.3704
 Quadrupole moment (field-independent basis, Debye-Ang):
   XX=             -7.9556   YY=              0.4250   ZZ=            -14.7092
   XY=             -0.2856   XZ=              0.0000   YZ=              0.0000

 Normal termination of Gaussian 16 at Sat Aug 27 05:09:11 2022.
