 Gaussian 16, Revision A.03,
 Gaussian 16:  ES64L-G16RevA.03 25-Dec-2016

 ------------------
 #p CCSD(T)/cc-pVTZ
 ------------------

 ------------
 H2O_H2O_3317
 ------------
 Symbolic Z-matrix:
 Charge =  0 Multiplicity = 1

                         Standard orientation:
 ---------------------------------------------------------------------
 Center     Atomic      Atomic             Coordinates (Angstroms)
 Number     Number       Type             X           Y           Z
 ---------------------------------------------------------------------
      1          8           0        0.051278   -2.524157    0.000000
      2          1           0       -0.749277   -3.093908    0.000000
      3          1           0        0.849863   -3.096667    0.000000
      4          8           0        0.051278    2.587685    0.000000
      5          1           0       -0.105640    3.557676    0.000000
      6          1           0       -0.815396    2.124671    0.000000
 ---------------------------------------------------------------------

 SCF Done:  E(RHF) =  -152.107199815     A.U. after   10 cycles
 E2 =    -0.5259403996D+00 EUMP2 =    -0.15263314021431D+03
 CCSD(T)
 CCSD(T)= -0.15266036111D+03

 The electronic state is 1-A'.
 Alpha  occ. eigenvalues --  -20.55478 -20.54897  -1.32774  -1.32191  -0.70182
 Alpha  occ. eigenvalues --   -0.69585  -0.56211  -0.55627  -0.49884  -0.49304
 Alpha virt. eigenvalues --    0.13924   0.14948   0.20200   0.20946   0.54323
 Alpha virt. eigenvalues --    0.54952   0.57283   0.57821   0.67313   0.69477
 Alpha virt. eigenvalues --    0.78998   0.79564   0.80355   0.80863   0.82722

 Mulliken charges:
               1
     1  O   -0.507549
     2  H    0.251714
     3  H    0.255917
     4  O   -0.507102
     5  H    0.249896
     6  H    0.257124
 Sum of Mulliken charges =  -0.00000

 Dipole moment (field-independent basis, Debye):
    X=             -1.7544    Y=             -1.1226    Z=              0.0000  Tot=              2.0828
 Quadrupole moment (field-independent basis, Debye-Ang):
   XX=             -9.4577   YY=              4.2843   ZZ=            -14.7120
   XY=             -3.9338   XZ=              0.0000   YZ=              0.0000

 Normal termination of Gaussian 16 at Fri Aug 26 21:19:10 2022.
