 Gaussian 16, Revision A.03,
 Gaussian 16:  ES64L-G16RevA.03 25-Dec-2016

 ------------------
 #p CCSD(T)/cc-pVTZ
 ------------------

 ------------
 H2O_H2O_2164
 ------------
 Symbolic Z-matrix:
 Charge =  0 Multiplicity = 1

                         Standard orientation:
 ---------------------------------------------------------------------
 Center     Atomic      Atomic             Coordinates (Angstroms)
 Number     Number       Type             X           Y           Z
 ---------------------------------------------------------------------
      1          8           0        0.045356   -1.922873    0.000000
      2          1           0       -0.755359   -2.492401    0.000000
      3          1           0        0.843780   -2.495608    0.000000
      4          8           0        0.045356    1.967381    0.000000
      5          1           0        0.080964    2.949338    0.000000
      6          1           0       -0.895075    1.682608    0.000000
 ---------------------------------------------------------------------

 SCF Done:  E(RHF) =  -152.106393062     A.U. after   10 cycles
 E2 =    -0.5262894648D+00 EUMP2 =    -0.15263268252635D+03
 CCSD(T)
 CCSD(T)= -0.15265989395D+03

 The electronic state is 1-A'.
 Alpha  occ. eigenvalues --  -20.55161 -20.54420  -1.32442  -1.31697  -0.69857
 Alpha  occ. eigenvalues --   -0.69083  -0.55840  -0.55058  -0.49548  -0.48808
 Alpha virt. eigenvalues --    0.13641   0.15892   0.20250   0.21714   0.53538
 Alpha virt. eigenvalues --    0.55032   0.57566   0.58320   0.64315   0.75462
 Alpha virt. eigenvalues --    0.79060   0.79551   0.80303   0.81252   0.83839

 Mulliken charges:
               1
     1  O   -0.498655
     2  H    0.246048
     3  H    0.253674
     4  O   -0.499941
     5  H    0.243795
     6  H    0.255080
 Sum of Mulliken charges =  -0.00000

 Dipole moment (field-independent basis, Debye):
    X=             -1.5286    Y=             -0.8130    Z=              0.0000  Tot=              1.7314
 Quadrupole moment (field-independent basis, Debye-Ang):
   XX=             -9.1094   YY=              1.6462   ZZ=            -14.7124
   XY=             -2.2754   XZ=              0.0000   YZ=              0.0000

 Normal termination of Gaussian 16 at Sat Aug 27 08:57:09 2022.
