 Gaussian 16, Revision A.03,
 Gaussian 16:  ES64L-G16RevA.03 25-Dec-2016

 ------------------
 #p CCSD(T)/cc-pVTZ
 ------------------

 ------------
 H2O_H2O_3527
 ------------
 Symbolic Z-matrix:
 Charge =  0 Multiplicity = 1

                         Standard orientation:
 ---------------------------------------------------------------------
 Center     Atomic      Atomic             Coordinates (Angstroms)
 Number     Number       Type             X           Y           Z
 ---------------------------------------------------------------------
      1          8           0        0.007455   -2.677793    0.000000
      2          1           0       -0.792253   -3.248734    0.000000
      3          1           0        0.806889   -3.249117    0.000000
      4          8           0        0.007455    2.678767    0.000000
      5          1           0        0.725799    3.349206    0.000000
      6          1           0       -0.859713    3.140856    0.000000
 ---------------------------------------------------------------------

 SCF Done:  E(RHF) =  -152.106403978     A.U. after   10 cycles
 E2 =    -0.5259855926D+00 EUMP2 =    -0.15263238957086D+03
 CCSD(T)
 CCSD(T)= -0.15265962996D+03

 The electronic state is 1-A'.
 Alpha  occ. eigenvalues --  -20.55017 -20.55010  -1.32312  -1.32304  -0.69720
 Alpha  occ. eigenvalues --   -0.69712  -0.55713  -0.55701  -0.49416  -0.49408
 Alpha virt. eigenvalues --    0.14473   0.14686   0.20566   0.20641   0.54814
 Alpha virt. eigenvalues --    0.54899   0.57670   0.57706   0.68086   0.69039
 Alpha virt. eigenvalues --    0.79458   0.79472   0.80893   0.80942   0.82784

 Mulliken charges:
               1
     1  O   -0.502956
     2  H    0.251209
     3  H    0.251747
     4  O   -0.502942
     5  H    0.251114
     6  H    0.251828
 Sum of Mulliken charges =  -0.00000

 Dipole moment (field-independent basis, Debye):
    X=             -0.2552    Y=             -0.0171    Z=              0.0000  Tot=              0.2558
 Quadrupole moment (field-independent basis, Debye-Ang):
   XX=             -7.8451   YY=              9.3187   ZZ=            -14.7101
   XY=             -0.4560   XZ=              0.0000   YZ=              0.0000

 9076\MP4DQ=-152.6415123\MP4SDQ=-152.6445763\CCSD=-152.6439865\CCSD(T)=
 Normal termination of Gaussian 16 at Sat Aug 27 01:14:51 2022.
