 Gaussian 16, Revision A.03,
 Gaussian 16:  ES64L-G16RevA.03 25-Dec-2016

 ------------------
 #p CCSD(T)/cc-pVTZ
 ------------------

 ------------
 H2O_H2O_2408
 ------------
 Symbolic Z-matrix:
 Charge =  0 Multiplicity = 1

                         Standard orientation:
 ---------------------------------------------------------------------
 Center     Atomic      Atomic             Coordinates (Angstroms)
 Number     Number       Type             X           Y           Z
 ---------------------------------------------------------------------
      1          8           0        0.028566   -2.071731    0.000000
      2          1           0       -0.771680   -2.641917    0.000000
      3          1           0        0.827461   -2.643808    0.000000
      4          8           0        0.028566    2.086967    0.000000
      5          1           0        0.436507    2.980886    0.000000
      6          1           0       -0.949337    2.182952    0.000000
 ---------------------------------------------------------------------

 SCF Done:  E(RHF) =  -152.105722319     A.U. after   10 cycles
 E2 =    -0.5261968005D+00 EUMP2 =    -0.15263191911913D+03
 CCSD(T)
 CCSD(T)= -0.15265915936D+03

 The electronic state is 1-A'.
 Alpha  occ. eigenvalues --  -20.54823 -20.54611  -1.32109  -1.31894  -0.69524
 Alpha  occ. eigenvalues --   -0.69300  -0.55511  -0.55202  -0.49210  -0.48996
 Alpha virt. eigenvalues --    0.14072   0.15512   0.20510   0.21135   0.54223
 Alpha virt. eigenvalues --    0.55589   0.57790   0.58067   0.64025   0.73847
 Alpha virt. eigenvalues --    0.79489   0.80040   0.80773   0.81155   0.82390

 Mulliken charges:
               1
     1  O   -0.498002
     2  H    0.247022
     3  H    0.251127
     4  O   -0.497679
     5  H    0.246122
     6  H    0.251410
 Sum of Mulliken charges =  -0.00000

 Dipole moment (field-independent basis, Debye):
    X=             -0.9678    Y=             -0.2744    Z=              0.0000  Tot=              1.0059
 Quadrupole moment (field-independent basis, Debye-Ang):
   XX=             -8.3365   YY=              3.9020   ZZ=            -14.7102
   XY=             -1.2996   XZ=              0.0000   YZ=              0.0000

 Normal termination of Gaussian 16 at Sat Aug 27 10:23:41 2022.
