 Gaussian 16, Revision A.03,
 Gaussian 16:  ES64L-G16RevA.03 25-Dec-2016

 ------------------
 #p CCSD(T)/cc-pVTZ
 ------------------

 -----------
 H2O_H2O_573
 -----------
 Symbolic Z-matrix:
 Charge =  0 Multiplicity = 1

                         Standard orientation:
 ---------------------------------------------------------------------
 Center     Atomic      Atomic             Coordinates (Angstroms)
 Number     Number       Type             X           Y           Z
 ---------------------------------------------------------------------
      1          8           0        0.057230   -1.038404    0.000000
      2          1           0       -0.744900   -1.605936    0.000000
      3          1           0        0.854226   -1.613124    0.000000
      4          8           0        0.057230    1.144646    0.000000
      5          1           0       -0.456626    1.982177    0.000000
      6          1           0       -0.568386    0.386944    0.000000
 ---------------------------------------------------------------------

 SCF Done:  E(RHF) =  -152.077078255     A.U. after   11 cycles
 E2 =    -0.5343736391D+00 EUMP2 =    -0.15261145189367D+03
 CCSD(T)
 CCSD(T)= -0.15263791965D+03

 The electronic state is 1-A'.
 Alpha  occ. eigenvalues --  -20.56997 -20.50182  -1.36091  -1.28018  -0.73457
 Alpha  occ. eigenvalues --   -0.69942  -0.53730  -0.52649  -0.51795  -0.44992
 Alpha virt. eigenvalues --    0.12832   0.18746   0.19260   0.27232   0.49592
 Alpha virt. eigenvalues --    0.55111   0.61945   0.65403   0.71829   0.73957
 Alpha virt. eigenvalues --    0.77057   0.81409   0.83594   0.84677   0.87185

 Mulliken charges:
               1
     1  O   -0.410400
     2  H    0.217084
     3  H    0.245107
     4  O   -0.517862
     5  H    0.201466
     6  H    0.264605
 Sum of Mulliken charges =  -0.00000

 Dipole moment (field-independent basis, Debye):
    X=             -1.7130    Y=             -2.4609    Z=              0.0000  Tot=              2.9984
 Quadrupole moment (field-independent basis, Debye-Ang):
   XX=             -9.8378   YY=             -6.3933   ZZ=            -14.6742
   XY=             -2.3624   XZ=              0.0000   YZ=              0.0000

 Normal termination of Gaussian 16 at Fri Aug 26 17:46:01 2022.
