 Gaussian 16, Revision A.03,
 Gaussian 16:  ES64L-G16RevA.03 25-Dec-2016

 ------------------
 #p CCSD(T)/cc-pVTZ
 ------------------

 -----------
 H2O_H2O_196
 -----------
 Symbolic Z-matrix:
 Charge =  0 Multiplicity = 1

                         Standard orientation:
 ---------------------------------------------------------------------
 Center     Atomic      Atomic             Coordinates (Angstroms)
 Number     Number       Type             X           Y           Z
 ---------------------------------------------------------------------
      1          8           0        0.056263   -0.847058    0.000000
      2          1           0       -0.746381   -1.413863    0.000000
      3          1           0        0.852738   -1.422501    0.000000
      4          8           0        0.056263    0.938394    0.000000
      5          1           0       -0.343062    1.836194    0.000000
      6          1           0       -0.663507    0.269486    0.000000
 ---------------------------------------------------------------------

 SCF Done:  E(RHF) =  -151.976374899     A.U. after   11 cycles
 E2 =    -0.5450320050D+00 EUMP2 =    -0.15252140690361D+03
 CCSD(T)
 CCSD(T)= -0.15254673046D+03

 The electronic state is 1-A'.
 Alpha  occ. eigenvalues --  -20.55822 -20.48722  -1.39357  -1.26369  -0.76989
 Alpha  occ. eigenvalues --   -0.71695  -0.54227  -0.51658  -0.45301  -0.43316
 Alpha virt. eigenvalues --    0.13035   0.18558   0.19982   0.26087   0.49822
 Alpha virt. eigenvalues --    0.54307   0.62351   0.67942   0.73042   0.76026
 Alpha virt. eigenvalues --    0.78770   0.79744   0.84174   0.85143   0.88449

 Mulliken charges:
               1
     1  O   -0.325617
     2  H    0.173184
     3  H    0.218717
     4  O   -0.475408
     5  H    0.147926
     6  H    0.261198
 Sum of Mulliken charges =  -0.00000

 Dipole moment (field-independent basis, Debye):
    X=             -1.5190    Y=             -2.2439    Z=              0.0000  Tot=              2.7097
 Quadrupole moment (field-independent basis, Debye-Ang):
   XX=             -9.8124   YY=             -8.0648   ZZ=            -14.5855
   XY=             -1.6204   XZ=              0.0000   YZ=              0.0000

 Normal termination of Gaussian 16 at Fri Aug 26 13:53:13 2022.
