 Gaussian 16, Revision A.03,
 Gaussian 16:  ES64L-G16RevA.03 25-Dec-2016

 ------------------
 #p CCSD(T)/cc-pVTZ
 ------------------

 ------------
 H2O_H2O_4911
 ------------
 Symbolic Z-matrix:
 Charge =  0 Multiplicity = 1

                         Standard orientation:
 ---------------------------------------------------------------------
 Center     Atomic      Atomic             Coordinates (Angstroms)
 Number     Number       Type             X           Y           Z
 ---------------------------------------------------------------------
      1          8           0        0.037671   -3.394241    0.000000
      2          1           0       -0.762443   -3.964612    0.000000
      3          1           0        0.836698   -3.966133    0.000000
      4          8           0        0.037671    3.422516    0.000000
      5          1           0        0.263157    4.378896    0.000000
      6          1           0       -0.940146    3.325652    0.000000
 ---------------------------------------------------------------------

 SCF Done:  E(RHF) =  -152.107125538     A.U. after   10 cycles
 E2 =    -0.5258992532D+00 EUMP2 =    -0.15263302479127D+03
 CCSD(T)
 CCSD(T)= -0.15266025122D+03

 The electronic state is 1-A'.
 Alpha  occ. eigenvalues --  -20.55383 -20.55244  -1.32681  -1.32540  -0.70087
 Alpha  occ. eigenvalues --   -0.69944  -0.56115  -0.55975  -0.49790  -0.49650
 Alpha virt. eigenvalues --    0.14270   0.14410   0.20330   0.20476   0.54478
 Alpha virt. eigenvalues --    0.54628   0.57371   0.57511   0.68096   0.68238
 Alpha virt. eigenvalues --    0.79089   0.79228   0.80527   0.80677   0.82451

 Mulliken charges:
               1
     1  O   -0.507204
     2  H    0.252918
     3  H    0.254287
     4  O   -0.507108
     5  H    0.252480
     6  H    0.254629
 Sum of Mulliken charges =  -0.00000

 Dipole moment (field-independent basis, Debye):
    X=             -1.2958    Y=             -0.4926    Z=              0.0000  Tot=              1.3862
 Quadrupole moment (field-independent basis, Debye-Ang):
   XX=             -8.6951   YY=             12.7116   ZZ=            -14.7113
   XY=             -3.5648   XZ=              0.0000   YZ=              0.0000

 Normal termination of Gaussian 16 at Sat Aug 27 10:05:02 2022.
