 Gaussian 16, Revision A.03,
 Gaussian 16:  ES64L-G16RevA.03 25-Dec-2016

 ------------------
 #p CCSD(T)/cc-pVTZ
 ------------------

 ------------
 H2O_H2O_2789
 ------------
 Symbolic Z-matrix:
 Charge =  0 Multiplicity = 1

                         Standard orientation:
 ---------------------------------------------------------------------
 Center     Atomic      Atomic             Coordinates (Angstroms)
 Number     Number       Type             X           Y           Z
 ---------------------------------------------------------------------
      1          8           0        0.045349   -2.255258    0.000000
      2          1           0       -0.755199   -2.825019    0.000000
      3          1           0        0.843941   -2.827758    0.000000
      4          8           0        0.045349    2.299792    0.000000
      5          1           0        0.080670    3.281758    0.000000
      6          1           0       -0.894998    2.014742    0.000000
 ---------------------------------------------------------------------

 SCF Done:  E(RHF) =  -152.106707799     A.U. after   10 cycles
 E2 =    -0.5260385400D+00 EUMP2 =    -0.15263274633907D+03
 CCSD(T)
 CCSD(T)= -0.15265997253D+03

 The electronic state is 1-A'.
 Alpha  occ. eigenvalues --  -20.55252 -20.54733  -1.32544  -1.32022  -0.69954
 Alpha  occ. eigenvalues --   -0.69415  -0.55954  -0.55432  -0.49651  -0.49132
 Alpha virt. eigenvalues --    0.13867   0.15281   0.20293   0.21138   0.54301
 Alpha virt. eigenvalues --    0.55063   0.57479   0.57939   0.66292   0.71676
 Alpha virt. eigenvalues --    0.79217   0.79747   0.80445   0.81483   0.83059

 Mulliken charges:
               1
     1  O   -0.504212
     2  H    0.249649
     3  H    0.254782
     4  O   -0.503900
     5  H    0.247925
     6  H    0.255756
 Sum of Mulliken charges =  -0.00000

 Dipole moment (field-independent basis, Debye):
    X=             -1.5444    Y=             -0.7945    Z=              0.0000  Tot=              1.7368
 Quadrupole moment (field-independent basis, Debye-Ang):
   XX=             -9.1013   YY=              3.8311   ZZ=            -14.7115
   XY=             -2.7819   XZ=              0.0000   YZ=              0.0000

 Normal termination of Gaussian 16 at Fri Aug 26 16:11:28 2022.
