 Gaussian 16, Revision A.03,
 Gaussian 16:  ES64L-G16RevA.03 25-Dec-2016

 ------------------
 #p CCSD(T)/cc-pVTZ
 ------------------

 ------------
 H2O_H2O_4115
 ------------
 Symbolic Z-matrix:
 Charge =  0 Multiplicity = 1

                         Standard orientation:
 ---------------------------------------------------------------------
 Center     Atomic      Atomic             Coordinates (Angstroms)
 Number     Number       Type             X           Y           Z
 ---------------------------------------------------------------------
      1          8           0        0.047523   -2.956628    0.000000
      2          1           0       -0.752831   -3.526663    0.000000
      3          1           0        0.846310   -3.528856    0.000000
      4          8           0        0.047523    3.007263    0.000000
      5          1           0        0.018208    3.989428    0.000000
      6          1           0       -0.872050    2.661009    0.000000
 ---------------------------------------------------------------------

 SCF Done:  E(RHF) =  -152.107161443     A.U. after   10 cycles
 E2 =    -0.5259075209D+00 EUMP2 =    -0.15263306896385D+03
 CCSD(T)
 CCSD(T)= -0.15266029389D+03

 The electronic state is 1-A'.
 Alpha  occ. eigenvalues --  -20.55437 -20.55106  -1.32735  -1.32402  -0.70141
 Alpha  occ. eigenvalues --   -0.69802  -0.56170  -0.55837  -0.49844  -0.49513
 Alpha virt. eigenvalues --    0.14194   0.14570   0.20276   0.20638   0.54420
 Alpha virt. eigenvalues --    0.54777   0.57319   0.57653   0.67980   0.68436
 Alpha virt. eigenvalues --    0.79035   0.79362   0.80470   0.80823   0.82412

 Mulliken charges:
               1
     1  O   -0.507441
     2  H    0.252462
     3  H    0.254981
     4  O   -0.507185
     5  H    0.251486
     6  H    0.255697
 Sum of Mulliken charges =  -0.00000

 Dipole moment (field-independent basis, Debye):
    X=             -1.6317    Y=             -0.8863    Z=              0.0000  Tot=              1.8569
 Quadrupole moment (field-independent basis, Debye-Ang):
   XX=             -9.2246   YY=              7.8861   ZZ=            -14.7115
   XY=             -4.1407   XZ=              0.0000   YZ=              0.0000

 Normal termination of Gaussian 16 at Sat Aug 27 05:27:43 2022.
