 Gaussian 16, Revision A.03,
 Gaussian 16:  ES64L-G16RevA.03 25-Dec-2016

 ------------------
 #p CCSD(T)/cc-pVTZ
 ------------------

 ------------
 H2O_H2O_3390
 ------------
 Symbolic Z-matrix:
 Charge =  0 Multiplicity = 1

                         Standard orientation:
 ---------------------------------------------------------------------
 Center     Atomic      Atomic             Coordinates (Angstroms)
 Number     Number       Type             X           Y           Z
 ---------------------------------------------------------------------
      1          8           0        0.047528   -2.571057    0.000000
      2          1           0       -0.752941   -3.140929    0.000000
      3          1           0        0.846199   -3.143447    0.000000
      4          8           0        0.047528    2.621673    0.000000
      5          1           0        0.018413    3.603843    0.000000
      6          1           0       -0.872115    2.275605    0.000000
 ---------------------------------------------------------------------

 SCF Done:  E(RHF) =  -152.107011785     A.U. after   10 cycles
 E2 =    -0.5259475399D+00 EUMP2 =    -0.15263295932486D+03
 CCSD(T)
 CCSD(T)= -0.15266018535D+03

 The electronic state is 1-A'.
 Alpha  occ. eigenvalues --  -20.55377 -20.54933  -1.32673  -1.32226  -0.70081
 Alpha  occ. eigenvalues --   -0.69623  -0.56101  -0.55654  -0.49781  -0.49337
 Alpha virt. eigenvalues --    0.14075   0.14860   0.20280   0.20850   0.54440
 Alpha virt. eigenvalues --    0.54948   0.57367   0.57795   0.67534   0.69275
 Alpha virt. eigenvalues --    0.79099   0.79533   0.80500   0.80942   0.82667

 Mulliken charges:
               1
     1  O   -0.506535
     2  H    0.251410
     3  H    0.255162
     4  O   -0.506110
     5  H    0.249984
     6  H    0.256090
 Sum of Mulliken charges =   0.00000

 Dipole moment (field-independent basis, Debye):
    X=             -1.6267    Y=             -0.8926    Z=              0.0000  Tot=              1.8555
 Quadrupole moment (field-independent basis, Debye-Ang):
   XX=             -9.2255   YY=              5.4752   ZZ=            -14.7115
   XY=             -3.5182   XZ=              0.0000   YZ=              0.0000

 Normal termination of Gaussian 16 at Fri Aug 26 21:55:48 2022.
