 Gaussian 16, Revision A.03,
 Gaussian 16:  ES64L-G16RevA.03 25-Dec-2016

 ------------------
 #p CCSD(T)/cc-pVTZ
 ------------------

 ------------
 H2O_H2O_4623
 ------------
 Symbolic Z-matrix:
 Charge =  0 Multiplicity = 1

                         Standard orientation:
 ---------------------------------------------------------------------
 Center     Atomic      Atomic             Coordinates (Angstroms)
 Number     Number       Type             X           Y           Z
 ---------------------------------------------------------------------
      1          8           0        0.057072   -3.192164    0.000000
      2          1           0       -0.743362   -3.762086    0.000000
      3          1           0        0.855778   -3.764504    0.000000
      4          8           0        0.057072    3.298747    0.000000
      5          1           0       -0.459280    4.134741    0.000000
      6          1           0       -0.566281    2.539182    0.000000
 ---------------------------------------------------------------------

 SCF Done:  E(RHF) =  -152.107639674     A.U. after   10 cycles
 E2 =    -0.5258568858D+00 EUMP2 =    -0.15263349655954D+03
 CCSD(T)
 CCSD(T)= -0.15266071188D+03

 The electronic state is 1-A'.
 Alpha  occ. eigenvalues --  -20.55743 -20.55165  -1.33043  -1.32465  -0.70449
 Alpha  occ. eigenvalues --   -0.69864  -0.56501  -0.55917  -0.50156  -0.49580
 Alpha virt. eigenvalues --    0.13943   0.14536   0.20038   0.20655   0.54110
 Alpha virt. eigenvalues --    0.54706   0.57049   0.57626   0.67653   0.68284
 Alpha virt. eigenvalues --    0.78724   0.79291   0.80150   0.80752   0.82088

 Mulliken charges:
               1
     1  O   -0.510262
     2  H    0.254041
     3  H    0.256222
     4  O   -0.509925
     5  H    0.252595
     6  H    0.257329
 Sum of Mulliken charges =  -0.00000

 Dipole moment (field-independent basis, Debye):
    X=             -1.9625    Y=             -1.8610    Z=              0.0000  Tot=              2.7046
 Quadrupole moment (field-independent basis, Debye-Ang):
   XX=             -9.8552   YY=              3.7158   ZZ=            -14.7126
   XY=             -6.4919   XZ=              0.0000   YZ=              0.0000

 Normal termination of Gaussian 16 at Sat Aug 27 08:23:39 2022.
