 Gaussian 16, Revision A.03,
 Gaussian 16:  ES64L-G16RevA.03 25-Dec-2016

 ------------------
 #p CCSD(T)/cc-pVTZ
 ------------------

 ------------
 H2O_H2O_4002
 ------------
 Symbolic Z-matrix:
 Charge =  0 Multiplicity = 1

                         Standard orientation:
 ---------------------------------------------------------------------
 Center     Atomic      Atomic             Coordinates (Angstroms)
 Number     Number       Type             X           Y           Z
 ---------------------------------------------------------------------
      1          8           0        0.007455   -2.930416    0.000000
      2          1           0       -0.792241   -3.501373    0.000000
      3          1           0        0.806901   -3.501723    0.000000
      4          8           0        0.007455    2.931390    0.000000
      5          1           0        0.725785    3.601843    0.000000
      6          1           0       -0.859723    3.393460    0.000000
 ---------------------------------------------------------------------

 SCF Done:  E(RHF) =  -152.106655163     A.U. after   10 cycles
 E2 =    -0.5259511697D+00 EUMP2 =    -0.15263260633273D+03
 CCSD(T)
 CCSD(T)= -0.15265984211D+03

 The electronic state is 1-A'.
 Alpha  occ. eigenvalues --  -20.55119 -20.55113  -1.32414  -1.32408  -0.69822
 Alpha  occ. eigenvalues --   -0.69815  -0.55827  -0.55820  -0.49520  -0.49514
 Alpha virt. eigenvalues --    0.14461   0.14536   0.20519   0.20550   0.54740
 Alpha virt. eigenvalues --    0.54764   0.57596   0.57612   0.68313   0.68540
 Alpha virt. eigenvalues --    0.79358   0.79365   0.80803   0.80814   0.82734

 Mulliken charges:
               1
     1  O   -0.504427
     2  H    0.252005
     3  H    0.252423
     4  O   -0.504419
     5  H    0.251924
     6  H    0.252495
 Sum of Mulliken charges =  -0.00000

 Dipole moment (field-independent basis, Debye):
    X=             -0.2558    Y=             -0.0170    Z=              0.0000  Tot=              0.2563
 Quadrupole moment (field-independent basis, Debye-Ang):
   XX=             -7.8408   YY=             11.3431   ZZ=            -14.7104
   XY=             -0.5199   XZ=              0.0000   YZ=              0.0000

 Normal termination of Gaussian 16 at Sat Aug 27 04:49:40 2022.
