 Gaussian 16, Revision A.03,
 Gaussian 16:  ES64L-G16RevA.03 25-Dec-2016

 ------------------
 #p CCSD(T)/cc-pVTZ
 ------------------

 ------------
 H2O_H2O_4111
 ------------
 Symbolic Z-matrix:
 Charge =  0 Multiplicity = 1

                         Standard orientation:
 ---------------------------------------------------------------------
 Center     Atomic      Atomic             Coordinates (Angstroms)
 Number     Number       Type             X           Y           Z
 ---------------------------------------------------------------------
      1          8           0        0.037673   -2.968777    0.000000
      2          1           0       -0.762518   -3.539040    0.000000
      3          1           0        0.836623   -3.540778    0.000000
      4          8           0        0.037673    2.997042    0.000000
      5          1           0        0.263288    3.953391    0.000000
      6          1           0       -0.940157    2.900311    0.000000
 ---------------------------------------------------------------------

 SCF Done:  E(RHF) =  -152.106949170     A.U. after   10 cycles
 E2 =    -0.5259251393D+00 EUMP2 =    -0.15263287430913D+03
 CCSD(T)
 CCSD(T)= -0.15266010385D+03

 The electronic state is 1-A'.
 Alpha  occ. eigenvalues --  -20.55302 -20.55118  -1.32599  -1.32413  -0.70006
 Alpha  occ. eigenvalues --   -0.69816  -0.56025  -0.55840  -0.49707  -0.49522
 Alpha virt. eigenvalues --    0.14319   0.14536   0.20383   0.20585   0.54559
 Alpha virt. eigenvalues --    0.54762   0.57439   0.57625   0.68149   0.68440
 Alpha virt. eigenvalues --    0.79172   0.79354   0.80612   0.80813   0.82544

 Mulliken charges:
               1
     1  O   -0.506178
     2  H    0.252084
     3  H    0.254094
     4  O   -0.506005
     5  H    0.251467
     6  H    0.254537
 Sum of Mulliken charges =  -0.00000

 Dipole moment (field-independent basis, Debye):
    X=             -1.2933    Y=             -0.4945    Z=              0.0000  Tot=              1.3846
 Quadrupole moment (field-independent basis, Debye-Ang):
   XX=             -8.6969   YY=              9.7307   ZZ=            -14.7110
   XY=             -3.0180   XZ=              0.0000   YZ=              0.0000

 Normal termination of Gaussian 16 at Sat Aug 27 05:26:27 2022.
