 Gaussian 16, Revision A.03,
 Gaussian 16:  ES64L-G16RevA.03 25-Dec-2016

 ------------------
 #p CCSD(T)/cc-pVTZ
 ------------------

 ------------
 H2O_H2O_1607
 ------------
 Symbolic Z-matrix:
 Charge =  0 Multiplicity = 1

                         Standard orientation:
 ---------------------------------------------------------------------
 Center     Atomic      Atomic             Coordinates (Angstroms)
 Number     Number       Type             X           Y           Z
 ---------------------------------------------------------------------
      1          8           0        0.025268   -1.648175    0.000000
      2          1           0       -0.775053   -2.218255    0.000000
      3          1           0        0.824088   -2.220357    0.000000
      4          8           0        0.025268    1.659888    0.000000
      5          1           0        0.490914    2.525151    0.000000
      6          1           0       -0.944241    1.819754    0.000000
 ---------------------------------------------------------------------

 SCF Done:  E(RHF) =  -152.103809550     A.U. after   10 cycles
 E2 =    -0.5268777483D+00 EUMP2 =    -0.15263068729783D+03
 CCSD(T)
 CCSD(T)= -0.15265794049D+03

 The electronic state is 1-A'.
 Alpha  occ. eigenvalues --  -20.54357 -20.54104  -1.31649  -1.31368  -0.69075
 Alpha  occ. eigenvalues --   -0.68787  -0.55451  -0.54045  -0.48780  -0.48423
 Alpha virt. eigenvalues --    0.14147   0.16357   0.20498   0.21730   0.52801
 Alpha virt. eigenvalues --    0.57277   0.58101   0.58590   0.63326   0.76773
 Alpha virt. eigenvalues --    0.78482   0.78681   0.79764   0.81732   0.85106

 Mulliken charges:
               1
     1  O   -0.482422
     2  H    0.238222
     3  H    0.244717
     4  O   -0.481879
     5  H    0.236964
     6  H    0.244397
 Sum of Mulliken charges =  -0.00000

 Dipole moment (field-independent basis, Debye):
    X=             -0.8378    Y=             -0.2192    Z=              0.0000  Tot=              0.8660
 Quadrupole moment (field-independent basis, Debye-Ang):
   XX=             -8.2620   YY=              0.6571   ZZ=            -14.7100
   XY=             -0.7651   XZ=              0.0000   YZ=              0.0000

 Normal termination of Gaussian 16 at Sat Aug 27 05:44:33 2022.
