 Gaussian 16, Revision A.03,
 Gaussian 16:  ES64L-G16RevA.03 25-Dec-2016

 ------------------
 #p CCSD(T)/cc-pVTZ
 ------------------

 ----------
 H2O_H2O_85
 ----------
 Symbolic Z-matrix:
 Charge =  0 Multiplicity = 1

                         Standard orientation:
 ---------------------------------------------------------------------
 Center     Atomic      Atomic             Coordinates (Angstroms)
 Number     Number       Type             X           Y           Z
 ---------------------------------------------------------------------
      1          8           0        0.034810   -0.830797    0.000000
      2          1           0       -0.766785   -1.399085    0.000000
      3          1           0        0.832347   -1.404766    0.000000
      4          8           0        0.034810    0.854154    0.000000
      5          1           0        0.324807    1.792988    0.000000
      6          1           0       -0.947329    0.824005    0.000000
 ---------------------------------------------------------------------

 SCF Done:  E(RHF) =  -151.959996126     A.U. after   12 cycles
 E2 =    -0.5467889371D+00 EUMP2 =    -0.15250678506273D+03
 CCSD(T)
 CCSD(T)= -0.15253202281D+03

 The electronic state is 1-A'.
 Alpha  occ. eigenvalues --  -20.52163 -20.51422  -1.36409  -1.26987  -0.72306
 Alpha  occ. eigenvalues --   -0.68880  -0.61364  -0.52502  -0.43498  -0.37060
 Alpha virt. eigenvalues --    0.14193   0.19068   0.19835   0.23568   0.53624
 Alpha virt. eigenvalues --    0.55901   0.58705   0.65497   0.72078   0.78056
 Alpha virt. eigenvalues --    0.79810   0.82607   0.83019   0.84716   0.88885

 Mulliken charges:
               1
     1  O   -0.364921
     2  H    0.171293
     3  H    0.195433
     4  O   -0.345748
     5  H    0.117623
     6  H    0.226321
 Sum of Mulliken charges =  -0.00000

 Dipole moment (field-independent basis, Debye):
    X=             -0.9527    Y=             -0.5662    Z=              0.0000  Tot=              1.1083
 Quadrupole moment (field-independent basis, Debye-Ang):
   XX=             -8.9505   YY=             -8.4051   ZZ=            -14.6996
   XY=             -0.4665   XZ=              0.0000   YZ=              0.0000

 Normal termination of Gaussian 16 at Fri Aug 26 12:37:05 2022.
