 Gaussian 16, Revision A.03,
 Gaussian 16:  ES64L-G16RevA.03 25-Dec-2016

 ------------------
 #p CCSD(T)/cc-pVTZ
 ------------------

 ----------
 H2O_H2O_68
 ----------
 Symbolic Z-matrix:
 Charge =  0 Multiplicity = 1

                         Standard orientation:
 ---------------------------------------------------------------------
 Center     Atomic      Atomic             Coordinates (Angstroms)
 Number     Number       Type             X           Y           Z
 ---------------------------------------------------------------------
      1          8           0        0.052959   -0.792201    0.000000
      2          1           0       -0.749737   -1.358934    0.000000
      3          1           0        0.849381   -1.367716    0.000000
      4          8           0        0.052959    0.862135    0.000000
      5          1           0       -0.163455    1.820608    0.000000
      6          1           0       -0.783525    0.346575    0.000000
 ---------------------------------------------------------------------

 SCF Done:  E(RHF) =  -151.925539792     A.U. after   12 cycles
 E2 =    -0.5501350244D+00 EUMP2 =    -0.15247567481670D+03
 CCSD(T)
 CCSD(T)= -0.15250053641D+03

 The electronic state is 1-A'.
 Alpha  occ. eigenvalues --  -20.54370 -20.50118  -1.40174  -1.26243  -0.76892
 Alpha  occ. eigenvalues --   -0.71738  -0.54645  -0.54437  -0.43249  -0.40061
 Alpha virt. eigenvalues --    0.13478   0.18838   0.19923   0.24759   0.50867
 Alpha virt. eigenvalues --    0.55401   0.60569   0.67244   0.73212   0.76729
 Alpha virt. eigenvalues --    0.79032   0.81042   0.84006   0.84477   0.88968

 Mulliken charges:
               1
     1  O   -0.306994
     2  H    0.147307
     3  H    0.197782
     4  O   -0.392269
     5  H    0.105779
     6  H    0.248396
 Sum of Mulliken charges =  -0.00000

 Dipole moment (field-independent basis, Debye):
    X=             -1.3679    Y=             -1.6497    Z=              0.0000  Tot=              2.1430
 Quadrupole moment (field-independent basis, Debye-Ang):
   XX=             -9.7166   YY=             -8.8692   ZZ=            -14.5813
   XY=             -1.0551   XZ=              0.0000   YZ=              0.0000

 Normal termination of Gaussian 16 at Fri Aug 26 12:26:35 2022.
