 Gaussian 16, Revision A.03,
 Gaussian 16:  ES64L-G16RevA.03 25-Dec-2016

 ------------------
 #p CCSD(T)/cc-pVTZ
 ------------------

 ------------
 H2O_H2O_4475
 ------------
 Symbolic Z-matrix:
 Charge =  0 Multiplicity = 1

                         Standard orientation:
 ---------------------------------------------------------------------
 Center     Atomic      Atomic             Coordinates (Angstroms)
 Number     Number       Type             X           Y           Z
 ---------------------------------------------------------------------
      1          8           0        0.000000   -0.000000    3.183567
      2          1           0        0.000000    0.799571    3.754699
      3          1           0       -0.000000   -0.799571    3.754699
      4          8           0        0.000000   -0.000000   -3.183567
      5          1           0       -0.000000   -0.799571   -3.754699
      6          1           0        0.000000    0.799571   -3.754699
 ---------------------------------------------------------------------

 SCF Done:  E(RHF) =  -152.106828918     A.U. after   10 cycles
 E2 =    -0.5259286941D+00 EUMP2 =    -0.15263275761260D+03
 CCSD(T)
 CCSD(T)= -0.15265999013D+03

 The electronic state is 1-AG.
 Alpha  occ. eigenvalues --  -20.55194 -20.55194  -1.32490  -1.32490  -0.69897
 Alpha  occ. eigenvalues --   -0.69897  -0.55911  -0.55911  -0.49597  -0.49597
 Alpha virt. eigenvalues --    0.14424   0.14446   0.20475   0.20485   0.54669
 Alpha virt. eigenvalues --    0.54675   0.57536   0.57541   0.68301   0.68347
 Alpha virt. eigenvalues --    0.79282   0.79282   0.80725   0.80726   0.82652

 Mulliken charges:
               1
     1  O   -0.505447
     2  H    0.252723
     3  H    0.252723
     4  O   -0.505447
     5  H    0.252723
     6  H    0.252723
 Sum of Mulliken charges =   0.00000

 Dipole moment (field-independent basis, Debye):
    X=             -0.0000    Y=              0.0000    Z=              0.0000  Tot=              0.0000
 Quadrupole moment (field-independent basis, Debye-Ang):
   XX=            -14.7107   YY=             -7.8027   ZZ=             13.4342
   XY=              0.0000   XZ=              0.0000   YZ=             -0.0000

 2\MP4DQ=-152.6418838\MP4SDQ=-152.6449437\CCSD=-152.6443554\CCSD(T)=-15
 Normal termination of Gaussian 16 at Sat Aug 27 07:31:23 2022.
