 Gaussian 16, Revision A.03,
 Gaussian 16:  ES64L-G16RevA.03 25-Dec-2016

 ------------------
 #p CCSD(T)/cc-pVTZ
 ------------------

 ------------
 H2O_H2O_4864
 ------------
 Symbolic Z-matrix:
 Charge =  0 Multiplicity = 1

                         Standard orientation:
 ---------------------------------------------------------------------
 Center     Atomic      Atomic             Coordinates (Angstroms)
 Number     Number       Type             X           Y           Z
 ---------------------------------------------------------------------
      1          8           0        0.045337   -3.358792    0.000000
      2          1           0       -0.754893   -3.929001    0.000000
      3          1           0        0.844248   -3.930846    0.000000
      4          8           0        0.045337    3.403377    0.000000
      5          1           0        0.080109    4.385363    0.000000
      6          1           0       -0.894851    3.117801    0.000000
 ---------------------------------------------------------------------

 SCF Done:  E(RHF) =  -152.107221743     A.U. after   10 cycles
 E2 =    -0.5258914325D+00 EUMP2 =    -0.15263311317505D+03
 CCSD(T)
 CCSD(T)= -0.15266033751D+03

 The electronic state is 1-A'.
 Alpha  occ. eigenvalues --  -20.55455 -20.55231  -1.32753  -1.32528  -0.70159
 Alpha  occ. eigenvalues --   -0.69931  -0.56192  -0.55966  -0.49863  -0.49639
 Alpha virt. eigenvalues --    0.14206   0.14431   0.20271   0.20506   0.54405
 Alpha virt. eigenvalues --    0.54642   0.57307   0.57531   0.68012   0.68241
 Alpha virt. eigenvalues --    0.79016   0.79238   0.80451   0.80692   0.82376

 Mulliken charges:
               1
     1  O   -0.507777
     2  H    0.253052
     3  H    0.254725
     4  O   -0.507638
     5  H    0.252427
     6  H    0.255211
 Sum of Mulliken charges =  -0.00000

 Dipole moment (field-independent basis, Debye):
    X=             -1.5594    Y=             -0.7770    Z=              0.0000  Tot=              1.7423
 Quadrupole moment (field-independent basis, Debye-Ang):
   XX=             -9.0965   YY=             10.9678   ZZ=            -14.7115
   XY=             -4.4814   XZ=              0.0000   YZ=              0.0000

 Normal termination of Gaussian 16 at Sat Aug 27 09:46:06 2022.
