 Gaussian 16, Revision A.03,
 Gaussian 16:  ES64L-G16RevA.03 25-Dec-2016

 ------------------
 #p CCSD(T)/cc-pVTZ
 ------------------

 ------------
 H2O_H2O_1961
 ------------
 Symbolic Z-matrix:
 Charge =  0 Multiplicity = 1

                         Standard orientation:
 ---------------------------------------------------------------------
 Center     Atomic      Atomic             Coordinates (Angstroms)
 Number     Number       Type             X           Y           Z
 ---------------------------------------------------------------------
      1          8           0        0.037682   -1.825356    0.000000
      2          1           0       -0.762894   -2.395078    0.000000
      3          1           0        0.836246   -2.397896    0.000000
      4          8           0        0.037682    1.853570    0.000000
      5          1           0        0.263944    2.809766    0.000000
      6          1           0       -0.940212    1.757498    0.000000
 ---------------------------------------------------------------------

 SCF Done:  E(RHF) =  -152.105550126     A.U. after   10 cycles
 E2 =    -0.5264646643D+00 EUMP2 =    -0.15263201479047D+03
 CCSD(T)
 CCSD(T)= -0.15265923783D+03

 The electronic state is 1-A'.
 Alpha  occ. eigenvalues --  -20.54851 -20.54333  -1.32129  -1.31604  -0.69548
 Alpha  occ. eigenvalues --   -0.69001  -0.55576  -0.54820  -0.49234  -0.48706
 Alpha virt. eigenvalues --    0.13849   0.16030   0.20374   0.21649   0.53248
 Alpha virt. eigenvalues --    0.55562   0.57794   0.58386   0.63304   0.76212
 Alpha virt. eigenvalues --    0.79016   0.79293   0.80716   0.80753   0.83759

 Mulliken charges:
               1
     1  O   -0.493011
     2  H    0.243279
     3  H    0.250615
     4  O   -0.493701
     5  H    0.241443
     6  H    0.251375
 Sum of Mulliken charges =  -0.00000

 Dipole moment (field-independent basis, Debye):
    X=             -1.2638    Y=             -0.5196    Z=              0.0000  Tot=              1.3664
 Quadrupole moment (field-independent basis, Debye-Ang):
   XX=             -8.7226   YY=              1.5877   ZZ=            -14.7112
   XY=             -1.5650   XZ=              0.0000   YZ=              0.0000

 6486333\MP4DQ=-152.64104\MP4SDQ=-152.644133\CCSD=-152.6435284\CCSD(T)=
 Normal termination of Gaussian 16 at Sat Aug 27 07:47:41 2022.
