 Gaussian 16, Revision A.03,
 Gaussian 16:  ES64L-G16RevA.03 25-Dec-2016

 ------------------
 #p CCSD(T)/cc-pVTZ
 ------------------

 -----------
 H2O_H2O_574
 -----------
 Symbolic Z-matrix:
 Charge =  0 Multiplicity = 1

                         Standard orientation:
 ---------------------------------------------------------------------
 Center     Atomic      Atomic             Coordinates (Angstroms)
 Number     Number       Type             X           Y           Z
 ---------------------------------------------------------------------
      1          8           0        0.057370   -1.034348    0.000000
      2          1           0       -0.744766   -1.601872    0.000000
      3          1           0        0.854360   -1.609077    0.000000
      4          8           0        0.057370    1.148059    0.000000
      5          1           0       -0.510154    1.950195    0.000000
      6          1           0       -0.517359    0.351068    0.000000
 ---------------------------------------------------------------------

 SCF Done:  E(RHF) =  -152.075959008     A.U. after   11 cycles
 E2 =    -0.5346781449D+00 EUMP2 =    -0.15261063715262D+03
 CCSD(T)
 CCSD(T)= -0.15263698007D+03

 The electronic state is 1-A'.
 Alpha  occ. eigenvalues --  -20.57502 -20.49685  -1.36718  -1.27710  -0.74031
 Alpha  occ. eigenvalues --   -0.70406  -0.53860  -0.53183  -0.51299  -0.44669
 Alpha virt. eigenvalues --    0.12627   0.18622   0.19368   0.27945   0.49083
 Alpha virt. eigenvalues --    0.54756   0.62211   0.66411   0.71639   0.73788
 Alpha virt. eigenvalues --    0.76387   0.81090   0.83522   0.84598   0.87117

 Mulliken charges:
               1
     1  O   -0.402851
     2  H    0.218858
     3  H    0.246572
     4  O   -0.534067
     5  H    0.203129
     6  H    0.268359
 Sum of Mulliken charges =  -0.00000

 Dipole moment (field-independent basis, Debye):
    X=             -1.7168    Y=             -2.7068    Z=              0.0000  Tot=              3.2054
 Quadrupole moment (field-independent basis, Debye-Ang):
   XX=             -9.8302   YY=             -6.6724   ZZ=            -14.6647
   XY=             -2.4987   XZ=              0.0000   YZ=              0.0000

 Normal termination of Gaussian 16 at Fri Aug 26 17:46:31 2022.
