 Gaussian 16, Revision A.03,
 Gaussian 16:  ES64L-G16RevA.03 25-Dec-2016

 ------------------
 #p CCSD(T)/cc-pVTZ
 ------------------

 ------------
 H2O_H2O_4146
 ------------
 Symbolic Z-matrix:
 Charge =  0 Multiplicity = 1

                         Standard orientation:
 ---------------------------------------------------------------------
 Center     Atomic      Atomic             Coordinates (Angstroms)
 Number     Number       Type             X           Y           Z
 ---------------------------------------------------------------------
      1          8           0        0.056090   -2.947590    0.000000
      2          1           0       -0.744400   -3.517433    0.000000
      3          1           0        0.854740   -3.520009    0.000000
      4          8           0        0.056090    3.039351    0.000000
      5          1           0       -0.346636    3.935631    0.000000
      6          1           0       -0.661140    2.367721    0.000000
 ---------------------------------------------------------------------

 SCF Done:  E(RHF) =  -152.107557910     A.U. after   10 cycles
 E2 =    -0.5258733686D+00 EUMP2 =    -0.15263343127883D+03
 CCSD(T)
 CCSD(T)= -0.15266064765D+03

 The electronic state is 1-A'.
 Alpha  occ. eigenvalues --  -20.55680 -20.55084  -1.32980  -1.32383  -0.70385
 Alpha  occ. eigenvalues --   -0.69780  -0.56434  -0.55833  -0.50092  -0.49498
 Alpha virt. eigenvalues --    0.13963   0.14633   0.20086   0.20739   0.54171
 Alpha virt. eigenvalues --    0.54790   0.57105   0.57697   0.67653   0.68449
 Alpha virt. eigenvalues --    0.78789   0.79372   0.80214   0.80793   0.82235

 Mulliken charges:
               1
     1  O   -0.509790
     2  H    0.253495
     3  H    0.256303
     4  O   -0.509390
     5  H    0.251870
     6  H    0.257513
 Sum of Mulliken charges =  -0.00000

 Dipole moment (field-independent basis, Debye):
    X=             -1.9264    Y=             -1.6073    Z=              0.0000  Tot=              2.5089
 Quadrupole moment (field-independent basis, Debye-Ang):
   XX=             -9.7839   YY=              4.1477   ZZ=            -14.7125
   XY=             -5.6355   XZ=              0.0000   YZ=              0.0000

 Normal termination of Gaussian 16 at Sat Aug 27 05:38:22 2022.
