 Gaussian 16, Revision A.03,
 Gaussian 16:  ES64L-G16RevA.03 25-Dec-2016

 ------------------
 #p CCSD(T)/cc-pVTZ
 ------------------

 ------------
 H2O_H2O_4906
 ------------
 Symbolic Z-matrix:
 Charge =  0 Multiplicity = 1

                         Standard orientation:
 ---------------------------------------------------------------------
 Center     Atomic      Atomic             Coordinates (Angstroms)
 Number     Number       Type             X           Y           Z
 ---------------------------------------------------------------------
      1          8           0        0.021859   -3.404888    0.000000
      2          1           0       -0.778027   -3.975579    0.000000
      3          1           0        0.821114   -3.976461    0.000000
      4          8           0        0.021859    3.413559    0.000000
      5          1           0        0.542464    4.246912    0.000000
      6          1           0       -0.935289    3.635761    0.000000
 ---------------------------------------------------------------------

 SCF Done:  E(RHF) =  -152.107004198     A.U. after   10 cycles
 E2 =    -0.5259094672D+00 EUMP2 =    -0.15263291366513D+03
 CCSD(T)
 CCSD(T)= -0.15266014270D+03

 The electronic state is 1-A'.
 Alpha  occ. eigenvalues --  -20.55293 -20.55250  -1.32590  -1.32547  -0.69996
 Alpha  occ. eigenvalues --   -0.69953  -0.56019  -0.55976  -0.49698  -0.49655
 Alpha virt. eigenvalues --    0.14350   0.14394   0.20404   0.20449   0.54571
 Alpha virt. eigenvalues --    0.54617   0.57453   0.57496   0.68202   0.68246
 Alpha virt. eigenvalues --    0.79181   0.79223   0.80621   0.80668   0.82546

 Mulliken charges:
               1
     1  O   -0.506482
     2  H    0.252842
     3  H    0.253640
     4  O   -0.506447
     5  H    0.252639
     6  H    0.253808
 Sum of Mulliken charges =  -0.00000

 Dipole moment (field-independent basis, Debye):
    X=             -0.7518    Y=             -0.1510    Z=              0.0000  Tot=              0.7668
 Quadrupole moment (field-independent basis, Debye-Ang):
   XX=             -8.1017   YY=             14.4915   ZZ=            -14.7110
   XY=             -1.9338   XZ=              0.0000   YZ=              0.0000

 Normal termination of Gaussian 16 at Sat Aug 27 10:01:14 2022.
