 Gaussian 16, Revision A.03,
 Gaussian 16:  ES64L-G16RevA.03 25-Dec-2016

 ------------------
 #p CCSD(T)/cc-pVTZ
 ------------------

 -----------
 H2O_H2O_463
 -----------
 Symbolic Z-matrix:
 Charge =  0 Multiplicity = 1

                         Standard orientation:
 ---------------------------------------------------------------------
 Center     Atomic      Atomic             Coordinates (Angstroms)
 Number     Number       Type             X           Y           Z
 ---------------------------------------------------------------------
      1          8           0        0.043009   -1.021954    0.000000
      2          1           0       -0.758585   -1.590244    0.000000
      3          1           0        0.840547   -1.595921    0.000000
      4          8           0        0.043009    1.060560    0.000000
      5          1           0        0.144273    2.037930    0.000000
      6          1           0       -0.914376    0.839382    0.000000
 ---------------------------------------------------------------------

 SCF Done:  E(RHF) =  -152.068862631     A.U. after   11 cycles
 E2 =    -0.5337013186D+00 EUMP2 =    -0.15260256394983D+03
 CCSD(T)
 CCSD(T)= -0.15262949970D+03

 The electronic state is 1-A'.
 Alpha  occ. eigenvalues --  -20.53493 -20.52072  -1.32724  -1.28970  -0.69892
 Alpha  occ. eigenvalues --   -0.67818  -0.57846  -0.49801  -0.47589  -0.45687
 Alpha virt. eigenvalues --    0.14131   0.18048   0.20103   0.23655   0.53174
 Alpha virt. eigenvalues --    0.57507   0.58413   0.63013   0.71517   0.76100
 Alpha virt. eigenvalues --    0.79638   0.81844   0.83321   0.85300   0.88091

 Mulliken charges:
               1
     1  O   -0.443560
     2  H    0.212111
     3  H    0.231948
     4  O   -0.421095
     5  H    0.181095
     6  H    0.239501
 Sum of Mulliken charges =   0.00000

 Dipole moment (field-independent basis, Debye):
    X=             -1.2625    Y=             -0.7824    Z=              0.0000  Tot=              1.4853
 Quadrupole moment (field-independent basis, Debye-Ang):
   XX=             -9.1379   YY=             -5.3534   ZZ=            -14.7216
   XY=             -0.8309   XZ=              0.0000   YZ=              0.0000

 Normal termination of Gaussian 16 at Fri Aug 26 16:41:53 2022.
