 Gaussian 16, Revision A.03,
 Gaussian 16:  ES64L-G16RevA.03 25-Dec-2016

 ------------------
 #p CCSD(T)/cc-pVTZ
 ------------------

 -----------
 H2O_H2O_546
 -----------
 Symbolic Z-matrix:
 Charge =  0 Multiplicity = 1

                         Standard orientation:
 ---------------------------------------------------------------------
 Center     Atomic      Atomic             Coordinates (Angstroms)
 Number     Number       Type             X           Y           Z
 ---------------------------------------------------------------------
      1          8           0        0.056221   -1.033146    0.000000
      2          1           0       -0.745895   -1.600699    0.000000
      3          1           0        0.853231   -1.607846    0.000000
      4          8           0        0.056221    1.124586    0.000000
      5          1           0       -0.343941    2.022014    0.000000
      6          1           0       -0.662926    0.455009    0.000000
 ---------------------------------------------------------------------

 SCF Done:  E(RHF) =  -152.075763465     A.U. after   11 cycles
 E2 =    -0.5341758600D+00 EUMP2 =    -0.15260993932456D+03
 CCSD(T)
 CCSD(T)= -0.15263658382D+03

 The electronic state is 1-A'.
 Alpha  occ. eigenvalues --  -20.56075 -20.50879  -1.35126  -1.28420  -0.72554
 Alpha  occ. eigenvalues --   -0.69350  -0.53952  -0.51800  -0.51717  -0.45390
 Alpha virt. eigenvalues --    0.13179   0.18670   0.19380   0.26043   0.50486
 Alpha virt. eigenvalues --    0.55754   0.61439   0.64063   0.72018   0.74347
 Alpha virt. eigenvalues --    0.78221   0.81911   0.83756   0.84863   0.87445

 Mulliken charges:
               1
     1  O   -0.418602
     2  H    0.212951
     3  H    0.240960
     4  O   -0.489098
     5  H    0.195885
     6  H    0.257904
 Sum of Mulliken charges =  -0.00000

 Dipole moment (field-independent basis, Debye):
    X=             -1.6748    Y=             -2.0260    Z=              0.0000  Tot=              2.6286
 Quadrupole moment (field-independent basis, Debye-Ang):
   XX=             -9.8031   YY=             -6.0133   ZZ=            -14.6865
   XY=             -2.0380   XZ=              0.0000   YZ=              0.0000

 Normal termination of Gaussian 16 at Fri Aug 26 17:31:20 2022.
