 Gaussian 16, Revision A.03,
 Gaussian 16:  ES64L-G16RevA.03 25-Dec-2016

 ------------------
 #p CCSD(T)/cc-pVTZ
 ------------------

 ------------
 H2O_H2O_4210
 ------------
 Symbolic Z-matrix:
 Charge =  0 Multiplicity = 1

                         Standard orientation:
 ---------------------------------------------------------------------
 Center     Atomic      Atomic             Coordinates (Angstroms)
 Number     Number       Type             X           Y           Z
 ---------------------------------------------------------------------
      1          8           0        0.034780   -3.024529    0.000000
      2          1           0       -0.765354   -3.594873    0.000000
      3          1           0        0.833788   -3.596449    0.000000
      4          8           0        0.034780    3.048065    0.000000
      5          1           0        0.322366    3.987639    0.000000
      6          1           0       -0.947279    3.015395    0.000000
 ---------------------------------------------------------------------

 SCF Done:  E(RHF) =  -152.106934764     A.U. after   10 cycles
 E2 =    -0.5259243240D+00 EUMP2 =    -0.15263285908794D+03
 CCSD(T)
 CCSD(T)= -0.15266008906D+03

 The electronic state is 1-A'.
 Alpha  occ. eigenvalues --  -20.55286 -20.55139  -1.32583  -1.32434  -0.69990
 Alpha  occ. eigenvalues --   -0.69838  -0.56008  -0.55860  -0.49691  -0.49543
 Alpha virt. eigenvalues --    0.14340   0.14509   0.20398   0.20559   0.54576
 Alpha virt. eigenvalues --    0.54739   0.57454   0.57603   0.68185   0.68401
 Alpha virt. eigenvalues --    0.79188   0.79334   0.80629   0.80790   0.82558

 Mulliken charges:
               1
     1  O   -0.506087
     2  H    0.252161
     3  H    0.253926
     4  O   -0.505948
     5  H    0.251645
     6  H    0.254302
 Sum of Mulliken charges =  -0.00000

 Dipole moment (field-independent basis, Debye):
    X=             -1.1943    Y=             -0.4114    Z=              0.0000  Tot=              1.2632
 Quadrupole moment (field-independent basis, Debye-Ang):
   XX=             -8.5648   YY=             10.4829   ZZ=            -14.7110
   XY=             -2.7976   XZ=              0.0000   YZ=              0.0000

 Normal termination of Gaussian 16 at Sat Aug 27 06:01:00 2022.
