 Gaussian 16, Revision A.03,
 Gaussian 16:  ES64L-G16RevA.03 25-Dec-2016

 ------------------
 #p CCSD(T)/cc-pVTZ
 ------------------

 ------------
 H2O_H2O_3878
 ------------
 Symbolic Z-matrix:
 Charge =  0 Multiplicity = 1

                         Standard orientation:
 ---------------------------------------------------------------------
 Center     Atomic      Atomic             Coordinates (Angstroms)
 Number     Number       Type             X           Y           Z
 ---------------------------------------------------------------------
      1          8           0        0.011143   -2.863277    0.000000
      2          1           0       -0.788620   -3.434141    0.000000
      3          1           0        0.810522   -3.434677    0.000000
      4          8           0        0.011143    2.865464    0.000000
      5          1           0        0.684167    3.581386    0.000000
      6          1           0       -0.884352    3.269933    0.000000
 ---------------------------------------------------------------------

 SCF Done:  E(RHF) =  -152.106609420     A.U. after   10 cycles
 E2 =    -0.5259578575D+00 EUMP2 =    -0.15263256727790D+03
 CCSD(T)
 CCSD(T)= -0.15265980388D+03

 The electronic state is 1-A'.
 Alpha  occ. eigenvalues --  -20.55103 -20.55087  -1.32398  -1.32382  -0.69806
 Alpha  occ. eigenvalues --   -0.69790  -0.55808  -0.55792  -0.49503  -0.49488
 Alpha virt. eigenvalues --    0.14464   0.14568   0.20528   0.20572   0.54755
 Alpha virt. eigenvalues --    0.54792   0.57609   0.57634   0.68284   0.68623
 Alpha virt. eigenvalues --    0.79375   0.79390   0.80820   0.80842   0.82750

 Mulliken charges:
               1
     1  O   -0.504160
     2  H    0.251747
     3  H    0.252413
     4  O   -0.504139
     5  H    0.251615
     6  H    0.252524
 Sum of Mulliken charges =   0.00000

 Dipole moment (field-independent basis, Debye):
    X=             -0.3821    Y=             -0.0383    Z=              0.0000  Tot=              0.3840
 Quadrupole moment (field-independent basis, Debye-Ang):
   XX=             -7.8848   YY=             10.7307   ZZ=            -14.7104
   XY=             -0.7561   XZ=              0.0000   YZ=              0.0000

 Normal termination of Gaussian 16 at Sat Aug 27 03:59:12 2022.
