 Gaussian 16, Revision A.03,
 Gaussian 16:  ES64L-G16RevA.03 25-Dec-2016

 ------------------
 #p CCSD(T)/cc-pVTZ
 ------------------

 ------------
 H2O_H2O_3082
 ------------
 Symbolic Z-matrix:
 Charge =  0 Multiplicity = 1

                         Standard orientation:
 ---------------------------------------------------------------------
 Center     Atomic      Atomic             Coordinates (Angstroms)
 Number     Number       Type             X           Y           Z
 ---------------------------------------------------------------------
      1          8           0        0.025266   -2.432622    0.000000
      2          1           0       -0.774814   -3.003041    0.000000
      3          1           0        0.824327   -3.004467    0.000000
      4          8           0        0.025266    2.444357    0.000000
      5          1           0        0.490546    3.309817    0.000000
      6          1           0       -0.944311    2.603813    0.000000
 ---------------------------------------------------------------------

 SCF Done:  E(RHF) =  -152.106250714     A.U. after   10 cycles
 E2 =    -0.5260250173D+00 EUMP2 =    -0.15263227573173D+03
 CCSD(T)
 CCSD(T)= -0.15265951749D+03

 The electronic state is 1-A'.
 Alpha  occ. eigenvalues --  -20.54991 -20.54877  -1.32284  -1.32168  -0.69694
 Alpha  occ. eigenvalues --   -0.69574  -0.55678  -0.55557  -0.49387  -0.49272
 Alpha virt. eigenvalues --    0.14339   0.14937   0.20536   0.20794   0.54756
 Alpha virt. eigenvalues --    0.55094   0.57680   0.57826   0.67170   0.70192
 Alpha virt. eigenvalues --    0.79481   0.79609   0.80903   0.81115   0.82669

 Mulliken charges:
               1
     1  O   -0.502063
     2  H    0.249850
     3  H    0.252223
     4  O   -0.501840
     5  H    0.249325
     6  H    0.252505
 Sum of Mulliken charges =  -0.00000

 Dipole moment (field-independent basis, Debye):
    X=             -0.8626    Y=             -0.2074    Z=              0.0000  Tot=              0.8872
 Quadrupole moment (field-independent basis, Debye-Ang):
   XX=             -8.2145   YY=              6.8234   ZZ=            -14.7101
   XY=             -1.4265   XZ=              0.0000   YZ=              0.0000

 Normal termination of Gaussian 16 at Fri Aug 26 19:15:12 2022.
