 Gaussian 16, Revision A.03,
 Gaussian 16:  ES64L-G16RevA.03 25-Dec-2016

 ------------------
 #p CCSD(T)/cc-pVTZ
 ------------------

 ------------
 H2O_H2O_1725
 ------------
 Symbolic Z-matrix:
 Charge =  0 Multiplicity = 1

                         Standard orientation:
 ---------------------------------------------------------------------
 Center     Atomic      Atomic             Coordinates (Angstroms)
 Number     Number       Type             X           Y           Z
 ---------------------------------------------------------------------
      1          8           0        0.000000   -0.000000    1.721017
      2          1           0        0.000000    0.799571    2.292149
      3          1           0       -0.000000   -0.799571    2.292149
      4          8           0        0.000000   -0.000000   -1.721017
      5          1           0       -0.000000   -0.799571   -2.292149
      6          1           0        0.000000    0.799571   -2.292149
 ---------------------------------------------------------------------

 SCF Done:  E(RHF) =  -152.103747317     A.U. after   10 cycles
 E2 =    -0.5267306762D+00 EUMP2 =    -0.15263047799368D+03
 CCSD(T)
 CCSD(T)= -0.15265773998D+03

 The electronic state is 1-AG.
 Alpha  occ. eigenvalues --  -20.54231 -20.54231  -1.31545  -1.31477  -0.68967
 Alpha  occ. eigenvalues --   -0.68909  -0.55329  -0.54159  -0.48691  -0.48511
 Alpha virt. eigenvalues --    0.14269   0.16176   0.20606   0.21470   0.53160
 Alpha virt. eigenvalues --    0.57976   0.58037   0.58446   0.61269   0.75919
 Alpha virt. eigenvalues --    0.78890   0.79250   0.80095   0.81428   0.84314

 Mulliken charges:
               1
     1  O   -0.483318
     2  H    0.241659
     3  H    0.241659
     4  O   -0.483318
     5  H    0.241659
     6  H    0.241659
 Sum of Mulliken charges =   0.00000

 Dipole moment (field-independent basis, Debye):
    X=             -0.0000    Y=              0.0000    Z=              0.0000  Tot=              0.0000
 Quadrupole moment (field-independent basis, Debye-Ang):
   XX=            -14.7087   YY=             -7.8620   ZZ=              1.5123
   XY=              0.0000   XZ=              0.0000   YZ=             -0.0000

 4DQ=-152.6394829\MP4SDQ=-152.6425948\CCSD=-152.6419844\CCSD(T)=-152.65
 Normal termination of Gaussian 16 at Sat Aug 27 06:25:59 2022.
