 Gaussian 16, Revision A.03,
 Gaussian 16:  ES64L-G16RevA.03 25-Dec-2016

 ------------------
 #p CCSD(T)/cc-pVTZ
 ------------------

 ------------
 H2O_H2O_1221
 ------------
 Symbolic Z-matrix:
 Charge =  0 Multiplicity = 1

                         Standard orientation:
 ---------------------------------------------------------------------
 Center     Atomic      Atomic             Coordinates (Angstroms)
 Number     Number       Type             X           Y           Z
 ---------------------------------------------------------------------
      1          8           0        0.056170   -1.392070    0.000000
      2          1           0       -0.745312   -1.960518    0.000000
      3          1           0        0.853821   -1.965881    0.000000
      4          8           0        0.056170    1.483636    0.000000
      5          1           0       -0.344993    2.380617    0.000000
      6          1           0       -0.662230    0.813256    0.000000
 ---------------------------------------------------------------------

 SCF Done:  E(RHF) =  -152.107299538     A.U. after   10 cycles
 E2 =    -0.5278616268D+00 EUMP2 =    -0.15263516116522D+03
 CCSD(T)
 CCSD(T)= -0.15266225180D+03

 The electronic state is 1-A'.
 Alpha  occ. eigenvalues --  -20.56208 -20.53090  -1.33584  -1.30402  -0.70984
 Alpha  occ. eigenvalues --   -0.68044  -0.56764  -0.53877  -0.50690  -0.47518
 Alpha virt. eigenvalues --    0.13195   0.17403   0.19674   0.24933   0.52407
 Alpha virt. eigenvalues --    0.56495   0.57002   0.59090   0.69576   0.74888
 Alpha virt. eigenvalues --    0.75076   0.78613   0.82000   0.82269   0.84273

 Mulliken charges:
               1
     1  O   -0.485632
     2  H    0.241054
     3  H    0.257601
     4  O   -0.506159
     5  H    0.231517
     6  H    0.261619
 Sum of Mulliken charges =  -0.00000

 Dipole moment (field-independent basis, Debye):
    X=             -1.8175    Y=             -1.8205    Z=              0.0000  Tot=              2.5724
 Quadrupole moment (field-independent basis, Debye-Ang):
   XX=             -9.7937   YY=             -3.5368   ZZ=            -14.7258
   XY=             -2.7110   XZ=              0.0000   YZ=              0.0000

 Normal termination of Gaussian 16 at Sat Aug 27 03:07:46 2022.
