 Gaussian 16, Revision A.03,
 Gaussian 16:  ES64L-G16RevA.03 25-Dec-2016

 ------------------
 #p CCSD(T)/cc-pVTZ
 ------------------

 ------------
 H2O_H2O_2064
 ------------
 Symbolic Z-matrix:
 Charge =  0 Multiplicity = 1

                         Standard orientation:
 ---------------------------------------------------------------------
 Center     Atomic      Atomic             Coordinates (Angstroms)
 Number     Number       Type             X           Y           Z
 ---------------------------------------------------------------------
      1          8           0        0.045357   -1.869693    0.000000
      2          1           0       -0.755390   -2.439175    0.000000
      3          1           0        0.843749   -2.442472    0.000000
      4          8           0        0.045357    1.914195    0.000000
      5          1           0        0.081020    2.896150    0.000000
      6          1           0       -0.895090    1.629475    0.000000
 ---------------------------------------------------------------------

 SCF Done:  E(RHF) =  -152.106311386     A.U. after   10 cycles
 E2 =    -0.5263590310D+00 EUMP2 =    -0.15263267041726D+03
 CCSD(T)
 CCSD(T)= -0.15265987889D+03

 The electronic state is 1-A'.
 Alpha  occ. eigenvalues --  -20.55144 -20.54356  -1.32422  -1.31630  -0.69838
 Alpha  occ. eigenvalues --   -0.69016  -0.55824  -0.54973  -0.49529  -0.48741
 Alpha virt. eigenvalues --    0.13640   0.15998   0.20242   0.21831   0.53449
 Alpha virt. eigenvalues --    0.55027   0.57579   0.58401   0.64120   0.75897
 Alpha virt. eigenvalues --    0.78962   0.79242   0.80470   0.80974   0.84178

 Mulliken charges:
               1
     1  O   -0.497076
     2  H    0.245112
     3  H    0.253266
     4  O   -0.498793
     5  H    0.242731
     6  H    0.254761
 Sum of Mulliken charges =  -0.00000

 Dipole moment (field-independent basis, Debye):
    X=             -1.5248    Y=             -0.8170    Z=              0.0000  Tot=              1.7299
 Quadrupole moment (field-independent basis, Debye-Ang):
   XX=             -9.1117   YY=              1.2913   ZZ=            -14.7126
   XY=             -2.1947   XZ=              0.0000   YZ=              0.0000

 Normal termination of Gaussian 16 at Sat Aug 27 08:23:00 2022.
