 Gaussian 16, Revision A.03,
 Gaussian 16:  ES64L-G16RevA.03 25-Dec-2016

 ------------------
 #p CCSD(T)/cc-pVTZ
 ------------------

 ------------
 H2O_H2O_3143
 ------------
 Symbolic Z-matrix:
 Charge =  0 Multiplicity = 1

                         Standard orientation:
 ---------------------------------------------------------------------
 Center     Atomic      Atomic             Coordinates (Angstroms)
 Number     Number       Type             X           Y           Z
 ---------------------------------------------------------------------
      1          8           0        0.052831   -2.427397    0.000000
      2          1           0       -0.747793   -2.997053    0.000000
      3          1           0        0.851347   -3.000003    0.000000
      4          8           0        0.052831    2.497716    0.000000
      5          1           0       -0.167077    3.455394    0.000000
      6          1           0       -0.781767    1.979110    0.000000
 ---------------------------------------------------------------------

 SCF Done:  E(RHF) =  -152.107307205     A.U. after   10 cycles
 E2 =    -0.5259518821D+00 EUMP2 =    -0.15263325908727D+03
 CCSD(T)
 CCSD(T)= -0.15266047532D+03

 The electronic state is 1-A'.
 Alpha  occ. eigenvalues --  -20.55533 -20.54831  -1.32828  -1.32125  -0.70236
 Alpha  occ. eigenvalues --   -0.69516  -0.56268  -0.55563  -0.49939  -0.49240
 Alpha virt. eigenvalues --    0.13763   0.15094   0.20147   0.21086   0.54232
 Alpha virt. eigenvalues --    0.54950   0.57244   0.57861   0.67007   0.70018
 Alpha virt. eigenvalues --    0.78945   0.79626   0.80203   0.80839   0.82786

 Mulliken charges:
               1
     1  O   -0.507897
     2  H    0.251654
     3  H    0.256431
     4  O   -0.507551
     5  H    0.249478
     6  H    0.257884
 Sum of Mulliken charges =  -0.00000

 Dipole moment (field-independent basis, Debye):
    X=             -1.8054    Y=             -1.2473    Z=              0.0000  Tot=              2.1944
 Quadrupole moment (field-independent basis, Debye-Ang):
   XX=             -9.5589   YY=              3.2502   ZZ=            -14.7124
   XY=             -3.9987   XZ=              0.0000   YZ=              0.0000

 Normal termination of Gaussian 16 at Fri Aug 26 19:46:51 2022.
