 Gaussian 16, Revision A.03,
 Gaussian 16:  ES64L-G16RevA.03 25-Dec-2016

 ------------------
 #p CCSD(T)/cc-pVTZ
 ------------------

 ------------
 H2O_H2O_2258
 ------------
 Symbolic Z-matrix:
 Charge =  0 Multiplicity = 1

                         Standard orientation:
 ---------------------------------------------------------------------
 Center     Atomic      Atomic             Coordinates (Angstroms)
 Number     Number       Type             X           Y           Z
 ---------------------------------------------------------------------
      1          8           0        0.028566   -1.991957    0.000000
      2          1           0       -0.771707   -2.562105    0.000000
      3          1           0        0.827434   -2.564072    0.000000
      4          8           0        0.028566    2.007190    0.000000
      5          1           0        0.436549    2.901090    0.000000
      6          1           0       -0.949332    2.103222    0.000000
 ---------------------------------------------------------------------

 SCF Done:  E(RHF) =  -152.105543146     A.U. after   10 cycles
 E2 =    -0.5262717582D+00 EUMP2 =    -0.15263181490411D+03
 CCSD(T)
 CCSD(T)= -0.15265905325D+03

 The electronic state is 1-A'.
 Alpha  occ. eigenvalues --  -20.54768 -20.54537  -1.32051  -1.31817  -0.69468
 Alpha  occ. eigenvalues --   -0.69223  -0.55474  -0.55077  -0.49153  -0.48917
 Alpha virt. eigenvalues --    0.14033   0.15661   0.20505   0.21232   0.53957
 Alpha virt. eigenvalues --    0.55731   0.57830   0.58140   0.63271   0.74665
 Alpha virt. eigenvalues --    0.79427   0.80228   0.80446   0.81144   0.82512

 Mulliken charges:
               1
     1  O   -0.496202
     2  H    0.245948
     3  H    0.250478
     4  O   -0.495980
     5  H    0.244974
     6  H    0.250782
 Sum of Mulliken charges =  -0.00000

 Dipole moment (field-independent basis, Debye):
    X=             -0.9652    Y=             -0.2762    Z=              0.0000  Tot=              1.0039
 Quadrupole moment (field-independent basis, Debye-Ang):
   XX=             -8.3404   YY=              3.2900   ZZ=            -14.7102
   XY=             -1.2233   XZ=              0.0000   YZ=              0.0000

 Normal termination of Gaussian 16 at Sat Aug 27 09:30:08 2022.
