 Gaussian 16, Revision A.03,
 Gaussian 16:  ES64L-G16RevA.03 25-Dec-2016

 ------------------
 #p CCSD(T)/cc-pVTZ
 ------------------

 ------------
 H2O_H2O_2004
 ------------
 Symbolic Z-matrix:
 Charge =  0 Multiplicity = 1

                         Standard orientation:
 ---------------------------------------------------------------------
 Center     Atomic      Atomic             Coordinates (Angstroms)
 Number     Number       Type             X           Y           Z
 ---------------------------------------------------------------------
      1          8           0        0.014783   -1.865168    0.000000
      2          1           0       -0.785177   -2.435755    0.000000
      3          1           0        0.813965   -2.436845    0.000000
      4          8           0        0.014783    1.869040    0.000000
      5          1           0        0.639807    2.627231    0.000000
      6          1           0       -0.905129    2.214394    0.000000
 ---------------------------------------------------------------------

 SCF Done:  E(RHF) =  -152.104733634     A.U. after   10 cycles
 E2 =    -0.5264582167D+00 EUMP2 =    -0.15263119185024D+03
 CCSD(T)
 CCSD(T)= -0.15265843954D+03

 The electronic state is 1-A'.
 Alpha  occ. eigenvalues --  -20.54483 -20.54416  -1.31766  -1.31691  -0.69187
 Alpha  occ. eigenvalues --   -0.69109  -0.55336  -0.54700  -0.48881  -0.48767
 Alpha virt. eigenvalues --    0.14165   0.15878   0.20595   0.21296   0.53785
 Alpha virt. eigenvalues --    0.56621   0.57951   0.58286   0.61526   0.75537
 Alpha virt. eigenvalues --    0.79304   0.80050   0.80722   0.80874   0.82827

 Mulliken charges:
               1
     1  O   -0.490306
     2  H    0.243817
     3  H    0.246588
     4  O   -0.490270
     5  H    0.243431
     6  H    0.246740
 Sum of Mulliken charges =  -0.00000

 Dipole moment (field-independent basis, Debye):
    X=             -0.4968    Y=             -0.0711    Z=              0.0000  Tot=              0.5019
 Quadrupole moment (field-independent basis, Debye-Ang):
   XX=             -7.9810   YY=              2.6340   ZZ=            -14.7093
   XY=             -0.5155   XZ=              0.0000   YZ=              0.0000

 Normal termination of Gaussian 16 at Sat Aug 27 08:03:21 2022.
