 Gaussian 16, Revision A.03,
 Gaussian 16:  ES64L-G16RevA.03 25-Dec-2016

 ------------------
 #p CCSD(T)/cc-pVTZ
 ------------------

 ------------
 H2O_H2O_3397
 ------------
 Symbolic Z-matrix:
 Charge =  0 Multiplicity = 1

                         Standard orientation:
 ---------------------------------------------------------------------
 Center     Atomic      Atomic             Coordinates (Angstroms)
 Number     Number       Type             X           Y           Z
 ---------------------------------------------------------------------
      1          8           0        0.056718   -2.544725    0.000000
      2          1           0       -0.743925   -3.114353    0.000000
      3          1           0        0.855214   -3.117358    0.000000
      4          8           0        0.056718    2.643829    0.000000
      5          1           0       -0.403533    3.511973    0.000000
      6          1           0       -0.615241    1.926906    0.000000
 ---------------------------------------------------------------------

 SCF Done:  E(RHF) =  -152.107768344     A.U. after   10 cycles
 E2 =    -0.5258976153D+00 EUMP2 =    -0.15263366595951D+03
 CCSD(T)
 CCSD(T)= -0.15266087328D+03

 The electronic state is 1-A'.
 Alpha  occ. eigenvalues --  -20.55767 -20.54881  -1.33065  -1.32180  -0.70470
 Alpha  occ. eigenvalues --   -0.69571  -0.56527  -0.55634  -0.50179  -0.49298
 Alpha virt. eigenvalues --    0.13625   0.15013   0.20006   0.21086   0.54053
 Alpha virt. eigenvalues --    0.54903   0.57041   0.57831   0.67043   0.69331
 Alpha virt. eigenvalues --    0.78707   0.79564   0.80010   0.80439   0.82751

 Mulliken charges:
               1
     1  O   -0.510627
     2  H    0.253286
     3  H    0.257528
     4  O   -0.510155
     5  H    0.250634
     6  H    0.259334
 Sum of Mulliken charges =  -0.00000

 Dipole moment (field-independent basis, Debye):
    X=             -1.9419    Y=             -1.7526    Z=              0.0000  Tot=              2.6158
 Quadrupole moment (field-independent basis, Debye-Ang):
   XX=             -9.8266   YY=              1.6031   ZZ=            -14.7134
   XY=             -5.0582   XZ=              0.0000   YZ=              0.0000

 Normal termination of Gaussian 16 at Fri Aug 26 21:58:58 2022.
