 Gaussian 16, Revision A.03,
 Gaussian 16:  ES64L-G16RevA.03 25-Dec-2016

 ------------------
 #p CCSD(T)/cc-pVTZ
 ------------------

 -----------
 H2O_H2O_235
 -----------
 Symbolic Z-matrix:
 Charge =  0 Multiplicity = 1

                         Standard orientation:
 ---------------------------------------------------------------------
 Center     Atomic      Atomic             Coordinates (Angstroms)
 Number     Number       Type             X           Y           Z
 ---------------------------------------------------------------------
      1          8           0        0.034806   -0.910562    0.000000
      2          1           0       -0.766614   -1.479096    0.000000
      3          1           0        0.832520   -1.484285    0.000000
      4          8           0        0.034806    0.933940    0.000000
      5          1           0        0.324515    1.872863    0.000000
      6          1           0       -0.947324    0.903488    0.000000
 ---------------------------------------------------------------------

 SCF Done:  E(RHF) =  -152.020529415     A.U. after   11 cycles
 E2 =    -0.5395541012D+00 EUMP2 =    -0.15256008351604D+03
 CCSD(T)
 CCSD(T)= -0.15258637918D+03

 The electronic state is 1-A'.
 Alpha  occ. eigenvalues --  -20.52296 -20.51537  -1.33888  -1.27839  -0.70463
 Alpha  occ. eigenvalues --   -0.67646  -0.60480  -0.50670  -0.44356  -0.41811
 Alpha virt. eigenvalues --    0.14341   0.18557   0.20066   0.23489   0.53263
 Alpha virt. eigenvalues --    0.56917   0.58629   0.64855   0.71383   0.77692
 Alpha virt. eigenvalues --    0.79587   0.82441   0.83463   0.85444   0.88481

 Mulliken charges:
               1
     1  O   -0.412569
     2  H    0.195323
     3  H    0.215465
     4  O   -0.382877
     5  H    0.154567
     6  H    0.230091
 Sum of Mulliken charges =   0.00000

 Dipole moment (field-independent basis, Debye):
    X=             -0.9785    Y=             -0.5107    Z=              0.0000  Tot=              1.1037
 Quadrupole moment (field-independent basis, Debye-Ang):
   XX=             -8.8649   YY=             -6.8922   ZZ=            -14.7190
   XY=             -0.4580   XZ=              0.0000   YZ=              0.0000

 Normal termination of Gaussian 16 at Fri Aug 26 14:20:46 2022.
