 Gaussian 16, Revision A.03,
 Gaussian 16:  ES64L-G16RevA.03 25-Dec-2016

 ------------------
 #p CCSD(T)/cc-pVTZ
 ------------------

 ------------
 H2O_H2O_3008
 ------------
 Symbolic Z-matrix:
 Charge =  0 Multiplicity = 1

                         Standard orientation:
 ---------------------------------------------------------------------
 Center     Atomic      Atomic             Coordinates (Angstroms)
 Number     Number       Type             X           Y           Z
 ---------------------------------------------------------------------
      1          8           0        0.028564   -2.390828    0.000000
      2          1           0       -0.771592   -2.961140    0.000000
      3          1           0        0.827550   -2.962780    0.000000
      4          8           0        0.028564    2.406073    0.000000
      5          1           0        0.436365    3.300056    0.000000
      6          1           0       -0.949353    2.501905    0.000000
 ---------------------------------------------------------------------

 SCF Done:  E(RHF) =  -152.106255551     A.U. after   10 cycles
 E2 =    -0.5260321554D+00 EUMP2 =    -0.15263228770620D+03
 CCSD(T)
 CCSD(T)= -0.15265952868D+03

 The electronic state is 1-A'.
 Alpha  occ. eigenvalues --  -20.55004 -20.54849  -1.32297  -1.32140  -0.69707
 Alpha  occ. eigenvalues --   -0.69545  -0.55690  -0.55529  -0.49400  -0.49244
 Alpha virt. eigenvalues --    0.14286   0.14998   0.20513   0.20837   0.54710
 Alpha virt. eigenvalues --    0.55130   0.57668   0.57851   0.66929   0.70487
 Alpha virt. eigenvalues --    0.79467   0.79638   0.80879   0.81160   0.82643

 Mulliken charges:
               1
     1  O   -0.502077
     2  H    0.249643
     3  H    0.252453
     4  O   -0.501786
     5  H    0.248983
     6  H    0.252784
 Sum of Mulliken charges =  -0.00000

 Dipole moment (field-independent basis, Debye):
    X=             -0.9747    Y=             -0.2698    Z=              0.0000  Tot=              1.0114
 Quadrupole moment (field-independent basis, Debye-Ang):
   XX=             -8.3262   YY=              6.3286   ZZ=            -14.7102
   XY=             -1.6057   XZ=              0.0000   YZ=              0.0000

 Normal termination of Gaussian 16 at Fri Aug 26 18:25:42 2022.
