 Gaussian 16, Revision A.03,
 Gaussian 16:  ES64L-G16RevA.03 25-Dec-2016

 ------------------
 #p CCSD(T)/cc-pVTZ
 ------------------

 ------------
 H2O_H2O_2919
 ------------
 Symbolic Z-matrix:
 Charge =  0 Multiplicity = 1

                         Standard orientation:
 ---------------------------------------------------------------------
 Center     Atomic      Atomic             Coordinates (Angstroms)
 Number     Number       Type             X           Y           Z
 ---------------------------------------------------------------------
      1          8           0        0.054159   -2.303945    0.000000
      2          1           0       -0.746545   -2.873487    0.000000
      3          1           0        0.852594   -2.876665    0.000000
      4          8           0        0.054159    2.381240    0.000000
      5          1           0       -0.227780    3.322525    0.000000
      6          1           0       -0.744815    1.809273    0.000000
 ---------------------------------------------------------------------

 SCF Done:  E(RHF) =  -152.107465241     A.U. after   10 cycles
 E2 =    -0.5259788017D+00 EUMP2 =    -0.15263344404309D+03
 CCSD(T)
 CCSD(T)= -0.15266065224D+03

 The electronic state is 1-A'.
 Alpha  occ. eigenvalues --  -20.55605 -20.54734  -1.32897  -1.32028  -0.70305
 Alpha  occ. eigenvalues --   -0.69415  -0.56341  -0.55470  -0.50009  -0.49145
 Alpha virt. eigenvalues --    0.13548   0.15303   0.20084   0.21319   0.54115
 Alpha virt. eigenvalues --    0.54891   0.57198   0.57945   0.66638   0.70934
 Alpha virt. eigenvalues --    0.78876   0.79718   0.79965   0.80905   0.82780

 Mulliken charges:
               1
     1  O   -0.507996
     2  H    0.251454
     3  H    0.257003
     4  O   -0.508155
     5  H    0.248851
     6  H    0.258843
 Sum of Mulliken charges =  -0.00000

 Dipole moment (field-independent basis, Debye):
    X=             -1.8472    Y=             -1.3795    Z=              0.0000  Tot=              2.3055
 Quadrupole moment (field-independent basis, Debye-Ang):
   XX=             -9.6478   YY=              2.0921   ZZ=            -14.7131
   XY=             -3.9985   XZ=              0.0000   YZ=              0.0000

 Normal termination of Gaussian 16 at Fri Aug 26 17:27:25 2022.
