 Gaussian 16, Revision A.03,
 Gaussian 16:  ES64L-G16RevA.03 25-Dec-2016

 ------------------
 #p CCSD(T)/cc-pVTZ
 ------------------

 ------------
 H2O_H2O_4994
 ------------
 Symbolic Z-matrix:
 Charge =  0 Multiplicity = 1

                         Standard orientation:
 ---------------------------------------------------------------------
 Center     Atomic      Atomic             Coordinates (Angstroms)
 Number     Number       Type             X           Y           Z
 ---------------------------------------------------------------------
      1          8           0        0.054135   -3.407470    0.000000
      2          1           0       -0.746207   -3.977522    0.000000
      3          1           0        0.852933   -3.979682    0.000000
      4          8           0        0.054135    3.484834    0.000000
      5          1           0       -0.228403    4.425938    0.000000
      6          1           0       -0.744476    2.912357    0.000000
 ---------------------------------------------------------------------

 SCF Done:  E(RHF) =  -152.107435930     A.U. after   10 cycles
 E2 =    -0.5258713413D+00 EUMP2 =    -0.15263330727136D+03
 CCSD(T)
 CCSD(T)= -0.15266052712D+03

 The electronic state is 1-A'.
 Alpha  occ. eigenvalues --  -20.55607 -20.55235  -1.32906  -1.32533  -0.70312
 Alpha  occ. eigenvalues --   -0.69934  -0.56355  -0.55980  -0.50018  -0.49646
 Alpha virt. eigenvalues --    0.14072   0.14444   0.20148   0.20540   0.54249
 Alpha virt. eigenvalues --    0.54637   0.57170   0.57543   0.67832   0.68215
 Alpha virt. eigenvalues --    0.78861   0.79229   0.80292   0.80687   0.82216

 Mulliken charges:
               1
     1  O   -0.509045
     2  H    0.253607
     3  H    0.255438
     4  O   -0.508850
     5  H    0.252687
     6  H    0.256162
 Sum of Mulliken charges =  -0.00000

 Dipole moment (field-independent basis, Debye):
    X=             -1.8627    Y=             -1.3480    Z=              0.0000  Tot=              2.2993
 Quadrupole moment (field-independent basis, Debye-Ang):
   XX=             -9.6491   YY=              7.9342   ZZ=            -14.7120
   XY=             -6.0315   XZ=              0.0000   YZ=              0.0000

 Normal termination of Gaussian 16 at Sat Aug 27 10:32:07 2022.
