 Gaussian 16, Revision A.03,
 Gaussian 16:  ES64L-G16RevA.03 25-Dec-2016

 ------------------
 #p CCSD(T)/cc-pVTZ
 ------------------

 -----------
 H2O_H2O_134
 -----------
 Symbolic Z-matrix:
 Charge =  0 Multiplicity = 1

                         Standard orientation:
 ---------------------------------------------------------------------
 Center     Atomic      Atomic             Coordinates (Angstroms)
 Number     Number       Type             X           Y           Z
 ---------------------------------------------------------------------
      1          8           0        0.031760   -0.859729    0.000000
      2          1           0       -0.769601   -1.428345    0.000000
      3          1           0        0.829533   -1.433370    0.000000
      4          8           0        0.031760    0.878780    0.000000
      5          1           0        0.382162    1.796780    0.000000
      6          1           0       -0.950261    0.912526    0.000000
 ---------------------------------------------------------------------

 SCF Done:  E(RHF) =  -151.982935021     A.U. after   11 cycles
 E2 =    -0.5440296473D+00 EUMP2 =    -0.15252696466841D+03
 CCSD(T)
 CCSD(T)= -0.15255261830D+03

 The electronic state is 1-A'.
 Alpha  occ. eigenvalues --  -20.51974 -20.51386  -1.35198  -1.27276  -0.71240
 Alpha  occ. eigenvalues --   -0.68074  -0.61714  -0.51643  -0.43732  -0.38398
 Alpha virt. eigenvalues --    0.14322   0.18930   0.19941   0.23470   0.53199
 Alpha virt. eigenvalues --    0.56558   0.58768   0.65429   0.71276   0.78224
 Alpha virt. eigenvalues --    0.79629   0.82818   0.83390   0.85255   0.88653

 Mulliken charges:
               1
     1  O   -0.386264
     2  H    0.182453
     3  H    0.203552
     4  O   -0.361036
     5  H    0.135575
     6  H    0.225720
 Sum of Mulliken charges =  -0.00000

 Dipole moment (field-independent basis, Debye):
    X=             -0.8809    Y=             -0.4496    Z=              0.0000  Tot=              0.9890
 Quadrupole moment (field-independent basis, Debye-Ang):
   XX=             -8.8211   YY=             -7.8503   ZZ=            -14.7165
   XY=             -0.4010   XZ=              0.0000   YZ=              0.0000

 Normal termination of Gaussian 16 at Fri Aug 26 13:09:12 2022.
