 Gaussian 16, Revision A.03,
 Gaussian 16:  ES64L-G16RevA.03 25-Dec-2016

 ------------------
 #p CCSD(T)/cc-pVTZ
 ------------------

 ------------
 H2O_H2O_2243
 ------------
 Symbolic Z-matrix:
 Charge =  0 Multiplicity = 1

                         Standard orientation:
 ---------------------------------------------------------------------
 Center     Atomic      Atomic             Coordinates (Angstroms)
 Number     Number       Type             X           Y           Z
 ---------------------------------------------------------------------
      1          8           0        0.052846   -1.948769    0.000000
      2          1           0       -0.748030   -2.518069    0.000000
      3          1           0        0.851107   -2.521730    0.000000
      4          8           0        0.052846    2.019041    0.000000
      5          1           0       -0.166635    2.976816    0.000000
      6          1           0       -0.781982    1.500806    0.000000
 ---------------------------------------------------------------------

 SCF Done:  E(RHF) =  -152.107356167     A.U. after   10 cycles
 E2 =    -0.5262127880D+00 EUMP2 =    -0.15263356895525D+03
 CCSD(T)
 CCSD(T)= -0.15266075898D+03

 The electronic state is 1-A'.
 Alpha  occ. eigenvalues --  -20.55556 -20.54394  -1.32835  -1.31679  -0.70246
 Alpha  occ. eigenvalues --   -0.69055  -0.56257  -0.55105  -0.49947  -0.48798
 Alpha virt. eigenvalues --    0.13344   0.15934   0.20058   0.22120   0.54001
 Alpha virt. eigenvalues --    0.54511   0.57258   0.58420   0.65275   0.74770
 Alpha virt. eigenvalues --    0.78790   0.79334   0.80189   0.81426   0.83860

 Mulliken charges:
               1
     1  O   -0.502482
     2  H    0.248068
     3  H    0.256279
     4  O   -0.505974
     5  H    0.245093
     6  H    0.259015
 Sum of Mulliken charges =  -0.00000

 Dipole moment (field-independent basis, Debye):
    X=             -1.7841    Y=             -1.2848    Z=              0.0000  Tot=              2.1986
 Quadrupole moment (field-independent basis, Debye-Ang):
   XX=             -9.5623   YY=              0.5696   ZZ=            -14.7144
   XY=             -3.1478   XZ=              0.0000   YZ=              0.0000

 Normal termination of Gaussian 16 at Sat Aug 27 09:24:47 2022.
