 Gaussian 16, Revision A.03,
 Gaussian 16:  ES64L-G16RevA.03 25-Dec-2016

 ------------------
 #p CCSD(T)/cc-pVTZ
 ------------------

 ------------
 H2O_H2O_3870
 ------------
 Symbolic Z-matrix:
 Charge =  0 Multiplicity = 1

                         Standard orientation:
 ---------------------------------------------------------------------
 Center     Atomic      Atomic             Coordinates (Angstroms)
 Number     Number       Type             X           Y           Z
 ---------------------------------------------------------------------
      1          8           0        0.055238   -2.805290    0.000000
      2          1           0       -0.745285   -3.375087    0.000000
      3          1           0        0.853855   -3.377754    0.000000
      4          8           0        0.055238    2.889768    0.000000
      5          1           0       -0.287954    3.810488    0.000000
      6          1           0       -0.704418    2.266527    0.000000
 ---------------------------------------------------------------------

 SCF Done:  E(RHF) =  -152.107498033     A.U. after   10 cycles
 E2 =    -0.5258869340D+00 EUMP2 =    -0.15263338496651D+03
 CCSD(T)
 CCSD(T)= -0.15266060192D+03

 The electronic state is 1-A'.
 Alpha  occ. eigenvalues --  -20.55640 -20.55028  -1.32939  -1.32326  -0.70345
 Alpha  occ. eigenvalues --   -0.69722  -0.56391  -0.55773  -0.50051  -0.49441
 Alpha virt. eigenvalues --    0.13950   0.14717   0.20111   0.20802   0.54205
 Alpha virt. eigenvalues --    0.54845   0.57140   0.57740   0.67594   0.68633
 Alpha virt. eigenvalues --    0.78830   0.79429   0.80252   0.80780   0.82396

 Mulliken charges:
               1
     1  O   -0.509430
     2  H    0.253104
     3  H    0.256346
     4  O   -0.508987
     5  H    0.251353
     6  H    0.257614
 Sum of Mulliken charges =  -0.00000

 Dipole moment (field-independent basis, Debye):
    X=             -1.8953    Y=             -1.4833    Z=              0.0000  Tot=              2.4068
 Quadrupole moment (field-independent basis, Debye-Ang):
   XX=             -9.7234   YY=              4.1253   ZZ=            -14.7124
   XY=             -5.1485   XZ=              0.0000   YZ=              0.0000

 Normal termination of Gaussian 16 at Sat Aug 27 03:55:44 2022.
