 Gaussian 16, Revision A.03,
 Gaussian 16:  ES64L-G16RevA.03 25-Dec-2016

 ------------------
 #p CCSD(T)/cc-pVTZ
 ------------------

 ------------
 H2O_H2O_3217
 ------------
 Symbolic Z-matrix:
 Charge =  0 Multiplicity = 1

                         Standard orientation:
 ---------------------------------------------------------------------
 Center     Atomic      Atomic             Coordinates (Angstroms)
 Number     Number       Type             X           Y           Z
 ---------------------------------------------------------------------
      1          8           0        0.051279   -2.470975    0.000000
      2          1           0       -0.749297   -3.040697    0.000000
      3          1           0        0.849843   -3.043514    0.000000
      4          8           0        0.051279    2.534499    0.000000
      5          1           0       -0.105603    3.504496    0.000000
      6          1           0       -0.815412    2.071518    0.000000
 ---------------------------------------------------------------------

 SCF Done:  E(RHF) =  -152.107188847     A.U. after   10 cycles
 E2 =    -0.5259503763D+00 EUMP2 =    -0.15263313922287D+03
 CCSD(T)
 CCSD(T)= -0.15266035943D+03

 The electronic state is 1-A'.
 Alpha  occ. eigenvalues --  -20.55474 -20.54865  -1.32770  -1.32159  -0.70177
 Alpha  occ. eigenvalues --   -0.69552  -0.56205  -0.55593  -0.49879  -0.49272
 Alpha virt. eigenvalues --    0.13875   0.15015   0.20194   0.20999   0.54307
 Alpha virt. eigenvalues --    0.54963   0.57289   0.57840   0.67172   0.69764
 Alpha virt. eigenvalues --    0.79003   0.79595   0.80323   0.80891   0.82765

 Mulliken charges:
               1
     1  O   -0.507397
     2  H    0.251527
     3  H    0.255986
     4  O   -0.506973
     5  H    0.249613
     6  H    0.257243
 Sum of Mulliken charges =   0.00000

 Dipole moment (field-independent basis, Debye):
    X=             -1.7533    Y=             -1.1245    Z=              0.0000  Tot=              2.0829
 Quadrupole moment (field-independent basis, Debye-Ang):
   XX=             -9.4578   YY=              3.9752   ZZ=            -14.7121
   XY=             -3.8415   XZ=              0.0000   YZ=              0.0000

 Normal termination of Gaussian 16 at Fri Aug 26 20:27:16 2022.
