 Gaussian 16, Revision A.03,
 Gaussian 16:  ES64L-G16RevA.03 25-Dec-2016

 ------------------
 #p CCSD(T)/cc-pVTZ
 ------------------

 ------------
 H2O_H2O_4961
 ------------
 Symbolic Z-matrix:
 Charge =  0 Multiplicity = 1

                         Standard orientation:
 ---------------------------------------------------------------------
 Center     Atomic      Atomic             Coordinates (Angstroms)
 Number     Number       Type             X           Y           Z
 ---------------------------------------------------------------------
      1          8           0        0.037671   -3.420833    0.000000
      2          1           0       -0.762439   -3.991210    0.000000
      3          1           0        0.836702   -3.992719    0.000000
      4          8           0        0.037671    3.449108    0.000000
      5          1           0        0.263149    4.405490    0.000000
      6          1           0       -0.940145    3.352237    0.000000
 ---------------------------------------------------------------------

 SCF Done:  E(RHF) =  -152.107133901     A.U. after   10 cycles
 E2 =    -0.5258980990D+00 EUMP2 =    -0.15263303199987D+03
 CCSD(T)
 CCSD(T)= -0.15266025828D+03

 The electronic state is 1-A'.
 Alpha  occ. eigenvalues --  -20.55388 -20.55250  -1.32685  -1.32547  -0.70092
 Alpha  occ. eigenvalues --   -0.69951  -0.56120  -0.55982  -0.49795  -0.49657
 Alpha virt. eigenvalues --    0.14267   0.14404   0.20327   0.20471   0.54474
 Alpha virt. eigenvalues --    0.54621   0.57368   0.57506   0.68091   0.68230
 Alpha virt. eigenvalues --    0.79085   0.79221   0.80522   0.80670   0.82447

 Mulliken charges:
               1
     1  O   -0.507253
     2  H    0.252957
     3  H    0.254296
     4  O   -0.507160
     5  H    0.252528
     6  H    0.254632
 Sum of Mulliken charges =  -0.00000

 Dipole moment (field-independent basis, Debye):
    X=             -1.2959    Y=             -0.4925    Z=              0.0000  Tot=              1.3863
 Quadrupole moment (field-independent basis, Debye-Ang):
   XX=             -8.6950   YY=             12.8974   ZZ=            -14.7113
   XY=             -3.5991   XZ=              0.0000   YZ=              0.0000

 Normal termination of Gaussian 16 at Sat Aug 27 10:21:20 2022.
