 Gaussian 16, Revision A.03,
 Gaussian 16:  ES64L-G16RevA.03 25-Dec-2016

 ------------------
 #p CCSD(T)/cc-pVTZ
 ------------------

 ------------
 H2O_H2O_2848
 ------------
 Symbolic Z-matrix:
 Charge =  0 Multiplicity = 1

                         Standard orientation:
 ---------------------------------------------------------------------
 Center     Atomic      Atomic             Coordinates (Angstroms)
 Number     Number       Type             X           Y           Z
 ---------------------------------------------------------------------
      1          8           0        0.057105   -2.248191    0.000000
      2          1           0       -0.743682   -2.817617    0.000000
      3          1           0        0.855456   -2.821026    0.000000
      4          8           0        0.057105    2.354703    0.000000
      5          1           0       -0.458729    3.191018    0.000000
      6          1           0       -0.566719    1.595526    0.000000
 ---------------------------------------------------------------------

 SCF Done:  E(RHF) =  -152.108190145     A.U. after   10 cycles
 E2 =    -0.5259675475D+00 EUMP2 =    -0.15263415769264D+03
 CCSD(T)
 CCSD(T)= -0.15266134403D+03

 The electronic state is 1-A'.
 Alpha  occ. eigenvalues --  -20.55922 -20.54649  -1.33210  -1.31949  -0.70616
 Alpha  occ. eigenvalues --   -0.69331  -0.56683  -0.55410  -0.50327  -0.49071
 Alpha virt. eigenvalues --    0.13180   0.15484   0.19900   0.21710   0.53923
 Alpha virt. eigenvalues --    0.54834   0.56950   0.58098   0.66615   0.70878
 Alpha virt. eigenvalues --    0.78567   0.79501   0.79782   0.80384   0.82756

 Mulliken charges:
               1
     1  O   -0.510242
     2  H    0.252800
     3  H    0.258548
     4  O   -0.511654
     5  H    0.249269
     6  H    0.261278
 Sum of Mulliken charges =  -0.00000

 Dipole moment (field-independent basis, Debye):
    X=             -1.9466    Y=             -1.9110    Z=              0.0000  Tot=              2.7279
 Quadrupole moment (field-independent basis, Debye-Ang):
   XX=             -9.8526   YY=             -0.2994   ZZ=            -14.7151
   XY=             -4.6590   XZ=              0.0000   YZ=              0.0000

 Normal termination of Gaussian 16 at Fri Aug 26 16:44:55 2022.
