 Gaussian 16, Revision A.03,
 Gaussian 16:  ES64L-G16RevA.03 25-Dec-2016

 ------------------
 #p CCSD(T)/cc-pVTZ
 ------------------

 -----------
 H2O_H2O_764
 -----------
 Symbolic Z-matrix:
 Charge =  0 Multiplicity = 1

                         Standard orientation:
 ---------------------------------------------------------------------
 Center     Atomic      Atomic             Coordinates (Angstroms)
 Number     Number       Type             X           Y           Z
 ---------------------------------------------------------------------
      1          8           0        0.045383   -1.178361    0.000000
      2          1           0       -0.756039   -1.746893    0.000000
      3          1           0        0.843095   -1.752088    0.000000
      4          8           0        0.045383    1.222756    0.000000
      5          1           0        0.082213    2.204668    0.000000
      6          1           0       -0.895401    0.939152    0.000000
 ---------------------------------------------------------------------

 SCF Done:  E(RHF) =  -152.093680419     A.U. after   11 cycles
 E2 =    -0.5299515934D+00 EUMP2 =    -0.15262363201285D+03
 CCSD(T)
 CCSD(T)= -0.15265080098D+03

 The electronic state is 1-A'.
 Alpha  occ. eigenvalues --  -20.54342 -20.52767  -1.32218  -1.29952  -0.69569
 Alpha  occ. eigenvalues --   -0.67874  -0.56651  -0.51204  -0.49393  -0.46852
 Alpha virt. eigenvalues --    0.13962   0.17585   0.20129   0.23521   0.53177
 Alpha virt. eigenvalues --    0.57732   0.58328   0.60863   0.70957   0.75431
 Alpha virt. eigenvalues --    0.78137   0.80447   0.83286   0.85386   0.87251

 Mulliken charges:
               1
     1  O   -0.466078
     2  H    0.225604
     3  H    0.244232
     4  O   -0.455872
     5  H    0.207014
     6  H    0.245100
 Sum of Mulliken charges =  -0.00000

 Dipole moment (field-independent basis, Debye):
    X=             -1.4010    Y=             -0.8775    Z=              0.0000  Tot=              1.6531
 Quadrupole moment (field-independent basis, Debye-Ang):
   XX=             -9.2059   YY=             -3.8306   ZZ=            -14.7252
   XY=             -1.1735   XZ=              0.0000   YZ=              0.0000

 3989\MP4DQ=-152.6320171\MP4SDQ=-152.6352816\CCSD=-152.6346158\CCSD(T)=
 Normal termination of Gaussian 16 at Fri Aug 26 19:46:56 2022.
