 Gaussian 16, Revision A.03,
 Gaussian 16:  ES64L-G16RevA.03 25-Dec-2016

 ------------------
 #p CCSD(T)/cc-pVTZ
 ------------------

 ------------
 H2O_H2O_2928
 ------------
 Symbolic Z-matrix:
 Charge =  0 Multiplicity = 1

                         Standard orientation:
 ---------------------------------------------------------------------
 Center     Atomic      Atomic             Coordinates (Angstroms)
 Number     Number       Type             X           Y           Z
 ---------------------------------------------------------------------
      1          8           0        0.011143   -2.358033    0.000000
      2          1           0       -0.788660   -2.928840    0.000000
      3          1           0        0.810481   -2.929490    0.000000
      4          8           0        0.011143    2.360219    0.000000
      5          1           0        0.684219    3.076092    0.000000
      6          1           0       -0.884323    2.764752    0.000000
 ---------------------------------------------------------------------

 SCF Done:  E(RHF) =  -152.105961101     A.U. after   10 cycles
 E2 =    -0.5260614880D+00 EUMP2 =    -0.15263202258878D+03
 CCSD(T)
 CCSD(T)= -0.15265926954D+03

 The electronic state is 1-A'.
 Alpha  occ. eigenvalues --  -20.54858 -20.54835  -1.32150  -1.32127  -0.69561
 Alpha  occ. eigenvalues --   -0.69537  -0.55547  -0.55480  -0.49251  -0.49228
 Alpha virt. eigenvalues --    0.14385   0.15021   0.20606   0.20812   0.54818
 Alpha virt. eigenvalues --    0.55225   0.57768   0.57870   0.66613   0.70888
 Alpha virt. eigenvalues --    0.79583   0.79686   0.81042   0.81150   0.82508

 Mulliken charges:
               1
     1  O   -0.500325
     2  H    0.249593
     3  H    0.250735
     4  O   -0.500269
     5  H    0.249411
     6  H    0.250856
 Sum of Mulliken charges =  -0.00000

 Dipole moment (field-independent basis, Debye):
    X=             -0.3799    Y=             -0.0387    Z=              0.0000  Tot=              0.3819
 Quadrupole moment (field-independent basis, Debye-Ang):
   XX=             -7.8962   YY=              6.6873   ZZ=            -14.7097
   XY=             -0.5659   XZ=              0.0000   YZ=              0.0000

 Normal termination of Gaussian 16 at Fri Aug 26 17:32:34 2022.
