 Gaussian 16, Revision A.03,
 Gaussian 16:  ES64L-G16RevA.03 25-Dec-2016

 ------------------
 #p CCSD(T)/cc-pVTZ
 ------------------

 ------------
 H2O_H2O_4727
 ------------
 Symbolic Z-matrix:
 Charge =  0 Multiplicity = 1

                         Standard orientation:
 ---------------------------------------------------------------------
 Center     Atomic      Atomic             Coordinates (Angstroms)
 Number     Number       Type             X           Y           Z
 ---------------------------------------------------------------------
      1          8           0        0.007455   -3.315996    0.000000
      2          1           0       -0.792227   -3.886974    0.000000
      3          1           0        0.806915   -3.887283    0.000000
      4          8           0        0.007455    3.316971    0.000000
      5          1           0        0.725768    3.987443    0.000000
      6          1           0       -0.859735    3.779019    0.000000
 ---------------------------------------------------------------------

 SCF Done:  E(RHF) =  -152.106911084     A.U. after   10 cycles
 E2 =    -0.5259189510D+00 EUMP2 =    -0.15263283003519D+03
 CCSD(T)
 CCSD(T)= -0.15266006096D+03

 The electronic state is 1-A'.
 Alpha  occ. eigenvalues --  -20.55235 -20.55230  -1.32531  -1.32526  -0.69938
 Alpha  occ. eigenvalues --   -0.69933  -0.55956  -0.55951  -0.49639  -0.49634
 Alpha virt. eigenvalues --    0.14397   0.14410   0.20449   0.20457   0.54630
 Alpha virt. eigenvalues --    0.54636   0.57504   0.57510   0.68265   0.68285
 Alpha virt. eigenvalues --    0.79240   0.79245   0.80682   0.80688   0.82608

 Mulliken charges:
               1
     1  O   -0.505931
     2  H    0.252818
     3  H    0.253113
     4  O   -0.505927
     5  H    0.252755
     6  H    0.253172
 Sum of Mulliken charges =   0.00000

 Dipole moment (field-independent basis, Debye):
    X=             -0.2563    Y=             -0.0170    Z=              0.0000  Tot=              0.2569
 Quadrupole moment (field-independent basis, Debye-Ang):
   XX=             -7.8364   YY=             14.4173   ZZ=            -14.7108
   XY=             -0.6178   XZ=              0.0000   YZ=              0.0000

 5142\MP4DQ=-152.6419567\MP4SDQ=-152.6450158\CCSD=-152.6444278\CCSD(T)=
 Normal termination of Gaussian 16 at Sat Aug 27 08:59:12 2022.
