 Gaussian 16, Revision A.03,
 Gaussian 16:  ES64L-G16RevA.03 25-Dec-2016

 ------------------
 #p CCSD(T)/cc-pVTZ
 ------------------

 ------------
 H2O_H2O_4786
 ------------
 Symbolic Z-matrix:
 Charge =  0 Multiplicity = 1

                         Standard orientation:
 ---------------------------------------------------------------------
 Center     Atomic      Atomic             Coordinates (Angstroms)
 Number     Number       Type             X           Y           Z
 ---------------------------------------------------------------------
      1          8           0        0.037671   -3.327762    0.000000
      2          1           0       -0.762453   -3.898119    0.000000
      3          1           0        0.836688   -3.899670    0.000000
      4          8           0        0.037671    3.356036    0.000000
      5          1           0        0.263175    4.312411    0.000000
      6          1           0       -0.940147    3.259190    0.000000
 ---------------------------------------------------------------------

 SCF Done:  E(RHF) =  -152.107103492     A.U. after   10 cycles
 E2 =    -0.5259023266D+00 EUMP2 =    -0.15263300581827D+03
 CCSD(T)
 CCSD(T)= -0.15266023265D+03

 The electronic state is 1-A'.
 Alpha  occ. eigenvalues --  -20.55373 -20.55227  -1.32670  -1.32523  -0.70076
 Alpha  occ. eigenvalues --   -0.69927  -0.56103  -0.55957  -0.49779  -0.49633
 Alpha virt. eigenvalues --    0.14279   0.14425   0.20338   0.20490   0.54489
 Alpha virt. eigenvalues --    0.54645   0.57381   0.57526   0.68109   0.68258
 Alpha virt. eigenvalues --    0.79100   0.79244   0.80538   0.80695   0.82463

 Mulliken charges:
               1
     1  O   -0.507076
     2  H    0.252813
     3  H    0.254262
     4  O   -0.506971
     5  H    0.252352
     6  H    0.254619
 Sum of Mulliken charges =  -0.00000

 Dipole moment (field-independent basis, Debye):
    X=             -1.2955    Y=             -0.4928    Z=              0.0000  Tot=              1.3860
 Quadrupole moment (field-independent basis, Debye-Ang):
   XX=             -8.6953   YY=             12.2467   ZZ=            -14.7112
   XY=             -3.4792   XZ=              0.0000   YZ=              0.0000

 Normal termination of Gaussian 16 at Sat Aug 27 09:19:47 2022.
