 Gaussian 16, Revision A.03,
 Gaussian 16:  ES64L-G16RevA.03 25-Dec-2016

 ------------------
 #p CCSD(T)/cc-pVTZ
 ------------------

 ------------
 H2O_H2O_1501
 ------------
 Symbolic Z-matrix:
 Charge =  0 Multiplicity = 1

                         Standard orientation:
 ---------------------------------------------------------------------
 Center     Atomic      Atomic             Coordinates (Angstroms)
 Number     Number       Type             X           Y           Z
 ---------------------------------------------------------------------
      1          8           0        0.003735   -1.601221    0.000000
      2          1           0       -0.795950   -2.172193    0.000000
      3          1           0        0.803192   -2.172514    0.000000
      4          8           0        0.003735    1.601465    0.000000
      5          1           0        0.764366    2.223515    0.000000
      6          1           0       -0.831374    2.119247    0.000000
 ---------------------------------------------------------------------

 SCF Done:  E(RHF) =  -152.102651604     A.U. after   10 cycles
 E2 =    -0.5270397011D+00 EUMP2 =    -0.15262969130489D+03
 CCSD(T)
 CCSD(T)= -0.15265697131D+03

 The electronic state is 1-A'.
 Alpha  occ. eigenvalues --  -20.54035 -20.54029  -1.31388  -1.31255  -0.68806
 Alpha  occ. eigenvalues --   -0.68701  -0.55436  -0.53577  -0.48560  -0.48252
 Alpha virt. eigenvalues --    0.14339   0.16460   0.20583   0.21669   0.52339
 Alpha virt. eigenvalues --    0.58175   0.58566   0.59022   0.63189   0.76068
 Alpha virt. eigenvalues --    0.78330   0.78365   0.79618   0.82115   0.85909

 Mulliken charges:
               1
     1  O   -0.477255
     2  H    0.238102
     3  H    0.239162
     4  O   -0.477217
     5  H    0.238111
     6  H    0.239097
 Sum of Mulliken charges =  -0.00000

 Dipole moment (field-independent basis, Debye):
    X=             -0.1234    Y=             -0.0046    Z=              0.0000  Tot=              0.1235
 Quadrupole moment (field-independent basis, Debye-Ang):
   XX=             -7.8882   YY=              0.4645   ZZ=            -14.7090
   XY=             -0.0935   XZ=              0.0000   YZ=              0.0000

 Normal termination of Gaussian 16 at Sat Aug 27 05:08:27 2022.
