 Gaussian 16, Revision A.03,
 Gaussian 16:  ES64L-G16RevA.03 25-Dec-2016

 ------------------
 #p CCSD(T)/cc-pVTZ
 ------------------

 ------------
 H2O_H2O_1963
 ------------
 Symbolic Z-matrix:
 Charge =  0 Multiplicity = 1

                         Standard orientation:
 ---------------------------------------------------------------------
 Center     Atomic      Atomic             Coordinates (Angstroms)
 Number     Number       Type             X           Y           Z
 ---------------------------------------------------------------------
      1          8           0        0.042979   -1.819639    0.000000
      2          1           0       -0.757738   -2.389163    0.000000
      3          1           0        0.841400   -2.392377    0.000000
      4          8           0        0.042979    1.858378    0.000000
      5          1           0        0.142738    2.835903    0.000000
      6          1           0       -0.914064    1.635725    0.000000
 ---------------------------------------------------------------------

 SCF Done:  E(RHF) =  -152.105972339     A.U. after   10 cycles
 E2 =    -0.5264484231D+00 EUMP2 =    -0.15263242076249D+03
 CCSD(T)
 CCSD(T)= -0.15265963281D+03

 The electronic state is 1-A'.
 Alpha  occ. eigenvalues --  -20.55026 -20.54305  -1.32304  -1.31575  -0.69722
 Alpha  occ. eigenvalues --   -0.68964  -0.55722  -0.54862  -0.49410  -0.48683
 Alpha virt. eigenvalues --    0.13718   0.16077   0.20283   0.21837   0.53322
 Alpha virt. eigenvalues --    0.55211   0.57666   0.58446   0.63789   0.76291
 Alpha virt. eigenvalues --    0.78900   0.79042   0.80681   0.80688   0.84305

 Mulliken charges:
               1
     1  O   -0.494513
     2  H    0.243753
     3  H    0.252064
     4  O   -0.496048
     5  H    0.241433
     6  H    0.253312
 Sum of Mulliken charges =  -0.00000

 Dipole moment (field-independent basis, Debye):
    X=             -1.4410    Y=             -0.7142    Z=              0.0000  Tot=              1.6083
 Quadrupole moment (field-independent basis, Debye-Ang):
   XX=             -8.9853   YY=              1.1742   ZZ=            -14.7122
   XY=             -1.9259   XZ=              0.0000   YZ=              0.0000

 Normal termination of Gaussian 16 at Sat Aug 27 07:48:19 2022.
