 Gaussian 16, Revision A.03,
 Gaussian 16:  ES64L-G16RevA.03 25-Dec-2016

 ------------------
 #p CCSD(T)/cc-pVTZ
 ------------------

 ------------
 H2O_H2O_4631
 ------------
 Symbolic Z-matrix:
 Charge =  0 Multiplicity = 1

                         Standard orientation:
 ---------------------------------------------------------------------
 Center     Atomic      Atomic             Coordinates (Angstroms)
 Number     Number       Type             X           Y           Z
 ---------------------------------------------------------------------
      1          8           0        0.021859   -3.258634    0.000000
      2          1           0       -0.778041   -3.829305    0.000000
      3          1           0        0.821100   -3.830227    0.000000
      4          8           0        0.021859    3.267303    0.000000
      5          1           0        0.542484    4.100643    0.000000
      6          1           0       -0.935283    3.489529    0.000000
 ---------------------------------------------------------------------

 SCF Done:  E(RHF) =  -152.106936224     A.U. after   10 cycles
 E2 =    -0.5259179562D+00 EUMP2 =    -0.15263285417995D+03
 CCSD(T)
 CCSD(T)= -0.15266008450D+03

 The electronic state is 1-A'.
 Alpha  occ. eigenvalues --  -20.55260 -20.55213  -1.32556  -1.32509  -0.69963
 Alpha  occ. eigenvalues --   -0.69915  -0.55982  -0.55935  -0.49664  -0.49618
 Alpha virt. eigenvalues --    0.14376   0.14427   0.20428   0.20477   0.54605
 Alpha virt. eigenvalues --    0.54656   0.57481   0.57528   0.68240   0.68296
 Alpha virt. eigenvalues --    0.79215   0.79261   0.80656   0.80707   0.82583

 Mulliken charges:
               1
     1  O   -0.506083
     2  H    0.252589
     3  H    0.253493
     4  O   -0.506040
     5  H    0.252365
     6  H    0.253675
 Sum of Mulliken charges =  -0.00000

 Dipole moment (field-independent basis, Debye):
    X=             -0.7514    Y=             -0.1512    Z=              0.0000  Tot=              0.7664
 Quadrupole moment (field-independent basis, Debye-Ang):
   XX=             -8.1027   YY=             13.3679   ZZ=            -14.7109
   XY=             -1.8246   XZ=              0.0000   YZ=              0.0000

 Normal termination of Gaussian 16 at Sat Aug 27 08:26:15 2022.
