 Gaussian 16, Revision A.03,
 Gaussian 16:  ES64L-G16RevA.03 25-Dec-2016

 ------------------
 #p CCSD(T)/cc-pVTZ
 ------------------

 ------------
 H2O_H2O_4428
 ------------
 Symbolic Z-matrix:
 Charge =  0 Multiplicity = 1

                         Standard orientation:
 ---------------------------------------------------------------------
 Center     Atomic      Atomic             Coordinates (Angstroms)
 Number     Number       Type             X           Y           Z
 ---------------------------------------------------------------------
      1          8           0        0.011143   -3.155787    0.000000
      2          1           0       -0.788602   -3.726676    0.000000
      3          1           0        0.810540   -3.727161    0.000000
      4          8           0        0.011143    3.157975    0.000000
      5          1           0        0.684145    3.873916    0.000000
      6          1           0       -0.884365    3.562416    0.000000
 ---------------------------------------------------------------------

 SCF Done:  E(RHF) =  -152.106829038     A.U. after   10 cycles
 E2 =    -0.5259293632D+00 EUMP2 =    -0.15263275840131D+03
 CCSD(T)
 CCSD(T)= -0.15265999087D+03

 The electronic state is 1-A'.
 Alpha  occ. eigenvalues --  -20.55198 -20.55186  -1.32494  -1.32482  -0.69901
 Alpha  occ. eigenvalues --   -0.69888  -0.55915  -0.55902  -0.49601  -0.49589
 Alpha virt. eigenvalues --    0.14422   0.14452   0.20473   0.20491   0.54667
 Alpha virt. eigenvalues --    0.54682   0.57534   0.57548   0.68298   0.68356
 Alpha virt. eigenvalues --    0.79277   0.79290   0.80721   0.80735   0.82649

 Mulliken charges:
               1
     1  O   -0.505449
     2  H    0.252471
     3  H    0.252978
     4  O   -0.505435
     5  H    0.252362
     6  H    0.253073
 Sum of Mulliken charges =  -0.00000

 Dipole moment (field-independent basis, Debye):
    X=             -0.3828    Y=             -0.0382    Z=              0.0000  Tot=              0.3847
 Quadrupole moment (field-independent basis, Debye-Ang):
   XX=             -7.8811   YY=             13.0541   ZZ=            -14.7107
   XY=             -0.8670   XZ=              0.0000   YZ=              0.0000

 Normal termination of Gaussian 16 at Sat Aug 27 07:15:59 2022.
