 Gaussian 16, Revision A.03,
 Gaussian 16:  ES64L-G16RevA.03 25-Dec-2016

 ------------------
 #p CCSD(T)/cc-pVTZ
 ------------------

 ------------
 H2O_H2O_4366
 ------------
 Symbolic Z-matrix:
 Charge =  0 Multiplicity = 1

                         Standard orientation:
 ---------------------------------------------------------------------
 Center     Atomic      Atomic             Coordinates (Angstroms)
 Number     Number       Type             X           Y           Z
 ---------------------------------------------------------------------
      1          8           0        0.049500   -3.086143    0.000000
      2          1           0       -0.750851   -3.656181    0.000000
      3          1           0        0.848290   -3.658367    0.000000
      4          8           0        0.049500    3.143121    0.000000
      5          1           0       -0.043991    4.121265    0.000000
      6          1           0       -0.845455    2.737460    0.000000
 ---------------------------------------------------------------------

 SCF Done:  E(RHF) =  -152.107252883     A.U. after   10 cycles
 E2 =    -0.5258950241D+00 EUMP2 =    -0.15263314790722D+03
 CCSD(T)
 CCSD(T)= -0.15266037117D+03

 The electronic state is 1-A'.
 Alpha  occ. eigenvalues --  -20.55489 -20.55148  -1.32787  -1.32445  -0.70193
 Alpha  occ. eigenvalues --   -0.69846  -0.56227  -0.55884  -0.49897  -0.49557
 Alpha virt. eigenvalues --    0.14164   0.14523   0.20239   0.20604   0.54369
 Alpha virt. eigenvalues --    0.54731   0.57275   0.57617   0.67953   0.68343
 Alpha virt. eigenvalues --    0.78982   0.79318   0.80416   0.80780   0.82347

 Mulliken charges:
               1
     1  O   -0.507975
     2  H    0.252837
     3  H    0.255139
     4  O   -0.507744
     5  H    0.251884
     6  H    0.255859
 Sum of Mulliken charges =  -0.00000

 Dipole moment (field-independent basis, Debye):
    X=             -1.7009    Y=             -0.9958    Z=              0.0000  Tot=              1.9709
 Quadrupole moment (field-independent basis, Debye-Ang):
   XX=             -9.3454   YY=              8.1335   ZZ=            -14.7117
   XY=             -4.6359   XZ=              0.0000   YZ=              0.0000

 Normal termination of Gaussian 16 at Sat Aug 27 06:54:30 2022.
