 Gaussian 16, Revision A.03,
 Gaussian 16:  ES64L-G16RevA.03 25-Dec-2016

 ------------------
 #p CCSD(T)/cc-pVTZ
 ------------------

 ------------
 H2O_H2O_4274
 ------------
 Symbolic Z-matrix:
 Charge =  0 Multiplicity = 1

                         Standard orientation:
 ---------------------------------------------------------------------
 Center     Atomic      Atomic             Coordinates (Angstroms)
 Number     Number       Type             X           Y           Z
 ---------------------------------------------------------------------
      1          8           0        0.057205   -3.001970    0.000000
      2          1           0       -0.743283   -3.571816    0.000000
      3          1           0        0.855857   -3.574386    0.000000
      4          8           0        0.057205    3.116012    0.000000
      5          1           0       -0.512641    3.916500    0.000000
      6          1           0       -0.515211    2.317359    0.000000
 ---------------------------------------------------------------------

 SCF Done:  E(RHF) =  -152.107742697     A.U. after   10 cycles
 E2 =    -0.5258539419D+00 EUMP2 =    -0.15263359663941D+03
 CCSD(T)
 CCSD(T)= -0.15266080933D+03

 The electronic state is 1-A'.
 Alpha  occ. eigenvalues --  -20.55797 -20.55096  -1.33097  -1.32396  -0.70503
 Alpha  occ. eigenvalues --   -0.69794  -0.56560  -0.55851  -0.50211  -0.49512
 Alpha virt. eigenvalues --    0.13866   0.14632   0.19996   0.20757   0.54053
 Alpha virt. eigenvalues --    0.54771   0.57002   0.57696   0.67524   0.68406
 Alpha virt. eigenvalues --    0.78670   0.79356   0.80092   0.80761   0.82134

 Mulliken charges:
               1
     1  O   -0.510879
     2  H    0.254168
     3  H    0.256719
     4  O   -0.510414
     5  H    0.252319
     6  H    0.258087
 Sum of Mulliken charges =  -0.00000

 Dipole moment (field-independent basis, Debye):
    X=             -1.9655    Y=             -1.9961    Z=              0.0000  Tot=              2.8013
 Quadrupole moment (field-independent basis, Debye-Ang):
   XX=             -9.8642   YY=              2.1204   ZZ=            -14.7129
   XY=             -6.2761   XZ=              0.0000   YZ=              0.0000

 Normal termination of Gaussian 16 at Sat Aug 27 06:23:12 2022.
