 Gaussian 16, Revision A.03,
 Gaussian 16:  ES64L-G16RevA.03 25-Dec-2016

 ------------------
 #p CCSD(T)/cc-pVTZ
 ------------------

 -----------
 H2O_H2O_461
 -----------
 Symbolic Z-matrix:
 Charge =  0 Multiplicity = 1

                         Standard orientation:
 ---------------------------------------------------------------------
 Center     Atomic      Atomic             Coordinates (Angstroms)
 Number     Number       Type             X           Y           Z
 ---------------------------------------------------------------------
      1          8           0        0.037701   -1.027654    0.000000
      2          1           0       -0.763643   -1.596295    0.000000
      3          1           0        0.835491   -1.601271    0.000000
      4          8           0        0.037701    1.055766    0.000000
      5          1           0        0.265253    2.011657    0.000000
      6          1           0       -0.940322    0.961015    0.000000
 ---------------------------------------------------------------------

 SCF Done:  E(RHF) =  -152.067845351     A.U. after   11 cycles
 E2 =    -0.5335836182D+00 EUMP2 =    -0.15260142896911D+03
 CCSD(T)
 CCSD(T)= -0.15262838245D+03

 The electronic state is 1-A'.
 Alpha  occ. eigenvalues --  -20.53093 -20.52123  -1.32355  -1.28985  -0.69426
 Alpha  occ. eigenvalues --   -0.67508  -0.58545  -0.49506  -0.46870  -0.45635
 Alpha virt. eigenvalues --    0.14288   0.18000   0.20224   0.23391   0.53068
 Alpha virt. eigenvalues --    0.57640   0.58377   0.63395   0.71072   0.76530
 Alpha virt. eigenvalues --    0.79041   0.81684   0.83566   0.85748   0.88004

 Mulliken charges:
               1
     1  O   -0.447111
     2  H    0.213214
     3  H    0.232243
     4  O   -0.418207
     5  H    0.182607
     6  H    0.237254
 Sum of Mulliken charges =  -0.00000

 Dipole moment (field-independent basis, Debye):
    X=             -1.1083    Y=             -0.5696    Z=              0.0000  Tot=              1.2461
 Quadrupole moment (field-independent basis, Debye-Ang):
   XX=             -8.9033   YY=             -5.2665   ZZ=            -14.7286
   XY=             -0.6213   XZ=              0.0000   YZ=              0.0000

 Normal termination of Gaussian 16 at Fri Aug 26 16:40:50 2022.
