 Gaussian 16, Revision A.03,
 Gaussian 16:  ES64L-G16RevA.03 25-Dec-2016

 ------------------
 #p CCSD(T)/cc-pVTZ
 ------------------

 ------------
 H2O_H2O_4051
 ------------
 Symbolic Z-matrix:
 Charge =  0 Multiplicity = 1

                         Standard orientation:
 ---------------------------------------------------------------------
 Center     Atomic      Atomic             Coordinates (Angstroms)
 Number     Number       Type             X           Y           Z
 ---------------------------------------------------------------------
      1          8           0        0.003735   -2.957404    0.000000
      2          1           0       -0.795898   -3.528449    0.000000
      3          1           0        0.803244   -3.528623    0.000000
      4          8           0        0.003735    2.957647    0.000000
      5          1           0        0.764309    3.579769    0.000000
      6          1           0       -0.831421    3.475353    0.000000
 ---------------------------------------------------------------------

 SCF Done:  E(RHF) =  -152.106670269     A.U. after   10 cycles
 E2 =    -0.5259488675D+00 EUMP2 =    -0.15263261913601D+03
 CCSD(T)
 CCSD(T)= -0.15265985465D+03

 The electronic state is 1-A'.
 Alpha  occ. eigenvalues --  -20.55124 -20.55123  -1.32419  -1.32418  -0.69827
 Alpha  occ. eigenvalues --   -0.69825  -0.55832  -0.55830  -0.49525  -0.49524
 Alpha virt. eigenvalues --    0.14460   0.14525   0.20516   0.20542   0.54735
 Alpha virt. eigenvalues --    0.54754   0.57592   0.57605   0.68321   0.68513
 Alpha virt. eigenvalues --    0.79353   0.79355   0.80797   0.80804   0.82728

 Mulliken charges:
               1
     1  O   -0.504515
     2  H    0.252156
     3  H    0.252360
     4  O   -0.504514
     5  H    0.252117
     6  H    0.252396
 Sum of Mulliken charges =  -0.00000

 Dipole moment (field-independent basis, Debye):
    X=             -0.1282    Y=             -0.0043    Z=              0.0000  Tot=              0.1283
 Quadrupole moment (field-independent basis, Debye-Ang):
   XX=             -7.8142   YY=             11.6062   ZZ=            -14.7104
   XY=             -0.2630   XZ=              0.0000   YZ=              0.0000

 Normal termination of Gaussian 16 at Sat Aug 27 05:06:47 2022.
