 Gaussian 16, Revision A.03,
 Gaussian 16:  ES64L-G16RevA.03 25-Dec-2016

 ------------------
 #p CCSD(T)/cc-pVTZ
 ------------------

 ------------
 H2O_H2O_1808
 ------------
 Symbolic Z-matrix:
 Charge =  0 Multiplicity = 1

                         Standard orientation:
 ---------------------------------------------------------------------
 Center     Atomic      Atomic             Coordinates (Angstroms)
 Number     Number       Type             X           Y           Z
 ---------------------------------------------------------------------
      1          8           0        0.028567   -1.752636    0.000000
      2          1           0       -0.771801   -2.322651    0.000000
      3          1           0        0.827340   -2.324884    0.000000
      4          8           0        0.028567    1.767860    0.000000
      5          1           0        0.436700    2.661690    0.000000
      6          1           0       -0.949314    1.864054    0.000000
 ---------------------------------------------------------------------

 SCF Done:  E(RHF) =  -152.104681313     A.U. after   10 cycles
 E2 =    -0.5266287011D+00 EUMP2 =    -0.15263131001391D+03
 CCSD(T)
 CCSD(T)= -0.15265854900D+03

 The electronic state is 1-A'.
 Alpha  occ. eigenvalues --  -20.54557 -20.54259  -1.31838  -1.31527  -0.69261
 Alpha  occ. eigenvalues --   -0.68937  -0.55431  -0.54500  -0.48949  -0.48612
 Alpha virt. eigenvalues --    0.14043   0.16139   0.20480   0.21592   0.53115
 Alpha virt. eigenvalues --    0.56369   0.57980   0.58436   0.62652   0.76441
 Alpha virt. eigenvalues --    0.78897   0.79135   0.80420   0.81136   0.83928

 Mulliken charges:
               1
     1  O   -0.487774
     2  H    0.241057
     3  H    0.247289
     4  O   -0.487896
     5  H    0.239805
     6  H    0.247520
 Sum of Mulliken charges =  -0.00000

 Dipole moment (field-independent basis, Debye):
    X=             -0.9541    Y=             -0.2823    Z=              0.0000  Tot=              0.9950
 Quadrupole moment (field-independent basis, Debye-Ang):
   XX=             -8.3583   YY=              1.4211   ZZ=            -14.7101
   XY=             -0.9958   XZ=              0.0000   YZ=              0.0000

 Normal termination of Gaussian 16 at Sat Aug 27 06:54:10 2022.
