 Gaussian 16, Revision A.03,
 Gaussian 16:  ES64L-G16RevA.03 25-Dec-2016

 ------------------
 #p CCSD(T)/cc-pVTZ
 ------------------

 ------------
 H2O_H2O_4821
 ------------
 Symbolic Z-matrix:
 Charge =  0 Multiplicity = 1

                         Standard orientation:
 ---------------------------------------------------------------------
 Center     Atomic      Atomic             Coordinates (Angstroms)
 Number     Number       Type             X           Y           Z
 ---------------------------------------------------------------------
      1          8           0        0.056082   -3.306569    0.000000
      2          1           0       -0.744310   -3.876550    0.000000
      3          1           0        0.854831   -3.878851    0.000000
      4          8           0        0.056082    3.398350    0.000000
      5          1           0       -0.346798    4.294560    0.000000
      6          1           0       -0.661032    2.726596    0.000000
 ---------------------------------------------------------------------

 SCF Done:  E(RHF) =  -152.107527342     A.U. after   10 cycles
 E2 =    -0.5258647264D+00 EUMP2 =    -0.15263339206856D+03
 CCSD(T)
 CCSD(T)= -0.15266060989D+03

 The electronic state is 1-A'.
 Alpha  occ. eigenvalues --  -20.55671 -20.55204  -1.32970  -1.32503  -0.70376
 Alpha  occ. eigenvalues --   -0.69903  -0.56423  -0.55952  -0.50083  -0.49616
 Alpha virt. eigenvalues --    0.14014   0.14484   0.20096   0.20591   0.54184
 Alpha virt. eigenvalues --    0.54668   0.57113   0.57580   0.67753   0.68242
 Alpha virt. eigenvalues --    0.78797   0.79257   0.80226   0.80719   0.82151

 Mulliken charges:
               1
     1  O   -0.509591
     2  H    0.253790
     3  H    0.255801
     4  O   -0.509336
     5  H    0.252638
     6  H    0.256698
 Sum of Mulliken charges =  -0.00000

 Dipole moment (field-independent basis, Debye):
    X=             -1.9292    Y=             -1.6007    Z=              0.0000  Tot=              2.5068
 Quadrupole moment (field-independent basis, Debye-Ang):
   XX=             -9.7846   YY=              5.8611   ZZ=            -14.7123
   XY=             -6.3234   XZ=              0.0000   YZ=              0.0000

 Normal termination of Gaussian 16 at Sat Aug 27 09:31:27 2022.
