 Gaussian 16, Revision A.03,
 Gaussian 16:  ES64L-G16RevA.03 25-Dec-2016

 ------------------
 #p CCSD(T)/cc-pVTZ
 ------------------

 -----------
 H2O_H2O_396
 -----------
 Symbolic Z-matrix:
 Charge =  0 Multiplicity = 1

                         Standard orientation:
 ---------------------------------------------------------------------
 Center     Atomic      Atomic             Coordinates (Angstroms)
 Number     Number       Type             X           Y           Z
 ---------------------------------------------------------------------
      1          8           0        0.056237   -0.953392    0.000000
      2          1           0       -0.746081   -1.520658    0.000000
      3          1           0        0.853042   -1.528376    0.000000
      4          8           0        0.056237    1.044792    0.000000
      5          1           0       -0.343605    1.942363    0.000000
      6          1           0       -0.663149    0.375471    0.000000
 ---------------------------------------------------------------------

 SCF Done:  E(RHF) =  -152.048136060     A.U. after   11 cycles
 E2 =    -0.5376545233D+00 EUMP2 =    -0.15258579058336D+03
 CCSD(T)
 CCSD(T)= -0.15261206614D+03

 The electronic state is 1-A'.
 Alpha  occ. eigenvalues --  -20.55928 -20.50035  -1.36296  -1.27652  -0.73906
 Alpha  occ. eigenvalues --   -0.70192  -0.52712  -0.52505  -0.50037  -0.44590
 Alpha virt. eigenvalues --    0.13138   0.18847   0.19422   0.26142   0.50177
 Alpha virt. eigenvalues --    0.55227   0.61940   0.65720   0.72389   0.75078
 Alpha virt. eigenvalues --    0.79013   0.80816   0.83840   0.85187   0.87822

 Mulliken charges:
               1
     1  O   -0.385754
     2  H    0.198645
     3  H    0.233491
     4  O   -0.483860
     5  H    0.179657
     6  H    0.257820
 Sum of Mulliken charges =  -0.00000

 Dipole moment (field-independent basis, Debye):
    X=             -1.6189    Y=             -2.1052    Z=              0.0000  Tot=              2.6557
 Quadrupole moment (field-independent basis, Debye-Ang):
   XX=             -9.8043   YY=             -6.7698   ZZ=            -14.6539
   XY=             -1.8709   XZ=              0.0000   YZ=              0.0000

 Normal termination of Gaussian 16 at Fri Aug 26 16:03:57 2022.
