 Gaussian 16, Revision A.03,
 Gaussian 16:  ES64L-G16RevA.03 25-Dec-2016

 ------------------
 #p CCSD(T)/cc-pVTZ
 ------------------

 ------------
 H2O_H2O_1278
 ------------
 Symbolic Z-matrix:
 Charge =  0 Multiplicity = 1

                         Standard orientation:
 ---------------------------------------------------------------------
 Center     Atomic      Atomic             Coordinates (Angstroms)
 Number     Number       Type             X           Y           Z
 ---------------------------------------------------------------------
      1          8           0        0.011143   -1.480506    0.000000
      2          1           0       -0.788798   -2.051120    0.000000
      3          1           0        0.810344   -2.052155    0.000000
      4          8           0        0.011143    1.482687    0.000000
      5          1           0        0.684391    2.198397    0.000000
      6          1           0       -0.884225    1.887435    0.000000
 ---------------------------------------------------------------------

 SCF Done:  E(RHF) =  -152.101001645     A.U. after   11 cycles
 E2 =    -0.5274821401D+00 EUMP2 =    -0.15262848378477D+03
 CCSD(T)
 CCSD(T)= -0.15265578358D+03

 The electronic state is 1-A'.
 Alpha  occ. eigenvalues --  -20.53826 -20.53772  -1.31245  -1.30983  -0.68650
 Alpha  occ. eigenvalues --   -0.68449  -0.55693  -0.52800  -0.48452  -0.47926
 Alpha virt. eigenvalues --    0.14382   0.16775   0.20556   0.21912   0.51614
 Alpha virt. eigenvalues --    0.58363   0.58673   0.60102   0.66837   0.76345
 Alpha virt. eigenvalues --    0.77625   0.78105   0.79147   0.82834   0.86133

 Mulliken charges:
               1
     1  O   -0.471792
     2  H    0.233937
     3  H    0.237865
     4  O   -0.470778
     5  H    0.233680
     6  H    0.237087
 Sum of Mulliken charges =  -0.00000

 Dipole moment (field-independent basis, Debye):
    X=             -0.3636    Y=             -0.0412    Z=              0.0000  Tot=              0.3659
 Quadrupole moment (field-independent basis, Debye-Ang):
   XX=             -7.9796   YY=             -0.6420   ZZ=            -14.7111
   XY=             -0.2429   XZ=              0.0000   YZ=              0.0000

 Normal termination of Gaussian 16 at Sat Aug 27 03:34:36 2022.
