 Gaussian 16, Revision A.03,
 Gaussian 16:  ES64L-G16RevA.03 25-Dec-2016

 ------------------
 #p CCSD(T)/cc-pVTZ
 ------------------

 -----------
 H2O_H2O_183
 -----------
 Symbolic Z-matrix:
 Charge =  0 Multiplicity = 1

                         Standard orientation:
 ---------------------------------------------------------------------
 Center     Atomic      Atomic             Coordinates (Angstroms)
 Number     Number       Type             X           Y           Z
 ---------------------------------------------------------------------
      1          8           0        0.028577   -0.888442    0.000000
      2          1           0       -0.772558   -1.457378    0.000000
      3          1           0        0.826578   -1.461765    0.000000
      4          8           0        0.028577    0.903588    0.000000
      5          1           0        0.437914    1.796869    0.000000
      6          1           0       -0.949174    1.001100    0.000000
 ---------------------------------------------------------------------

 SCF Done:  E(RHF) =  -152.001848741     A.U. after   11 cycles
 E2 =    -0.5416813836D+00 EUMP2 =    -0.15254353012428D+03
 CCSD(T)
 CCSD(T)= -0.15256951996D+03

 The electronic state is 1-A'.
 Alpha  occ. eigenvalues --  -20.51867 -20.51405  -1.34235  -1.27555  -0.70390
 Alpha  occ. eigenvalues --   -0.67432  -0.61903  -0.50940  -0.43978  -0.39625
 Alpha virt. eigenvalues --    0.14425   0.18785   0.20068   0.23361   0.52652
 Alpha virt. eigenvalues --    0.57256   0.58826   0.65473   0.70552   0.78298
 Alpha virt. eigenvalues --    0.79472   0.82991   0.83658   0.85716   0.88411

 Mulliken charges:
               1
     1  O   -0.402281
     2  H    0.190916
     3  H    0.210094
     4  O   -0.375082
     5  H    0.150643
     6  H    0.225710
 Sum of Mulliken charges =  -0.00000

 Dipole moment (field-independent basis, Debye):
    X=             -0.8020    Y=             -0.3488    Z=              0.0000  Tot=              0.8746
 Quadrupole moment (field-independent basis, Debye-Ang):
   XX=             -8.6969   YY=             -7.3537   ZZ=            -14.7293
   XY=             -0.3393   XZ=              0.0000   YZ=              0.0000

 Normal termination of Gaussian 16 at Fri Aug 26 13:44:20 2022.
