 Gaussian 16, Revision A.03,
 Gaussian 16:  ES64L-G16RevA.03 25-Dec-2016

 ------------------
 #p CCSD(T)/cc-pVTZ
 ------------------

 ------------
 H2O_H2O_4138
 ------------
 Symbolic Z-matrix:
 Charge =  0 Multiplicity = 1

                         Standard orientation:
 ---------------------------------------------------------------------
 Center     Atomic      Atomic             Coordinates (Angstroms)
 Number     Number       Type             X           Y           Z
 ---------------------------------------------------------------------
      1          8           0        0.042964   -2.976348    0.000000
      2          1           0       -0.757311   -3.546493    0.000000
      3          1           0        0.841830   -3.548467    0.000000
      4          8           0        0.042964    3.015154    0.000000
      5          1           0        0.141964    3.992756    0.000000
      6          1           0       -0.913906    2.791759    0.000000
 ---------------------------------------------------------------------

 SCF Done:  E(RHF) =  -152.107054227     A.U. after   10 cycles
 E2 =    -0.5259159163D+00 EUMP2 =    -0.15263297014316D+03
 CCSD(T)
 CCSD(T)= -0.15266019744D+03

 The electronic state is 1-A'.
 Alpha  occ. eigenvalues --  -20.55368 -20.55117  -1.32665  -1.32413  -0.70072
 Alpha  occ. eigenvalues --   -0.69814  -0.56096  -0.55844  -0.49774  -0.49523
 Alpha virt. eigenvalues --    0.14261   0.14545   0.20331   0.20605   0.54491
 Alpha virt. eigenvalues --    0.54765   0.57380   0.57634   0.68074   0.68425
 Alpha virt. eigenvalues --    0.79105   0.79353   0.80543   0.80814   0.82476

 Mulliken charges:
               1
     1  O   -0.506802
     2  H    0.252272
     3  H    0.254531
     4  O   -0.506591
     5  H    0.251495
     6  H    0.255095
 Sum of Mulliken charges =  -0.00000

 Dipole moment (field-independent basis, Debye):
    X=             -1.4751    Y=             -0.6789    Z=              0.0000  Tot=              1.6239
 Quadrupole moment (field-independent basis, Debye-Ang):
   XX=             -8.9651   YY=              8.9696   ZZ=            -14.7113
   XY=             -3.6035   XZ=              0.0000   YZ=              0.0000

 Normal termination of Gaussian 16 at Sat Aug 27 05:35:37 2022.
