 Gaussian 16, Revision A.03,
 Gaussian 16:  ES64L-G16RevA.03 25-Dec-2016

 ------------------
 #p CCSD(T)/cc-pVTZ
 ------------------

 ------------
 H2O_H2O_1295
 ------------
 Symbolic Z-matrix:
 Charge =  0 Multiplicity = 1

                         Standard orientation:
 ---------------------------------------------------------------------
 Center     Atomic      Atomic             Coordinates (Angstroms)
 Number     Number       Type             X           Y           Z
 ---------------------------------------------------------------------
      1          8           0        0.055303   -1.435900    0.000000
      2          1           0       -0.746099   -2.004460    0.000000
      3          1           0        0.853035   -2.009598    0.000000
      4          8           0        0.055303    1.520208    0.000000
      5          1           0       -0.286466    2.441457    0.000000
      6          1           0       -0.705315    0.898142    0.000000
 ---------------------------------------------------------------------

 SCF Done:  E(RHF) =  -152.107175878     A.U. after   10 cycles
 E2 =    -0.5275578368D+00 EUMP2 =    -0.15263473371498D+03
 CCSD(T)
 CCSD(T)= -0.15266185421D+03

 The electronic state is 1-A'.
 Alpha  occ. eigenvalues --  -20.55972 -20.53317  -1.33310  -1.30606  -0.70720
 Alpha  occ. eigenvalues --   -0.68128  -0.56595  -0.54032  -0.50423  -0.47722
 Alpha virt. eigenvalues --    0.13298   0.17208   0.19766   0.24384   0.53022
 Alpha virt. eigenvalues --    0.56181   0.56968   0.58691   0.68788   0.75128
 Alpha virt. eigenvalues --    0.75724   0.77718   0.80886   0.82145   0.84473

 Mulliken charges:
               1
     1  O   -0.486562
     2  H    0.240526
     3  H    0.256597
     4  O   -0.502324
     5  H    0.232490
     6  H    0.259273
 Sum of Mulliken charges =  -0.00000

 Dipole moment (field-independent basis, Debye):
    X=             -1.7980    Y=             -1.6536    Z=              0.0000  Tot=              2.4428
 Quadrupole moment (field-independent basis, Debye-Ang):
   XX=             -9.7381   YY=             -2.9966   ZZ=            -14.7241
   XY=             -2.6147   XZ=              0.0000   YZ=              0.0000

 Normal termination of Gaussian 16 at Sat Aug 27 03:42:07 2022.
