 Gaussian 16, Revision A.03,
 Gaussian 16:  ES64L-G16RevA.03 25-Dec-2016

 ------------------
 #p CCSD(T)/cc-pVTZ
 ------------------

 ------------
 H2O_H2O_2875
 ------------
 Symbolic Z-matrix:
 Charge =  0 Multiplicity = 1

                         Standard orientation:
 ---------------------------------------------------------------------
 Center     Atomic      Atomic             Coordinates (Angstroms)
 Number     Number       Type             X           Y           Z
 ---------------------------------------------------------------------
      1          8           0        0.000000   -0.000000    2.332629
      2          1           0        0.000000    0.799571    2.903761
      3          1           0       -0.000000   -0.799571    2.903761
      4          8           0        0.000000   -0.000000   -2.332629
      5          1           0       -0.000000   -0.799571   -2.903761
      6          1           0        0.000000    0.799571   -2.903761
 ---------------------------------------------------------------------

 SCF Done:  E(RHF) =  -152.105873505     A.U. after   10 cycles
 E2 =    -0.5260740265D+00 EUMP2 =    -0.15263194753121D+03
 CCSD(T)
 CCSD(T)= -0.15265919588D+03

 The electronic state is 1-AG.
 Alpha  occ. eigenvalues --  -20.54820 -20.54820  -1.32112  -1.32110  -0.69524
 Alpha  occ. eigenvalues --   -0.69521  -0.55519  -0.55445  -0.49216  -0.49208
 Alpha virt. eigenvalues --    0.14392   0.15054   0.20623   0.20824   0.54830
 Alpha virt. eigenvalues --    0.55277   0.57787   0.57889   0.66373   0.71153
 Alpha virt. eigenvalues --    0.79603   0.79721   0.81086   0.81163   0.82435

 Mulliken charges:
               1
     1  O   -0.499792
     2  H    0.249896
     3  H    0.249896
     4  O   -0.499792
     5  H    0.249896
     6  H    0.249896
 Sum of Mulliken charges =  -0.00000

 Dipole moment (field-independent basis, Debye):
    X=             -0.0000    Y=              0.0000    Z=             -0.0000  Tot=              0.0000
 Quadrupole moment (field-independent basis, Debye-Ang):
   XX=            -14.7096   YY=             -7.8198   ZZ=              6.5766
   XY=              0.0000   XZ=              0.0000   YZ=             -0.0000

 8\MP4DQ=-152.6410617\MP4SDQ=-152.6441316\CCSD=-152.6435394\CCSD(T)=-15
 Normal termination of Gaussian 16 at Fri Aug 26 16:59:40 2022.
