 Gaussian 16, Revision A.03,
 Gaussian 16:  ES64L-G16RevA.03 25-Dec-2016

 ------------------
 #p CCSD(T)/cc-pVTZ
 ------------------

 ------------
 H2O_H2O_2983
 ------------
 Symbolic Z-matrix:
 Charge =  0 Multiplicity = 1

                         Standard orientation:
 ---------------------------------------------------------------------
 Center     Atomic      Atomic             Coordinates (Angstroms)
 Number     Number       Type             X           Y           Z
 ---------------------------------------------------------------------
      1          8           0        0.028564   -2.377532    0.000000
      2          1           0       -0.771595   -2.947840    0.000000
      3          1           0        0.827546   -2.949488    0.000000
      4          8           0        0.028564    2.392777    0.000000
      5          1           0        0.436370    3.286757    0.000000
      6          1           0       -0.949352    2.488614    0.000000
 ---------------------------------------------------------------------

 SCF Done:  E(RHF) =  -152.106237035     A.U. after   10 cycles
 E2 =    -0.5260362402D+00 EUMP2 =    -0.15263227327510D+03
 CCSD(T)
 CCSD(T)= -0.15265951442D+03

 The electronic state is 1-A'.
 Alpha  occ. eigenvalues --  -20.54997 -20.54841  -1.32290  -1.32131  -0.69700
 Alpha  occ. eigenvalues --   -0.69536  -0.55682  -0.55519  -0.49393  -0.49236
 Alpha virt. eigenvalues --    0.14279   0.15016   0.20514   0.20847   0.54704
 Alpha virt. eigenvalues --    0.55145   0.57672   0.57858   0.66843   0.70597
 Alpha virt. eigenvalues --    0.79472   0.79648   0.80883   0.81171   0.82628

 Mulliken charges:
               1
     1  O   -0.501961
     2  H    0.249565
     3  H    0.252417
     4  O   -0.501665
     5  H    0.248897
     6  H    0.252747
 Sum of Mulliken charges =   0.00000

 Dipole moment (field-independent basis, Debye):
    X=             -0.9745    Y=             -0.2700    Z=              0.0000  Tot=              1.0112
 Quadrupole moment (field-independent basis, Debye-Ang):
   XX=             -8.3265   YY=              6.2279   ZZ=            -14.7102
   XY=             -1.5929   XZ=              0.0000   YZ=              0.0000

 Normal termination of Gaussian 16 at Fri Aug 26 18:07:34 2022.
