 Gaussian 16, Revision A.03,
 Gaussian 16:  ES64L-G16RevA.03 25-Dec-2016

 ------------------
 #p CCSD(T)/cc-pVTZ
 ------------------

 ------------
 H2O_H2O_3361
 ------------
 Symbolic Z-matrix:
 Charge =  0 Multiplicity = 1

                         Standard orientation:
 ---------------------------------------------------------------------
 Center     Atomic      Atomic             Coordinates (Angstroms)
 Number     Number       Type             X           Y           Z
 ---------------------------------------------------------------------
      1          8           0        0.037675   -2.569907    0.000000
      2          1           0       -0.762612   -3.140035    0.000000
      3          1           0        0.836529   -3.142041    0.000000
      4          8           0        0.037675    2.598158    0.000000
      5          1           0        0.263451    3.554470    0.000000
      6          1           0       -0.940171    2.501591    0.000000
 ---------------------------------------------------------------------

 SCF Done:  E(RHF) =  -152.106672359     A.U. after   10 cycles
 E2 =    -0.5259737784D+00 EUMP2 =    -0.15263264613710D+03
 CCSD(T)
 CCSD(T)= -0.15265987995D+03

 The electronic state is 1-A'.
 Alpha  occ. eigenvalues --  -20.55192 -20.54945  -1.32487  -1.32238  -0.69896
 Alpha  occ. eigenvalues --   -0.69639  -0.55900  -0.55651  -0.49594  -0.49346
 Alpha virt. eigenvalues --    0.14263   0.14811   0.20419   0.20766   0.54628
 Alpha virt. eigenvalues --    0.54960   0.57522   0.57776   0.67687   0.69322
 Alpha virt. eigenvalues --    0.79284   0.79528   0.80709   0.81008   0.82718

 Mulliken charges:
               1
     1  O   -0.504562
     2  H    0.250777
     3  H    0.253798
     4  O   -0.504235
     5  H    0.249886
     6  H    0.254336
 Sum of Mulliken charges =  -0.00000

 Dipole moment (field-independent basis, Debye):
    X=             -1.2890    Y=             -0.4977    Z=              0.0000  Tot=              1.3818
 Quadrupole moment (field-independent basis, Debye-Ang):
   XX=             -8.7000   YY=              6.9190   ZZ=            -14.7108
   XY=             -2.5080   XZ=              0.0000   YZ=              0.0000

 Normal termination of Gaussian 16 at Fri Aug 26 21:41:35 2022.
