 Gaussian 16, Revision A.03,
 Gaussian 16:  ES64L-G16RevA.03 25-Dec-2016

 ------------------
 #p CCSD(T)/cc-pVTZ
 ------------------

 ------------
 H2O_H2O_4311
 ------------
 Symbolic Z-matrix:
 Charge =  0 Multiplicity = 1

                         Standard orientation:
 ---------------------------------------------------------------------
 Center     Atomic      Atomic             Coordinates (Angstroms)
 Number     Number       Type             X           Y           Z
 ---------------------------------------------------------------------
      1          8           0        0.037672   -3.075143    0.000000
      2          1           0       -0.762498   -3.645436    0.000000
      3          1           0        0.836644   -3.647114    0.000000
      4          8           0        0.037672    3.103411    0.000000
      5          1           0        0.263252    4.059768    0.000000
      6          1           0       -0.940154    3.006642    0.000000
 ---------------------------------------------------------------------

 SCF Done:  E(RHF) =  -152.107002178     A.U. after   10 cycles
 E2 =    -0.5259170072D+00 EUMP2 =    -0.15263291918472D+03
 CCSD(T)
 CCSD(T)= -0.15266014781D+03

 The electronic state is 1-A'.
 Alpha  occ. eigenvalues --  -20.55325 -20.55154  -1.32622  -1.32450  -0.70029
 Alpha  occ. eigenvalues --   -0.69853  -0.56051  -0.55879  -0.49731  -0.49559
 Alpha virt. eigenvalues --    0.14310   0.14496   0.20370   0.20553   0.54537
 Alpha virt. eigenvalues --    0.54723   0.57420   0.57592   0.68151   0.68364
 Alpha virt. eigenvalues --    0.79149   0.79318   0.80588   0.80775   0.82516

 Mulliken charges:
               1
     1  O   -0.506485
     2  H    0.252334
     3  H    0.254152
     4  O   -0.506338
     5  H    0.251770
     6  H    0.254568
 Sum of Mulliken charges =   0.00000

 Dipole moment (field-independent basis, Debye):
    X=             -1.2940    Y=             -0.4939    Z=              0.0000  Tot=              1.3851
 Quadrupole moment (field-independent basis, Debye-Ang):
   XX=             -8.6963   YY=             10.4774   ZZ=            -14.7111
   XY=             -3.1545   XZ=              0.0000   YZ=              0.0000

 Normal termination of Gaussian 16 at Sat Aug 27 06:36:04 2022.
