 Gaussian 16, Revision A.03,
 Gaussian 16:  ES64L-G16RevA.03 25-Dec-2016

 ------------------
 #p CCSD(T)/cc-pVTZ
 ------------------

 ------------
 H2O_H2O_3592
 ------------
 Symbolic Z-matrix:
 Charge =  0 Multiplicity = 1

                         Standard orientation:
 ---------------------------------------------------------------------
 Center     Atomic      Atomic             Coordinates (Angstroms)
 Number     Number       Type             X           Y           Z
 ---------------------------------------------------------------------
      1          8           0        0.051275   -2.670407    0.000000
      2          1           0       -0.749227   -3.240233    0.000000
      3          1           0        0.849913   -3.242843    0.000000
      4          8           0        0.051275    2.733945    0.000000
      5          1           0       -0.105733    3.703921    0.000000
      6          1           0       -0.815356    2.270849    0.000000
 ---------------------------------------------------------------------

 SCF Done:  E(RHF) =  -152.107230939     A.U. after   10 cycles
 E2 =    -0.5259198435D+00 EUMP2 =    -0.15263315078249D+03
 CCSD(T)
 CCSD(T)= -0.15266037273D+03

 The electronic state is 1-A'.
 Alpha  occ. eigenvalues --  -20.55490 -20.54977  -1.32788  -1.32272  -0.70195
 Alpha  occ. eigenvalues --   -0.69668  -0.56227  -0.55709  -0.49898  -0.49384
 Alpha virt. eigenvalues --    0.14028   0.14790   0.20211   0.20826   0.54344
 Alpha virt. eigenvalues --    0.54901   0.57270   0.57769   0.67615   0.68921
 Alpha virt. eigenvalues --    0.78983   0.79486   0.80398   0.80849   0.82559

 Mulliken charges:
               1
     1  O   -0.507843
     2  H    0.252143
     3  H    0.255729
     4  O   -0.507418
     5  H    0.250576
     6  H    0.256813
 Sum of Mulliken charges =  -0.00000

 Dipole moment (field-independent basis, Debye):
    X=             -1.7571    Y=             -1.1183    Z=              0.0000  Tot=              2.0827
 Quadrupole moment (field-independent basis, Debye-Ang):
   XX=             -9.4576   YY=              5.1331   ZZ=            -14.7119
   XY=             -4.1880   XZ=              0.0000   YZ=              0.0000

 Normal termination of Gaussian 16 at Sat Aug 27 01:44:37 2022.
