 Gaussian 16, Revision A.03,
 Gaussian 16:  ES64L-G16RevA.03 25-Dec-2016

 ------------------
 #p CCSD(T)/cc-pVTZ
 ------------------

 ------------
 H2O_H2O_1461
 ------------
 Symbolic Z-matrix:
 Charge =  0 Multiplicity = 1

                         Standard orientation:
 ---------------------------------------------------------------------
 Center     Atomic      Atomic             Coordinates (Angstroms)
 Number     Number       Type             X           Y           Z
 ---------------------------------------------------------------------
      1          8           0        0.037687   -1.559449    0.000000
      2          1           0       -0.763059   -2.128933    0.000000
      3          1           0        0.836079   -2.132227    0.000000
      4          8           0        0.037687    1.587640    0.000000
      5          1           0        0.264233    2.543770    0.000000
      6          1           0       -0.940237    1.491861    0.000000
 ---------------------------------------------------------------------

 SCF Done:  E(RHF) =  -152.104056142     A.U. after   10 cycles
 E2 =    -0.5271014938D+00 EUMP2 =    -0.15263115763557D+03
 CCSD(T)
 CCSD(T)= -0.15265839270D+03

 The electronic state is 1-A'.
 Alpha  occ. eigenvalues --  -20.54596 -20.53917  -1.31895  -1.31172  -0.69322
 Alpha  occ. eigenvalues --   -0.68580  -0.55661  -0.53920  -0.49020  -0.48242
 Alpha virt. eigenvalues --    0.13987   0.16585   0.20344   0.22205   0.53213
 Alpha virt. eigenvalues --    0.56923   0.57957   0.58742   0.65145   0.76721
 Alpha virt. eigenvalues --    0.77848   0.78462   0.79282   0.82114   0.85563

 Mulliken charges:
               1
     1  O   -0.482191
     2  H    0.236611
     3  H    0.247135
     4  O   -0.481042
     5  H    0.232772
     6  H    0.246715
 Sum of Mulliken charges =  -0.00000

 Dipole moment (field-independent basis, Debye):
    X=             -1.2388    Y=             -0.5324    Z=              0.0000  Tot=              1.3484
 Quadrupole moment (field-independent basis, Debye-Ang):
   XX=             -8.7503   YY=             -0.4228   ZZ=            -14.7128
   XY=             -1.2343   XZ=              0.0000   YZ=              0.0000

 Normal termination of Gaussian 16 at Sat Aug 27 04:53:39 2022.
