 Gaussian 16, Revision A.03,
 Gaussian 16:  ES64L-G16RevA.03 25-Dec-2016

 ------------------
 #p CCSD(T)/cc-pVTZ
 ------------------

 -----------
 H2O_H2O_354
 -----------
 Symbolic Z-matrix:
 Charge =  0 Multiplicity = 1

                         Standard orientation:
 ---------------------------------------------------------------------
 Center     Atomic      Atomic             Coordinates (Angstroms)
 Number     Number       Type             X           Y           Z
 ---------------------------------------------------------------------
      1          8           0        0.014784   -0.987648    0.000000
      2          1           0       -0.785520   -1.557751    0.000000
      3          1           0        0.813620   -1.559807    0.000000
      4          8           0        0.014784    0.991502    0.000000
      5          1           0        0.640266    1.749314    0.000000
      6          1           0       -0.904918    1.337412    0.000000
 ---------------------------------------------------------------------

 SCF Done:  E(RHF) =  -152.046194254     A.U. after   11 cycles
 E2 =    -0.5358550691D+00 EUMP2 =    -0.15258204932279D+03
 CCSD(T)
 CCSD(T)= -0.15260879065D+03

 The electronic state is 1-A'.
 Alpha  occ. eigenvalues --  -20.51844 -20.51726  -1.32147  -1.28407  -0.68696
 Alpha  occ. eigenvalues --   -0.66508  -0.61198  -0.49327  -0.44832  -0.43203
 Alpha virt. eigenvalues --    0.14630   0.18445   0.20417   0.22926   0.50781
 Alpha virt. eigenvalues --    0.58986   0.59082   0.66063   0.69599   0.78042
 Alpha virt. eigenvalues --    0.79048   0.83002   0.84316   0.86596   0.87482

 Mulliken charges:
               1
     1  O   -0.428803
     2  H    0.209137
     3  H    0.218674
     4  O   -0.418104
     5  H    0.194165
     6  H    0.224930
 Sum of Mulliken charges =  -0.00000

 Dipole moment (field-independent basis, Debye):
    X=             -0.4303    Y=             -0.0830    Z=              0.0000  Tot=              0.4382
 Quadrupole moment (field-independent basis, Debye-Ang):
   XX=             -8.2885   YY=             -5.9109   ZZ=            -14.7495
   XY=             -0.1449   XZ=              0.0000   YZ=              0.0000

 Normal termination of Gaussian 16 at Fri Aug 26 15:35:37 2022.
