 Gaussian 16, Revision A.03,
 Gaussian 16:  ES64L-G16RevA.03 25-Dec-2016

 ------------------
 #p CCSD(T)/cc-pVTZ
 ------------------

 ------------
 H2O_H2O_4791
 ------------
 Symbolic Z-matrix:
 Charge =  0 Multiplicity = 1

                         Standard orientation:
 ---------------------------------------------------------------------
 Center     Atomic      Atomic             Coordinates (Angstroms)
 Number     Number       Type             X           Y           Z
 ---------------------------------------------------------------------
      1          8           0        0.049498   -3.312169    0.000000
      2          1           0       -0.750801   -3.882281    0.000000
      3          1           0        0.848340   -3.884319    0.000000
      4          8           0        0.049498    3.369156    0.000000
      5          1           0       -0.044085    4.347291    0.000000
      6          1           0       -0.845420    2.963413    0.000000
 ---------------------------------------------------------------------

 SCF Done:  E(RHF) =  -152.107295569     A.U. after   10 cycles
 E2 =    -0.5258857200D+00 EUMP2 =    -0.15263318128895D+03
 CCSD(T)
 CCSD(T)= -0.15266040400D+03

 The electronic state is 1-A'.
 Alpha  occ. eigenvalues --  -20.55509 -20.55215  -1.32808  -1.32513  -0.70214
 Alpha  occ. eigenvalues --   -0.69914  -0.56250  -0.55954  -0.49918  -0.49624
 Alpha virt. eigenvalues --    0.14157   0.14452   0.20227   0.20536   0.54349
 Alpha virt. eigenvalues --    0.54659   0.57258   0.57552   0.67947   0.68250
 Alpha virt. eigenvalues --    0.78961   0.79251   0.80395   0.80709   0.82319

 Mulliken charges:
               1
     1  O   -0.508216
     2  H    0.253170
     3  H    0.255046
     4  O   -0.508042
     5  H    0.252387
     6  H    0.255655
 Sum of Mulliken charges =  -0.00000

 Dipole moment (field-independent basis, Debye):
    X=             -1.7024    Y=             -0.9937    Z=              0.0000  Tot=              1.9712
 Quadrupole moment (field-independent basis, Debye-Ang):
   XX=             -9.3455   YY=              9.4883   ZZ=            -14.7117
   XY=             -5.0181   XZ=              0.0000   YZ=              0.0000

 Normal termination of Gaussian 16 at Sat Aug 27 09:21:24 2022.
