 Gaussian 16, Revision A.03,
 Gaussian 16:  ES64L-G16RevA.03 25-Dec-2016

 ------------------
 #p CCSD(T)/cc-pVTZ
 ------------------

 ------------
 H2O_H2O_2149
 ------------
 Symbolic Z-matrix:
 Charge =  0 Multiplicity = 1

                         Standard orientation:
 ---------------------------------------------------------------------
 Center     Atomic      Atomic             Coordinates (Angstroms)
 Number     Number       Type             X           Y           Z
 ---------------------------------------------------------------------
      1          8           0        0.057259   -1.871873    0.000000
      2          1           0       -0.743766   -2.440965    0.000000
      3          1           0        0.855371   -2.445042    0.000000
      4          8           0        0.057259    1.985808    0.000000
      5          1           0       -0.511833    2.786833    0.000000
      6          1           0       -0.515910    1.187696    0.000000
 ---------------------------------------------------------------------

 SCF Done:  E(RHF) =  -152.109249573     A.U. after   10 cycles
 E2 =    -0.5262409114D+00 EUMP2 =    -0.15263549048397D+03
 CCSD(T)
 CCSD(T)= -0.15266262867D+03

 The electronic state is 1-A'.
 Alpha  occ. eigenvalues --  -20.56272 -20.54157  -1.33538  -1.31465  -0.70942
 Alpha  occ. eigenvalues --   -0.68833  -0.57037  -0.54943  -0.50663  -0.48597
 Alpha virt. eigenvalues --    0.12870   0.16273   0.19716   0.23602   0.53493
 Alpha virt. eigenvalues --    0.55480   0.56635   0.58497   0.66898   0.73347
 Alpha virt. eigenvalues --    0.77986   0.79330   0.79994   0.80353   0.83310

 Mulliken charges:
               1
     1  O   -0.504613
     2  H    0.250697
     3  H    0.259005
     4  O   -0.515657
     5  H    0.246139
     6  H    0.264429
 Sum of Mulliken charges =  -0.00000

 Dipole moment (field-independent basis, Debye):
    X=             -1.9312    Y=             -2.1138    Z=              0.0000  Tot=              2.8632
 Quadrupole moment (field-independent basis, Debye-Ang):
   XX=             -9.8603   YY=             -2.3981   ZZ=            -14.7192
   XY=             -4.0880   XZ=              0.0000   YZ=              0.0000

 Normal termination of Gaussian 16 at Sat Aug 27 08:51:50 2022.
