 Gaussian 16, Revision A.03,
 Gaussian 16:  ES64L-G16RevA.03 25-Dec-2016

 ------------------
 #p CCSD(T)/cc-pVTZ
 ------------------

 ------------
 H2O_H2O_1130
 ------------
 Symbolic Z-matrix:
 Charge =  0 Multiplicity = 1

                         Standard orientation:
 ---------------------------------------------------------------------
 Center     Atomic      Atomic             Coordinates (Angstroms)
 Number     Number       Type             X           Y           Z
 ---------------------------------------------------------------------
      1          8           0        0.018362   -1.398645    0.000000
      2          1           0       -0.781853   -1.968875    0.000000
      3          1           0        0.817288   -1.970678    0.000000
      4          8           0        0.018362    1.404665    0.000000
      5          1           0        0.592815    2.201854    0.000000
      6          1           0       -0.922040    1.689534    0.000000
 ---------------------------------------------------------------------

 SCF Done:  E(RHF) =  -152.099498510     A.U. after   11 cycles
 E2 =    -0.5279029947D+00 EUMP2 =    -0.15262740150509D+03
 CCSD(T)
 CCSD(T)= -0.15265470449D+03

 The electronic state is 1-A'.
 Alpha  occ. eigenvalues --  -20.53723 -20.53564  -1.31207  -1.30771  -0.68596
 Alpha  occ. eigenvalues --   -0.68255  -0.55988  -0.52186  -0.48438  -0.47675
 Alpha virt. eigenvalues --    0.14369   0.16987   0.20531   0.22130   0.51492
 Alpha virt. eigenvalues --    0.58477   0.58740   0.60749   0.69449   0.76480
 Alpha virt. eigenvalues --    0.77124   0.78447   0.79688   0.83264   0.86171

 Mulliken charges:
               1
     1  O   -0.469698
     2  H    0.231169
     3  H    0.238326
     4  O   -0.465631
     5  H    0.229361
     6  H    0.236473
 Sum of Mulliken charges =  -0.00000

 Dipole moment (field-independent basis, Debye):
    X=             -0.5922    Y=             -0.1146    Z=              0.0000  Tot=              0.6032
 Quadrupole moment (field-independent basis, Debye-Ang):
   XX=             -8.1296   YY=             -1.4293   ZZ=            -14.7143
   XY=             -0.3755   XZ=              0.0000   YZ=              0.0000

 Normal termination of Gaussian 16 at Sat Aug 27 02:21:42 2022.
