 Gaussian 16, Revision A.03,
 Gaussian 16:  ES64L-G16RevA.03 25-Dec-2016

 ------------------
 #p CCSD(T)/cc-pVTZ
 ------------------

 ------------
 H2O_H2O_1464
 ------------
 Symbolic Z-matrix:
 Charge =  0 Multiplicity = 1

                         Standard orientation:
 ---------------------------------------------------------------------
 Center     Atomic      Atomic             Coordinates (Angstroms)
 Number     Number       Type             X           Y           Z
 ---------------------------------------------------------------------
      1          8           0        0.045366   -1.550610    0.000000
      2          1           0       -0.755619   -2.119758    0.000000
      3          1           0        0.843518   -2.123724    0.000000
      4          8           0        0.045366    1.595075    0.000000
      5          1           0        0.081440    2.577015    0.000000
      6          1           0       -0.895200    1.310748    0.000000
 ---------------------------------------------------------------------

 SCF Done:  E(RHF) =  -152.105077471     A.U. after   10 cycles
 E2 =    -0.5270885109D+00 EUMP2 =    -0.15263216598182D+03
 CCSD(T)
 CCSD(T)= -0.15265937248D+03

 The electronic state is 1-A'.
 Alpha  occ. eigenvalues --  -20.54967 -20.53850  -1.32262  -1.31104  -0.69687
 Alpha  occ. eigenvalues --   -0.68503  -0.55835  -0.54137  -0.49380  -0.48197
 Alpha virt. eigenvalues --    0.13791   0.16661   0.20184   0.22612   0.53868
 Alpha virt. eigenvalues --    0.56076   0.57679   0.58539   0.65592   0.76340
 Alpha virt. eigenvalues --    0.77586   0.77754   0.79321   0.82005   0.85271

 Mulliken charges:
               1
     1  O   -0.484580
     2  H    0.237757
     3  H    0.249941
     4  O   -0.486615
     5  H    0.232846
     6  H    0.250652
 Sum of Mulliken charges =  -0.00000

 Dipole moment (field-independent basis, Debye):
    X=             -1.4899    Y=             -0.8438    Z=              0.0000  Tot=              1.7122
 Quadrupole moment (field-independent basis, Debye-Ang):
   XX=             -9.1367   YY=             -0.9117   ZZ=            -14.7153
   XY=             -1.7151   XZ=              0.0000   YZ=              0.0000

 Normal termination of Gaussian 16 at Sat Aug 27 04:54:39 2022.
