 Gaussian 16, Revision A.03,
 Gaussian 16:  ES64L-G16RevA.03 25-Dec-2016

 ------------------
 #p CCSD(T)/cc-pVTZ
 ------------------

 -----------
 H2O_H2O_681
 -----------
 Symbolic Z-matrix:
 Charge =  0 Multiplicity = 1

                         Standard orientation:
 ---------------------------------------------------------------------
 Center     Atomic      Atomic             Coordinates (Angstroms)
 Number     Number       Type             X           Y           Z
 ---------------------------------------------------------------------
      1          8           0        0.021863   -1.157903    0.000000
      2          1           0       -0.778631   -1.727740    0.000000
      3          1           0        0.820509   -1.730329    0.000000
      4          8           0        0.021863    1.166528    0.000000
      5          1           0        0.543357    1.999324    0.000000
      6          1           0       -0.935047    1.389752    0.000000
 ---------------------------------------------------------------------

 SCF Done:  E(RHF) =  -152.085482617     A.U. after   11 cycles
 E2 =    -0.5305125133D+00 EUMP2 =    -0.15261599513032D+03
 CCSD(T)
 CCSD(T)= -0.15264321250D+03

 The electronic state is 1-A'.
 Alpha  occ. eigenvalues --  -20.52964 -20.52696  -1.31254  -1.29738  -0.68439
 Alpha  occ. eigenvalues --   -0.67438  -0.57836  -0.48738  -0.48560  -0.46421
 Alpha virt. eigenvalues --    0.14477   0.17691   0.20507   0.22682   0.51213
 Alpha virt. eigenvalues --    0.58764   0.58851   0.63571   0.71219   0.76628
 Alpha virt. eigenvalues --    0.77288   0.80831   0.84061   0.86441   0.87018

 Mulliken charges:
               1
     1  O   -0.457575
     2  H    0.222424
     3  H    0.233521
     4  O   -0.444834
     5  H    0.212345
     6  H    0.234119
 Sum of Mulliken charges =  -0.00000

 Dipole moment (field-independent basis, Debye):
    X=             -0.6697    Y=             -0.1700    Z=              0.0000  Tot=              0.6910
 Quadrupole moment (field-independent basis, Debye-Ang):
   XX=             -8.3075   YY=             -3.8136   ZZ=            -14.7323
   XY=             -0.3101   XZ=              0.0000   YZ=              0.0000

 2241\MP4DQ=-152.6242989\MP4SDQ=-152.6276069\CCSD=-152.6269276\CCSD(T)=
 Normal termination of Gaussian 16 at Fri Aug 26 18:59:45 2022.
