 Gaussian 16, Revision A.03,
 Gaussian 16:  ES64L-G16RevA.03 25-Dec-2016

 ------------------
 #p CCSD(T)/cc-pVTZ
 ------------------

 ------------
 H2O_H2O_2522
 ------------
 Symbolic Z-matrix:
 Charge =  0 Multiplicity = 1

                         Standard orientation:
 ---------------------------------------------------------------------
 Center     Atomic      Atomic             Coordinates (Angstroms)
 Number     Number       Type             X           Y           Z
 ---------------------------------------------------------------------
      1          8           0        0.056738   -2.079392    0.000000
      2          1           0       -0.744138   -2.648692    0.000000
      3          1           0        0.854999   -2.652353    0.000000
      4          8           0        0.056738    2.178449    0.000000
      5          1           0       -0.403156    3.046783    0.000000
      6          1           0       -0.615515    1.461804    0.000000
 ---------------------------------------------------------------------

 SCF Done:  E(RHF) =  -152.108233489     A.U. after   10 cycles
 E2 =    -0.5260646841D+00 EUMP2 =    -0.15263429817322D+03
 CCSD(T)
 CCSD(T)= -0.15266147480D+03

 The electronic state is 1-A'.
 Alpha  occ. eigenvalues --  -20.55915 -20.54487  -1.33196  -1.31785  -0.70603
 Alpha  occ. eigenvalues --   -0.69159  -0.56662  -0.55244  -0.50314  -0.48908
 Alpha virt. eigenvalues --    0.13094   0.15774   0.19896   0.22192   0.54006
 Alpha virt. eigenvalues --    0.54727   0.56971   0.58372   0.66365   0.72507
 Alpha virt. eigenvalues --    0.78554   0.79420   0.79963   0.81133   0.82384

 Mulliken charges:
               1
     1  O   -0.507660
     2  H    0.251319
     3  H    0.258342
     4  O   -0.511474
     5  H    0.247732
     6  H    0.261741
 Sum of Mulliken charges =  -0.00000

 Dipole moment (field-independent basis, Debye):
    X=             -1.9260    Y=             -1.7977    Z=              0.0000  Tot=              2.6346
 Quadrupole moment (field-independent basis, Debye-Ang):
   XX=             -9.8256   YY=             -0.5039   ZZ=            -14.7158
   XY=             -4.1677   XZ=              0.0000   YZ=              0.0000

 Normal termination of Gaussian 16 at Fri Aug 26 13:18:57 2022.
