 Gaussian 16, Revision A.03,
 Gaussian 16:  ES64L-G16RevA.03 25-Dec-2016

 ------------------
 #p CCSD(T)/cc-pVTZ
 ------------------

 ------------
 H2O_H2O_4917
 ------------
 Symbolic Z-matrix:
 Charge =  0 Multiplicity = 1

                         Standard orientation:
 ---------------------------------------------------------------------
 Center     Atomic      Atomic             Coordinates (Angstroms)
 Number     Number       Type             X           Y           Z
 ---------------------------------------------------------------------
      1          8           0        0.051264   -3.375072    0.000000
      2          1           0       -0.749045   -3.945168    0.000000
      3          1           0        0.850096   -3.947238    0.000000
      4          8           0        0.051264    3.438644    0.000000
      5          1           0       -0.106071    4.408568    0.000000
      6          1           0       -0.815210    2.975257    0.000000
 ---------------------------------------------------------------------

 SCF Done:  E(RHF) =  -152.107347796     A.U. after   10 cycles
 E2 =    -0.5258798943D+00 EUMP2 =    -0.15263322769014D+03
 CCSD(T)
 CCSD(T)= -0.15266044937D+03

 The electronic state is 1-A'.
 Alpha  occ. eigenvalues --  -20.55545 -20.55230  -1.32843  -1.32528  -0.70249
 Alpha  occ. eigenvalues --   -0.69930  -0.56287  -0.55971  -0.49954  -0.49640
 Alpha virt. eigenvalues --    0.14127   0.14441   0.20199   0.20530   0.54313
 Alpha virt. eigenvalues --    0.54643   0.57226   0.57541   0.67906   0.68229
 Alpha virt. eigenvalues --    0.78925   0.79236   0.80358   0.80693   0.82282

 Mulliken charges:
               1
     1  O   -0.508524
     2  H    0.253351
     3  H    0.255173
     4  O   -0.508349
     5  H    0.252541
     6  H    0.255808
 Sum of Mulliken charges =   0.00000

 Dipole moment (field-independent basis, Debye):
    X=             -1.7636    Y=             -1.1080    Z=              0.0000  Tot=              2.0828
 Quadrupole moment (field-independent basis, Debye-Ang):
   XX=             -9.4579   YY=              9.2018   ZZ=            -14.7118
   XY=             -5.4198   XZ=              0.0000   YZ=              0.0000

 Normal termination of Gaussian 16 at Sat Aug 27 10:06:55 2022.
