 Gaussian 16, Revision A.03,
 Gaussian 16:  ES64L-G16RevA.03 25-Dec-2016

 ------------------
 #p CCSD(T)/cc-pVTZ
 ------------------

 ------------
 H2O_H2O_1043
 ------------
 Symbolic Z-matrix:
 Charge =  0 Multiplicity = 1

                         Standard orientation:
 ---------------------------------------------------------------------
 Center     Atomic      Atomic             Coordinates (Angstroms)
 Number     Number       Type             X           Y           Z
 ---------------------------------------------------------------------
      1          8           0        0.052884   -1.310625    0.000000
      2          1           0       -0.748610   -1.879055    0.000000
      3          1           0        0.850523   -1.884453    0.000000
      4          8           0        0.052884    1.380782    0.000000
      5          1           0       -0.165557    2.338796    0.000000
      6          1           0       -0.782507    0.863454    0.000000
 ---------------------------------------------------------------------

 SCF Done:  E(RHF) =  -152.103493970     A.U. after   10 cycles
 E2 =    -0.5284456041D+00 EUMP2 =    -0.15263193957402D+03
 CCSD(T)
 CCSD(T)= -0.15265907751D+03

 The electronic state is 1-A'.
 Alpha  occ. eigenvalues --  -20.55497 -20.53038  -1.32969  -1.30308  -0.70379
 Alpha  occ. eigenvalues --   -0.68014  -0.56223  -0.53408  -0.50083  -0.47377
 Alpha virt. eigenvalues --    0.13525   0.17432   0.19875   0.24100   0.52901
 Alpha virt. eigenvalues --    0.57164   0.58277   0.58924   0.70470   0.75124
 Alpha virt. eigenvalues --    0.76006   0.79504   0.82046   0.82721   0.84733

 Mulliken charges:
               1
     1  O   -0.477364
     2  H    0.234795
     3  H    0.252582
     4  O   -0.487383
     5  H    0.223233
     6  H    0.254137
 Sum of Mulliken charges =  -0.00000

 Dipole moment (field-independent basis, Debye):
    X=             -1.6845    Y=             -1.3908    Z=              0.0000  Tot=              2.1844
 Quadrupole moment (field-independent basis, Debye-Ang):
   XX=             -9.5992   YY=             -3.3264   ZZ=            -14.7242
   XY=             -2.0383   XZ=              0.0000   YZ=              0.0000

 Normal termination of Gaussian 16 at Sat Aug 27 01:37:43 2022.
