 Gaussian 16, Revision A.03,
 Gaussian 16:  ES64L-G16RevA.03 25-Dec-2016

 ------------------
 #p CCSD(T)/cc-pVTZ
 ------------------

 ------------
 H2O_H2O_3745
 ------------
 Symbolic Z-matrix:
 Charge =  0 Multiplicity = 1

                         Standard orientation:
 ---------------------------------------------------------------------
 Center     Atomic      Atomic             Coordinates (Angstroms)
 Number     Number       Type             X           Y           Z
 ---------------------------------------------------------------------
      1          8           0        0.055239   -2.738813    0.000000
      2          1           0       -0.745306   -3.308578    0.000000
      3          1           0        0.853834   -3.311309    0.000000
      4          8           0        0.055239    2.823287    0.000000
      5          1           0       -0.287916    3.744020    0.000000
      6          1           0       -0.704441    2.200076    0.000000
 ---------------------------------------------------------------------

 SCF Done:  E(RHF) =  -152.107504628     A.U. after   10 cycles
 E2 =    -0.5258916842D+00 EUMP2 =    -0.15263339631181D+03
 CCSD(T)
 CCSD(T)= -0.15266061263D+03

 The electronic state is 1-A'.
 Alpha  occ. eigenvalues --  -20.55642 -20.54997  -1.32940  -1.32295  -0.70347
 Alpha  occ. eigenvalues --   -0.69690  -0.56392  -0.55742  -0.50053  -0.49410
 Alpha virt. eigenvalues --    0.13913   0.14772   0.20106   0.20848   0.54199
 Alpha virt. eigenvalues --    0.54869   0.57140   0.57763   0.67512   0.68760
 Alpha virt. eigenvalues --    0.78829   0.79458   0.80243   0.80746   0.82495

 Mulliken charges:
               1
     1  O   -0.509450
     2  H    0.253004
     3  H    0.256479
     4  O   -0.508977
     5  H    0.251127
     6  H    0.257817
 Sum of Mulliken charges =  -0.00000

 Dipole moment (field-independent basis, Debye):
    X=             -1.8945    Y=             -1.4853    Z=              0.0000  Tot=              2.4073
 Quadrupole moment (field-independent basis, Debye-Ang):
   XX=             -9.7233   YY=              3.7899   ZZ=            -14.7125
   XY=             -5.0235   XZ=              0.0000   YZ=              0.0000

 Normal termination of Gaussian 16 at Sat Aug 27 02:56:48 2022.
