 Gaussian 16, Revision A.03,
 Gaussian 16:  ES64L-G16RevA.03 25-Dec-2016

 ------------------
 #p CCSD(T)/cc-pVTZ
 ------------------

 ------------
 H2O_H2O_3279
 ------------
 Symbolic Z-matrix:
 Charge =  0 Multiplicity = 1

                         Standard orientation:
 ---------------------------------------------------------------------
 Center     Atomic      Atomic             Coordinates (Angstroms)
 Number     Number       Type             X           Y           Z
 ---------------------------------------------------------------------
      1          8           0        0.014783   -2.543257    0.000000
      2          1           0       -0.785073   -3.113989    0.000000
      3          1           0        0.814068   -3.114789    0.000000
      4          8           0        0.014783    2.547135    0.000000
      5          1           0        0.639669    3.305437    0.000000
      6          1           0       -0.905192    2.892322    0.000000
 ---------------------------------------------------------------------

 SCF Done:  E(RHF) =  -152.106275180     A.U. after   10 cycles
 E2 =    -0.5260080912D+00 EUMP2 =    -0.15263228327114D+03
 CCSD(T)
 CCSD(T)= -0.15265952567D+03

 The electronic state is 1-A'.
 Alpha  occ. eigenvalues --  -20.54977 -20.54942  -1.32270  -1.32235  -0.69680
 Alpha  occ. eigenvalues --   -0.69644  -0.55666  -0.55625  -0.49373  -0.49339
 Alpha virt. eigenvalues --    0.14437   0.14804   0.20573   0.20707   0.54822
 Alpha virt. eigenvalues --    0.55000   0.57697   0.57766   0.67698   0.69569
 Alpha virt. eigenvalues --    0.79497   0.79542   0.80928   0.81025   0.82743

 Mulliken charges:
               1
     1  O   -0.502206
     2  H    0.250489
     3  H    0.251719
     4  O   -0.502139
     5  H    0.250258
     6  H    0.251880
 Sum of Mulliken charges =  -0.00000

 Dipole moment (field-independent basis, Debye):
    X=             -0.5054    Y=             -0.0683    Z=              0.0000  Tot=              0.5100
 Quadrupole moment (field-independent basis, Debye-Ang):
   XX=             -7.9499   YY=              8.0884   ZZ=            -14.7100
   XY=             -0.8513   XZ=              0.0000   YZ=              0.0000

 Normal termination of Gaussian 16 at Fri Aug 26 20:59:07 2022.
