 Gaussian 16, Revision A.03,
 Gaussian 16:  ES64L-G16RevA.03 25-Dec-2016

 ------------------
 #p CCSD(T)/cc-pVTZ
 ------------------

 ------------
 H2O_H2O_2609
 ------------
 Symbolic Z-matrix:
 Charge =  0 Multiplicity = 1

                         Standard orientation:
 ---------------------------------------------------------------------
 Center     Atomic      Atomic             Coordinates (Angstroms)
 Number     Number       Type             X           Y           Z
 ---------------------------------------------------------------------
      1          8           0        0.031742   -2.175961    0.000000
      2          1           0       -0.768542   -2.746093    0.000000
      3          1           0        0.830599   -2.748092    0.000000
      4          8           0        0.031742    2.195132    0.000000
      5          1           0        0.380406    3.113794    0.000000
      6          1           0       -0.950342    2.227020    0.000000
 ---------------------------------------------------------------------

 SCF Done:  E(RHF) =  -152.106015875     A.U. after   10 cycles
 E2 =    -0.5261168878D+00 EUMP2 =    -0.15263213276276D+03
 CCSD(T)
 CCSD(T)= -0.15265937235D+03

 The electronic state is 1-A'.
 Alpha  occ. eigenvalues --  -20.54934 -20.54695  -1.32223  -1.31981  -0.69636
 Alpha  occ. eigenvalues --   -0.69385  -0.55612  -0.55341  -0.49325  -0.49085
 Alpha virt. eigenvalues --    0.14096   0.15338   0.20482   0.21048   0.54423
 Alpha virt. eigenvalues --    0.55368   0.57716   0.57984   0.65224   0.72648
 Alpha virt. eigenvalues --    0.79482   0.79851   0.80861   0.81253   0.82467

 Mulliken charges:
               1
     1  O   -0.500261
     2  H    0.248178
     3  H    0.252189
     4  O   -0.499865
     5  H    0.247213
     6  H    0.252547
 Sum of Mulliken charges =  -0.00000

 Dipole moment (field-independent basis, Debye):
    X=             -1.0786    Y=             -0.3428    Z=              0.0000  Tot=              1.1318
 Quadrupole moment (field-independent basis, Debye-Ang):
   XX=             -8.4512   YY=              4.5289   ZZ=            -14.7103
   XY=             -1.5963   XZ=              0.0000   YZ=              0.0000

 Normal termination of Gaussian 16 at Fri Aug 26 14:18:35 2022.
