 Gaussian 16, Revision A.03,
 Gaussian 16:  ES64L-G16RevA.03 25-Dec-2016

 ------------------
 #p CCSD(T)/cc-pVTZ
 ------------------

 ------------
 H2O_H2O_2826
 ------------
 Symbolic Z-matrix:
 Charge =  0 Multiplicity = 1

                         Standard orientation:
 ---------------------------------------------------------------------
 Center     Atomic      Atomic             Coordinates (Angstroms)
 Number     Number       Type             X           Y           Z
 ---------------------------------------------------------------------
      1          8           0        0.003735   -2.305905    0.000000
      2          1           0       -0.795915   -2.876925    0.000000
      3          1           0        0.803227   -2.877148    0.000000
      4          8           0        0.003735    2.306148    0.000000
      5          1           0        0.764328    2.928245    0.000000
      6          1           0       -0.831405    2.823879    0.000000
 ---------------------------------------------------------------------

 SCF Done:  E(RHF) =  -152.105828149     A.U. after   10 cycles
 E2 =    -0.5260841937D+00 EUMP2 =    -0.15263191234262D+03
 CCSD(T)
 CCSD(T)= -0.15265916106D+03

 The electronic state is 1-A'.
 Alpha  occ. eigenvalues --  -20.54805 -20.54802  -1.32096  -1.32093  -0.69508
 Alpha  occ. eigenvalues --   -0.69504  -0.55504  -0.55419  -0.49199  -0.49190
 Alpha virt. eigenvalues --    0.14377   0.15092   0.20624   0.20843   0.54817
 Alpha virt. eigenvalues --    0.55322   0.57795   0.57906   0.66125   0.71412
 Alpha virt. eigenvalues --    0.79609   0.79748   0.81111   0.81173   0.82372

 Mulliken charges:
               1
     1  O   -0.499504
     2  H    0.249549
     3  H    0.249956
     4  O   -0.499497
     5  H    0.249496
     6  H    0.250001
 Sum of Mulliken charges =  -0.00000

 Dipole moment (field-independent basis, Debye):
    X=             -0.1272    Y=             -0.0043    Z=              0.0000  Tot=              0.1273
 Quadrupole moment (field-independent basis, Debye-Ang):
   XX=             -7.8295   YY=              6.3490   ZZ=            -14.7096
   XY=             -0.1808   XZ=              0.0000   YZ=              0.0000

 Normal termination of Gaussian 16 at Fri Aug 26 16:32:10 2022.
