 Gaussian 16, Revision A.03,
 Gaussian 16:  ES64L-G16RevA.03 25-Dec-2016

 ------------------
 #p CCSD(T)/cc-pVTZ
 ------------------

 ------------
 H2O_H2O_1114
 ------------
 Symbolic Z-matrix:
 Charge =  0 Multiplicity = 1

                         Standard orientation:
 ---------------------------------------------------------------------
 Center     Atomic      Atomic             Coordinates (Angstroms)
 Number     Number       Type             X           Y           Z
 ---------------------------------------------------------------------
      1          8           0        0.045374   -1.364484    0.000000
      2          1           0       -0.755801   -1.933364    0.000000
      3          1           0        0.843335   -1.937862    0.000000
      4          8           0        0.045374    1.408918    0.000000
      5          1           0        0.081775    2.390845    0.000000
      6          1           0       -0.895287    1.124903    0.000000
 ---------------------------------------------------------------------

 SCF Done:  E(RHF) =  -152.102453160     A.U. after   11 cycles
 E2 =    -0.5280107602D+00 EUMP2 =    -0.15263046391998D+03
 CCSD(T)
 CCSD(T)= -0.15265767777D+03

 The electronic state is 1-A'.
 Alpha  occ. eigenvalues --  -20.54752 -20.53403  -1.32157  -1.30644  -0.69576
 Alpha  occ. eigenvalues --   -0.68140  -0.56070  -0.53126  -0.49303  -0.47680
 Alpha virt. eigenvalues --    0.13882   0.17092   0.20155   0.23084   0.53633
 Alpha virt. eigenvalues --    0.57751   0.58116   0.58566   0.69158   0.76229
 Alpha virt. eigenvalues --    0.76279   0.76930   0.81684   0.82898   0.85364

 Mulliken charges:
               1
     1  O   -0.476958
     2  H    0.232703
     3  H    0.248252
     4  O   -0.474423
     5  H    0.223347
     6  H    0.247079
 Sum of Mulliken charges =  -0.00000

 Dipole moment (field-independent basis, Debye):
    X=             -1.4548    Y=             -0.8606    Z=              0.0000  Tot=              1.6903
 Quadrupole moment (field-independent basis, Debye-Ang):
   XX=             -9.1649   YY=             -2.2944   ZZ=            -14.7198
   XY=             -1.4416   XZ=              0.0000   YZ=              0.0000

 Normal termination of Gaussian 16 at Sat Aug 27 02:14:33 2022.
