 Gaussian 16, Revision A.03,
 Gaussian 16:  ES64L-G16RevA.03 25-Dec-2016

 ------------------
 #p CCSD(T)/cc-pVTZ
 ------------------

 -----------
 H2O_H2O_706
 -----------
 Symbolic Z-matrix:
 Charge =  0 Multiplicity = 1

                         Standard orientation:
 ---------------------------------------------------------------------
 Center     Atomic      Atomic             Coordinates (Angstroms)
 Number     Number       Type             X           Y           Z
 ---------------------------------------------------------------------
      1          8           0        0.021863   -1.171199    0.000000
      2          1           0       -0.778621   -1.741051    0.000000
      3          1           0        0.820519   -1.743610    0.000000
      4          8           0        0.021863    1.179824    0.000000
      5          1           0        0.543342    2.012630    0.000000
      6          1           0       -0.935051    1.403031    0.000000
 ---------------------------------------------------------------------

 SCF Done:  E(RHF) =  -152.086958209     A.U. after   11 cycles
 E2 =    -0.5302764689D+00 EUMP2 =    -0.15261723467780D+03
 CCSD(T)
 CCSD(T)= -0.15264446602D+03

 The electronic state is 1-A'.
 Alpha  occ. eigenvalues --  -20.53023 -20.52757  -1.31229  -1.29815  -0.68437
 Alpha  occ. eigenvalues --   -0.67494  -0.57675  -0.49016  -0.48535  -0.46514
 Alpha virt. eigenvalues --    0.14467   0.17648   0.20510   0.22654   0.51217
 Alpha virt. eigenvalues --    0.58751   0.58851   0.63406   0.71318   0.76593
 Alpha virt. eigenvalues --    0.77201   0.80645   0.84040   0.86426   0.86974

 Mulliken charges:
               1
     1  O   -0.458656
     2  H    0.223084
     3  H    0.234000
     4  O   -0.446432
     5  H    0.213746
     6  H    0.234258
 Sum of Mulliken charges =   0.00000

 Dipole moment (field-independent basis, Debye):
    X=             -0.6721    Y=             -0.1695    Z=              0.0000  Tot=              0.6932
 Quadrupole moment (field-independent basis, Debye-Ang):
   XX=             -8.3007   YY=             -3.6715   ZZ=            -14.7311
   XY=             -0.3178   XZ=              0.0000   YZ=              0.0000

 Normal termination of Gaussian 16 at Fri Aug 26 19:17:02 2022.
