 Gaussian 16, Revision A.03,
 Gaussian 16:  ES64L-G16RevA.03 25-Dec-2016

 ------------------
 #p CCSD(T)/cc-pVTZ
 ------------------

 ------------
 H2O_H2O_4744
 ------------
 Symbolic Z-matrix:
 Charge =  0 Multiplicity = 1

                         Standard orientation:
 ---------------------------------------------------------------------
 Center     Atomic      Atomic             Coordinates (Angstroms)
 Number     Number       Type             X           Y           Z
 ---------------------------------------------------------------------
      1          8           0        0.054137   -3.274514    0.000000
      2          1           0       -0.746236   -3.844522    0.000000
      3          1           0        0.852904   -3.846769    0.000000
      4          8           0        0.054137    3.351871    0.000000
      5          1           0       -0.228350    4.292992    0.000000
      6          1           0       -0.744504    2.779439    0.000000
 ---------------------------------------------------------------------

 SCF Done:  E(RHF) =  -152.107431292     A.U. after   10 cycles
 E2 =    -0.5258742998D+00 EUMP2 =    -0.15263330559188D+03
 CCSD(T)
 CCSD(T)= -0.15266052538D+03

 The electronic state is 1-A'.
 Alpha  occ. eigenvalues --  -20.55604 -20.55199  -1.32903  -1.32497  -0.70309
 Alpha  occ. eigenvalues --   -0.69898  -0.56351  -0.55943  -0.50015  -0.49610
 Alpha virt. eigenvalues --    0.14072   0.14481   0.20150   0.20579   0.54252
 Alpha virt. eigenvalues --    0.54675   0.57173   0.57578   0.67832   0.68256
 Alpha virt. eigenvalues --    0.78865   0.79264   0.80295   0.80726   0.82221

 Mulliken charges:
               1
     1  O   -0.509023
     2  H    0.253484
     3  H    0.255540
     4  O   -0.508795
     5  H    0.252452
     6  H    0.256343
 Sum of Mulliken charges =  -0.00000

 Dipole moment (field-independent basis, Debye):
    X=             -1.8619    Y=             -1.3495    Z=              0.0000  Tot=              2.2996
 Quadrupole moment (field-independent basis, Debye-Ang):
   XX=             -9.6489   YY=              7.2335   ZZ=            -14.7120
   XY=             -5.7853   XZ=              0.0000   YZ=              0.0000

 Normal termination of Gaussian 16 at Sat Aug 27 09:06:09 2022.
