 Gaussian 16, Revision A.03,
 Gaussian 16:  ES64L-G16RevA.03 25-Dec-2016

 ------------------
 #p CCSD(T)/cc-pVTZ
 ------------------

 ------------
 H2O_H2O_1890
 ------------
 Symbolic Z-matrix:
 Charge =  0 Multiplicity = 1

                         Standard orientation:
 ---------------------------------------------------------------------
 Center     Atomic      Atomic             Coordinates (Angstroms)
 Number     Number       Type             X           Y           Z
 ---------------------------------------------------------------------
      1          8           0        0.047545   -1.773337    0.000000
      2          1           0       -0.753322   -2.342650    0.000000
      3          1           0        0.845816   -2.346285    0.000000
      4          8           0        0.047545    1.823886    0.000000
      5          1           0        0.019117    2.806077    0.000000
      6          1           0       -0.872339    1.478461    0.000000
 ---------------------------------------------------------------------

 SCF Done:  E(RHF) =  -152.106389740     A.U. after   10 cycles
 E2 =    -0.5264998990D+00 EUMP2 =    -0.15263288963848D+03
 CCSD(T)
 CCSD(T)= -0.15266008715D+03

 The electronic state is 1-A'.
 Alpha  occ. eigenvalues --  -20.55215 -20.54212  -1.32491  -1.31481  -0.69909
 Alpha  occ. eigenvalues --   -0.68862  -0.55902  -0.54810  -0.49600  -0.48594
 Alpha virt. eigenvalues --    0.13592   0.16215   0.20175   0.22190   0.53583
 Alpha virt. eigenvalues --    0.54862   0.57518   0.58544   0.64221   0.76434
 Alpha virt. eigenvalues --    0.78614   0.78629   0.80111   0.80814   0.85093

 Mulliken charges:
               1
     1  O   -0.494639
     2  H    0.243607
     3  H    0.253150
     4  O   -0.497888
     5  H    0.240665
     6  H    0.255106
 Sum of Mulliken charges =  -0.00000

 Dipole moment (field-independent basis, Debye):
    X=             -1.5900    Y=             -0.9376    Z=              0.0000  Tot=              1.8458
 Quadrupole moment (field-independent basis, Debye-Ang):
   XX=             -9.2412   YY=              0.4086   ZZ=            -14.7137
   XY=             -2.2427   XZ=              0.0000   YZ=              0.0000

 Normal termination of Gaussian 16 at Sat Aug 27 07:23:12 2022.
