 Gaussian 16, Revision A.03,
 Gaussian 16:  ES64L-G16RevA.03 25-Dec-2016

 ------------------
 #p CCSD(T)/cc-pVTZ
 ------------------

 ------------
 H2O_H2O_3036
 ------------
 Symbolic Z-matrix:
 Charge =  0 Multiplicity = 1

                         Standard orientation:
 ---------------------------------------------------------------------
 Center     Atomic      Atomic             Coordinates (Angstroms)
 Number     Number       Type             X           Y           Z
 ---------------------------------------------------------------------
      1          8           0        0.037676   -2.397064    0.000000
      2          1           0       -0.762662   -2.967120    0.000000
      3          1           0        0.836479   -2.969270    0.000000
      4          8           0        0.037676    2.425309    0.000000
      5          1           0        0.263538    3.381600    0.000000
      6          1           0       -0.940178    2.328829    0.000000
 ---------------------------------------------------------------------

 SCF Done:  E(RHF) =  -152.106503144     A.U. after   10 cycles
 E2 =    -0.5260125424D+00 EUMP2 =    -0.15263251568674D+03
 CCSD(T)
 CCSD(T)= -0.15265975106D+03

 The electronic state is 1-A'.
 Alpha  occ. eigenvalues --  -20.55131 -20.54845  -1.32425  -1.32136  -0.69835
 Alpha  occ. eigenvalues --   -0.69536  -0.55828  -0.55539  -0.49530  -0.49243
 Alpha virt. eigenvalues --    0.14166   0.15019   0.20420   0.20891   0.54591
 Alpha virt. eigenvalues --    0.55081   0.57568   0.57855   0.66999   0.70370
 Alpha virt. eigenvalues --    0.79344   0.79633   0.80724   0.81186   0.82742

 Mulliken charges:
               1
     1  O   -0.503508
     2  H    0.249944
     3  H    0.253607
     4  O   -0.503098
     5  H    0.248892
     6  H    0.254163
 Sum of Mulliken charges =  -0.00000

 Dipole moment (field-independent basis, Debye):
    X=             -1.2861    Y=             -0.5002    Z=              0.0000  Tot=              1.3799
 Quadrupole moment (field-independent basis, Debye-Ang):
   XX=             -8.7024   YY=              5.6938   ZZ=            -14.7107
   XY=             -2.2880   XZ=              0.0000   YZ=              0.0000

 Normal termination of Gaussian 16 at Fri Aug 26 18:44:26 2022.
