 Gaussian 16, Revision A.03,
 Gaussian 16:  ES64L-G16RevA.03 25-Dec-2016

 ------------------
 #p CCSD(T)/cc-pVTZ
 ------------------

 ------------
 H2O_H2O_4595
 ------------
 Symbolic Z-matrix:
 Charge =  0 Multiplicity = 1

                         Standard orientation:
 ---------------------------------------------------------------------
 Center     Atomic      Atomic             Coordinates (Angstroms)
 Number     Number       Type             X           Y           Z
 ---------------------------------------------------------------------
      1          8           0        0.055229   -3.190860    0.000000
      2          1           0       -0.745180   -3.760817    0.000000
      3          1           0        0.853960   -3.763166    0.000000
      4          8           0        0.055229    3.275360    0.000000
      5          1           0       -0.288146    4.196012    0.000000
      6          1           0       -0.704302    2.651968    0.000000
 ---------------------------------------------------------------------

 SCF Done:  E(RHF) =  -152.107481510     A.U. after   10 cycles
 E2 =    -0.5258716400D+00 EUMP2 =    -0.15263335314963D+03
 CCSD(T)
 CCSD(T)= -0.15266057175D+03

 The electronic state is 1-A'.
 Alpha  occ. eigenvalues --  -20.55637 -20.55172  -1.32937  -1.32470  -0.70343
 Alpha  occ. eigenvalues --   -0.69870  -0.56387  -0.55918  -0.50049  -0.49584
 Alpha virt. eigenvalues --    0.14038   0.14515   0.20122   0.20619   0.54218
 Alpha virt. eigenvalues --    0.54703   0.57143   0.57609   0.67784   0.68287
 Alpha virt. eigenvalues --    0.78831   0.79289   0.80260   0.80752   0.82191

 Mulliken charges:
               1
     1  O   -0.509325
     2  H    0.253547
     3  H    0.255778
     4  O   -0.509053
     5  H    0.252351
     6  H    0.256701
 Sum of Mulliken charges =  -0.00000

 Dipole moment (field-independent basis, Debye):
    X=             -1.8990    Y=             -1.4754    Z=              0.0000  Tot=              2.4048
 Quadrupole moment (field-independent basis, Debye-Ang):
   XX=             -9.7242   YY=              6.0666   ZZ=            -14.7122
   XY=             -5.8751   XZ=              0.0000   YZ=              0.0000

 Normal termination of Gaussian 16 at Sat Aug 27 08:14:33 2022.
