 Gaussian 16, Revision A.03,
 Gaussian 16:  ES64L-G16RevA.03 25-Dec-2016

 ------------------
 #p CCSD(T)/cc-pVTZ
 ------------------

 -----------
 H2O_H2O_160
 -----------
 Symbolic Z-matrix:
 Charge =  0 Multiplicity = 1

                         Standard orientation:
 ---------------------------------------------------------------------
 Center     Atomic      Atomic             Coordinates (Angstroms)
 Number     Number       Type             X           Y           Z
 ---------------------------------------------------------------------
      1          8           0        0.034808   -0.870679    0.000000
      2          1           0       -0.766696   -1.439096    0.000000
      3          1           0        0.832437   -1.444520    0.000000
      4          8           0        0.034808    0.894048    0.000000
      5          1           0        0.324655    1.832927    0.000000
      6          1           0       -0.947326    0.863740    0.000000
 ---------------------------------------------------------------------

 SCF Done:  E(RHF) =  -151.994303784     A.U. after   11 cycles
 E2 =    -0.5427172061D+00 EUMP2 =    -0.15253702099005D+03
 CCSD(T)
 CCSD(T)= -0.15256288512D+03

 The electronic state is 1-A'.
 Alpha  occ. eigenvalues --  -20.52164 -20.51417  -1.34940  -1.27407  -0.71244
 Alpha  occ. eigenvalues --   -0.68096  -0.60962  -0.51441  -0.43912  -0.39634
 Alpha virt. eigenvalues --    0.14290   0.18807   0.19948   0.23539   0.53450
 Alpha virt. eigenvalues --    0.56463   0.58680   0.65202   0.71702   0.77949
 Alpha virt. eigenvalues --    0.79738   0.82562   0.83296   0.85128   0.88675

 Mulliken charges:
               1
     1  O   -0.392243
     2  H    0.185100
     3  H    0.206655
     4  O   -0.366507
     5  H    0.139023
     6  H    0.227973
 Sum of Mulliken charges =  -0.00000

 Dipole moment (field-independent basis, Debye):
    X=             -0.9643    Y=             -0.5337    Z=              0.0000  Tot=              1.1022
 Quadrupole moment (field-independent basis, Debye-Ang):
   XX=             -8.9014   YY=             -7.5856   ZZ=            -14.7099
   XY=             -0.4528   XZ=              0.0000   YZ=              0.0000

 Normal termination of Gaussian 16 at Fri Aug 26 13:28:54 2022.
