 Gaussian 16, Revision A.03,
 Gaussian 16:  ES64L-G16RevA.03 25-Dec-2016

 ------------------
 #p CCSD(T)/cc-pVTZ
 ------------------

 -----------
 H2O_H2O_976
 -----------
 Symbolic Z-matrix:
 Charge =  0 Multiplicity = 1

                         Standard orientation:
 ---------------------------------------------------------------------
 Center     Atomic      Atomic             Coordinates (Angstroms)
 Number     Number       Type             X           Y           Z
 ---------------------------------------------------------------------
      1          8           0        0.003735   -1.322008    0.000000
      2          1           0       -0.795974   -1.892945    0.000000
      3          1           0        0.803167   -1.893334    0.000000
      4          8           0        0.003735    1.322250    0.000000
      5          1           0        0.764393    1.944269    0.000000
      6          1           0       -0.831352    1.840068    0.000000
 ---------------------------------------------------------------------

 SCF Done:  E(RHF) =  -152.096100091     A.U. after   10 cycles
 E2 =    -0.5284761651D+00 EUMP2 =    -0.15262457625657D+03
 CCSD(T)
 CCSD(T)= -0.15265189602D+03

 The electronic state is 1-A'.
 Alpha  occ. eigenvalues --  -20.53322 -20.53315  -1.31037  -1.30436  -0.68379
 Alpha  occ. eigenvalues --   -0.67965  -0.56426  -0.51080  -0.48305  -0.47262
 Alpha virt. eigenvalues --    0.14479   0.17269   0.20571   0.22186   0.50608
 Alpha virt. eigenvalues --    0.58658   0.58835   0.62248   0.72526   0.76631
 Alpha virt. eigenvalues --    0.76850   0.78568   0.80648   0.83701   0.86400

 Mulliken charges:
               1
     1  O   -0.463114
     2  H    0.230711
     3  H    0.232371
     4  O   -0.462837
     5  H    0.230637
     6  H    0.232232
 Sum of Mulliken charges =  -0.00000

 Dipole moment (field-independent basis, Debye):
    X=             -0.1189    Y=             -0.0046    Z=              0.0000  Tot=              0.1190
 Quadrupole moment (field-independent basis, Debye-Ang):
   XX=             -7.9610   YY=             -2.1234   ZZ=            -14.7186
   XY=             -0.0609   XZ=              0.0000   YZ=              0.0000

 Normal termination of Gaussian 16 at Fri Aug 26 21:40:50 2022.
