 Gaussian 16, Revision A.03,
 Gaussian 16:  ES64L-G16RevA.03 25-Dec-2016

 ------------------
 #p CCSD(T)/cc-pVTZ
 ------------------

 ------------
 H2O_H2O_3978
 ------------
 Symbolic Z-matrix:
 Charge =  0 Multiplicity = 1

                         Standard orientation:
 ---------------------------------------------------------------------
 Center     Atomic      Atomic             Coordinates (Angstroms)
 Number     Number       Type             X           Y           Z
 ---------------------------------------------------------------------
      1          8           0        0.011143   -2.916460    0.000000
      2          1           0       -0.788616   -3.487330    0.000000
      3          1           0        0.810526   -3.487855    0.000000
      4          8           0        0.011143    2.918648    0.000000
      5          1           0        0.684163    3.634574    0.000000
      6          1           0       -0.884354    3.323112    0.000000
 ---------------------------------------------------------------------

 SCF Done:  E(RHF) =  -152.106655679     A.U. after   10 cycles
 E2 =    -0.5259517040D+00 EUMP2 =    -0.15263260738280D+03
 CCSD(T)
 CCSD(T)= -0.15265984312D+03

 The electronic state is 1-A'.
 Alpha  occ. eigenvalues --  -20.55122 -20.55107  -1.32417  -1.32402  -0.69825
 Alpha  occ. eigenvalues --   -0.69810  -0.55829  -0.55815  -0.49523  -0.49508
 Alpha virt. eigenvalues --    0.14458   0.14541   0.20518   0.20555   0.54739
 Alpha virt. eigenvalues --    0.54769   0.57595   0.57617   0.68303   0.68552
 Alpha virt. eigenvalues --    0.79355   0.79370   0.80801   0.80820   0.82732

 Mulliken charges:
               1
     1  O   -0.504432
     2  H    0.251899
     3  H    0.252532
     4  O   -0.504412
     5  H    0.251772
     6  H    0.252640
 Sum of Mulliken charges =  -0.00000

 Dipole moment (field-independent basis, Debye):
    X=             -0.3823    Y=             -0.0383    Z=              0.0000  Tot=              0.3842
 Quadrupole moment (field-independent basis, Debye-Ang):
   XX=             -7.8840   YY=             11.1540   ZZ=            -14.7104
   XY=             -0.7763   XZ=              0.0000   YZ=              0.0000

 Normal termination of Gaussian 16 at Sat Aug 27 04:41:46 2022.
