 Gaussian 16, Revision A.03,
 Gaussian 16:  ES64L-G16RevA.03 25-Dec-2016

 ------------------
 #p CCSD(T)/cc-pVTZ
 ------------------

 ------------
 H2O_H2O_2148
 ------------
 Symbolic Z-matrix:
 Charge =  0 Multiplicity = 1

                         Standard orientation:
 ---------------------------------------------------------------------
 Center     Atomic      Atomic             Coordinates (Angstroms)
 Number     Number       Type             X           Y           Z
 ---------------------------------------------------------------------
      1          8           0        0.057127   -1.875930    0.000000
      2          1           0       -0.743894   -2.445026    0.000000
      3          1           0        0.855242   -2.449093    0.000000
      4          8           0        0.057127    1.982395    0.000000
      5          1           0       -0.458363    2.818923    0.000000
      6          1           0       -0.567009    1.223475    0.000000
 ---------------------------------------------------------------------

 SCF Done:  E(RHF) =  -152.108913598     A.U. after   10 cycles
 E2 =    -0.5262443774D+00 EUMP2 =    -0.15263515797494D+03
 CCSD(T)
 CCSD(T)= -0.15266230441D+03

 The electronic state is 1-A'.
 Alpha  occ. eigenvalues --  -20.56151 -20.54189  -1.33420  -1.31491  -0.70825
 Alpha  occ. eigenvalues --   -0.68858  -0.56902  -0.54963  -0.50542  -0.48621
 Alpha virt. eigenvalues --    0.12947   0.16232   0.19771   0.23353   0.53653
 Alpha virt. eigenvalues --    0.55231   0.56746   0.58533   0.66505   0.73680
 Alpha virt. eigenvalues --    0.78120   0.79250   0.80125   0.80344   0.83437

 Mulliken charges:
               1
     1  O   -0.504127
     2  H    0.250063
     3  H    0.258600
     4  O   -0.514024
     5  H    0.245797
     6  H    0.263691
 Sum of Mulliken charges =  -0.00000

 Dipole moment (field-independent basis, Debye):
    X=             -1.9261    Y=             -1.9722    Z=              0.0000  Tot=              2.7567
 Quadrupole moment (field-independent basis, Debye-Ang):
   XX=             -9.8516   YY=             -1.8988   ZZ=            -14.7184
   XY=             -3.9465   XZ=              0.0000   YZ=              0.0000

 Normal termination of Gaussian 16 at Sat Aug 27 08:51:23 2022.
