 Gaussian 16, Revision A.03,
 Gaussian 16:  ES64L-G16RevA.03 25-Dec-2016

 ------------------
 #p CCSD(T)/cc-pVTZ
 ------------------

 ------------
 H2O_H2O_3597
 ------------
 Symbolic Z-matrix:
 Charge =  0 Multiplicity = 1

                         Standard orientation:
 ---------------------------------------------------------------------
 Center     Atomic      Atomic             Coordinates (Angstroms)
 Number     Number       Type             X           Y           Z
 ---------------------------------------------------------------------
      1          8           0        0.056714   -2.651087    0.000000
      2          1           0       -0.743886   -3.220775    0.000000
      3          1           0        0.855253   -3.223662    0.000000
      4          8           0        0.056714    2.750200    0.000000
      5          1           0       -0.403601    3.618311    0.000000
      6          1           0       -0.615192    2.033228    0.000000
 ---------------------------------------------------------------------

 SCF Done:  E(RHF) =  -152.107715683     A.U. after   10 cycles
 E2 =    -0.5258845679D+00 EUMP2 =    -0.15263360025123D+03
 CCSD(T)
 CCSD(T)= -0.15266081073D+03

 The electronic state is 1-A'.
 Alpha  occ. eigenvalues --  -20.55751 -20.54943  -1.33049  -1.32242  -0.70455
 Alpha  occ. eigenvalues --   -0.69635  -0.56510  -0.55695  -0.50163  -0.49359
 Alpha virt. eigenvalues --    0.13737   0.14889   0.20023   0.20970   0.54082
 Alpha virt. eigenvalues --    0.54888   0.57049   0.57799   0.67233   0.68983
 Alpha virt. eigenvalues --    0.78721   0.79505   0.80102   0.80542   0.82663

 Mulliken charges:
               1
     1  O   -0.510570
     2  H    0.253440
     3  H    0.257222
     4  O   -0.510020
     5  H    0.251059
     6  H    0.258869
 Sum of Mulliken charges =  -0.00000

 Dipole moment (field-independent basis, Debye):
    X=             -1.9439    Y=             -1.7470    Z=              0.0000  Tot=              2.6135
 Quadrupole moment (field-independent basis, Debye-Ang):
   XX=             -9.8269   YY=              2.0840   ZZ=            -14.7131
   XY=             -5.2631   XZ=              0.0000   YZ=              0.0000

 Normal termination of Gaussian 16 at Sat Aug 27 01:46:59 2022.
