 Gaussian 16, Revision A.03,
 Gaussian 16:  ES64L-G16RevA.03 25-Dec-2016

 ------------------
 #p CCSD(T)/cc-pVTZ
 ------------------

 ------------
 H2O_H2O_1187
 ------------
 Symbolic Z-matrix:
 Charge =  0 Multiplicity = 1

                         Standard orientation:
 ---------------------------------------------------------------------
 Center     Atomic      Atomic             Coordinates (Angstroms)
 Number     Number       Type             X           Y           Z
 ---------------------------------------------------------------------
      1          8           0        0.040426   -1.410441    0.000000
      2          1           0       -0.760534   -1.979624    0.000000
      3          1           0        0.838603   -1.983519    0.000000
      4          8           0        0.040426    1.443700    0.000000
      5          1           0        0.204317    2.412538    0.000000
      6          1           0       -0.929199    1.284531    0.000000
 ---------------------------------------------------------------------

 SCF Done:  E(RHF) =  -152.102409168     A.U. after   11 cycles
 E2 =    -0.5277526947D+00 EUMP2 =    -0.15263016186266D+03
 CCSD(T)
 CCSD(T)= -0.15265739973D+03

 The electronic state is 1-A'.
 Alpha  occ. eigenvalues --  -20.54506 -20.53570  -1.31877  -1.30814  -0.69298
 Alpha  occ. eigenvalues --   -0.68264  -0.55946  -0.53145  -0.49029  -0.47841
 Alpha virt. eigenvalues --    0.14009   0.16936   0.20278   0.22678   0.53359
 Alpha virt. eigenvalues --    0.57969   0.58129   0.58842   0.68054   0.76227
 Alpha virt. eigenvalues --    0.76819   0.77101   0.81055   0.82871   0.85582

 Mulliken charges:
               1
     1  O   -0.477162
     2  H    0.232885
     3  H    0.246338
     4  O   -0.472409
     5  H    0.225526
     6  H    0.244822
 Sum of Mulliken charges =  -0.00000

 Dipole moment (field-independent basis, Debye):
    X=             -1.3048    Y=             -0.6381    Z=              0.0000  Tot=              1.4525
 Quadrupole moment (field-independent basis, Debye-Ang):
   XX=             -8.9046   YY=             -1.7079   ZZ=            -14.7169
   XY=             -1.1960   XZ=              0.0000   YZ=              0.0000

 Normal termination of Gaussian 16 at Sat Aug 27 02:50:00 2022.
