 Gaussian 16, Revision A.03,
 Gaussian 16:  ES64L-G16RevA.03 25-Dec-2016

 ------------------
 #p CCSD(T)/cc-pVTZ
 ------------------

 ------------
 H2O_H2O_4904
 ------------
 Symbolic Z-matrix:
 Charge =  0 Multiplicity = 1

                         Standard orientation:
 ---------------------------------------------------------------------
 Center     Atomic      Atomic             Coordinates (Angstroms)
 Number     Number       Type             X           Y           Z
 ---------------------------------------------------------------------
      1          8           0        0.014783   -3.407489    0.000000
      2          1           0       -0.785001   -3.978323    0.000000
      3          1           0        0.814141   -3.978920    0.000000
      4          8           0        0.014783    3.411370    0.000000
      5          1           0        0.639573    4.169753    0.000000
      6          1           0       -0.905236    3.756441    0.000000
 ---------------------------------------------------------------------

 SCF Done:  E(RHF) =  -152.106974723     A.U. after   10 cycles
 E2 =    -0.5259119763D+00 EUMP2 =    -0.15263288669898D+03
 CCSD(T)
 CCSD(T)= -0.15266011637D+03

 The electronic state is 1-A'.
 Alpha  occ. eigenvalues --  -20.55271 -20.55252  -1.32568  -1.32548  -0.69974
 Alpha  occ. eigenvalues --   -0.69955  -0.55995  -0.55976  -0.49676  -0.49657
 Alpha virt. eigenvalues --    0.14370   0.14390   0.20423   0.20443   0.54594
 Alpha virt. eigenvalues --    0.54614   0.57473   0.57492   0.68227   0.68249
 Alpha virt. eigenvalues --    0.79203   0.79222   0.80644   0.80665   0.82570

 Mulliken charges:
               1
     1  O   -0.506307
     2  H    0.252884
     3  H    0.253423
     4  O   -0.506291
     5  H    0.252757
     6  H    0.253535
 Sum of Mulliken charges =  -0.00000

 Dipole moment (field-independent basis, Debye):
    X=             -0.5084    Y=             -0.0676    Z=              0.0000  Tot=              0.5129
 Quadrupole moment (field-independent basis, Debye-Ang):
   XX=             -7.9384   YY=             14.9080   ZZ=            -14.7109
   XY=             -1.2855   XZ=              0.0000   YZ=              0.0000

 Normal termination of Gaussian 16 at Sat Aug 27 09:59:57 2022.
