 Gaussian 16, Revision A.03,
 Gaussian 16:  ES64L-G16RevA.03 25-Dec-2016

 ------------------
 #p CCSD(T)/cc-pVTZ
 ------------------

 ------------
 H2O_H2O_3369
 ------------
 Symbolic Z-matrix:
 Charge =  0 Multiplicity = 1

                         Standard orientation:
 ---------------------------------------------------------------------
 Center     Atomic      Atomic             Coordinates (Angstroms)
 Number     Number       Type             X           Y           Z
 ---------------------------------------------------------------------
      1          8           0        0.054152   -2.543262    0.000000
      2          1           0       -0.746447   -3.112951    0.000000
      3          1           0        0.852692   -3.115834    0.000000
      4          8           0        0.054152    2.620576    0.000000
      5          1           0       -0.227960    3.561809    0.000000
      6          1           0       -0.744717    2.048461    0.000000
 ---------------------------------------------------------------------

 SCF Done:  E(RHF) =  -152.107424084     A.U. after   10 cycles
 E2 =    -0.5259216424D+00 EUMP2 =    -0.15263334572612D+03
 CCSD(T)
 CCSD(T)= -0.15266056148D+03

 The electronic state is 1-A'.
 Alpha  occ. eigenvalues --  -20.55593 -20.54898  -1.32890  -1.32194  -0.70297
 Alpha  occ. eigenvalues --   -0.69586  -0.56337  -0.55637  -0.50001  -0.49309
 Alpha virt. eigenvalues --    0.13815   0.14960   0.20122   0.20990   0.54216
 Alpha virt. eigenvalues --    0.54930   0.57187   0.57821   0.67238   0.69372
 Alpha virt. eigenvalues --    0.78882   0.79557   0.80224   0.80710   0.82722

 Mulliken charges:
               1
     1  O   -0.508804
     2  H    0.252328
     3  H    0.256586
     4  O   -0.508347
     5  H    0.250206
     6  H    0.258032
 Sum of Mulliken charges =  -0.00000

 Dipole moment (field-independent basis, Debye):
    X=             -1.8535    Y=             -1.3662    Z=              0.0000  Tot=              2.3026
 Quadrupole moment (field-independent basis, Debye-Ang):
   XX=             -9.6478   YY=              3.3638   ZZ=            -14.7125
   XY=             -4.4366   XZ=              0.0000   YZ=              0.0000

 Normal termination of Gaussian 16 at Fri Aug 26 21:45:56 2022.
