 Gaussian 16, Revision A.03,
 Gaussian 16:  ES64L-G16RevA.03 25-Dec-2016

 ------------------
 #p CCSD(T)/cc-pVTZ
 ------------------

 ------------
 H2O_H2O_3662
 ------------
 Symbolic Z-matrix:
 Charge =  0 Multiplicity = 1

                         Standard orientation:
 ---------------------------------------------------------------------
 Center     Atomic      Atomic             Coordinates (Angstroms)
 Number     Number       Type             X           Y           Z
 ---------------------------------------------------------------------
      1          8           0        0.040406   -2.726687    0.000000
      2          1           0       -0.759888   -3.296805    0.000000
      3          1           0        0.839253   -3.298832    0.000000
      4          8           0        0.040406    2.760041    0.000000
      5          1           0        0.203165    3.729069    0.000000
      6          1           0       -0.929032    2.599738    0.000000
 ---------------------------------------------------------------------

 SCF Done:  E(RHF) =  -152.106862113     A.U. after   10 cycles
 E2 =    -0.5259448514D+00 EUMP2 =    -0.15263280696444D+03
 CCSD(T)
 CCSD(T)= -0.15266003758D+03

 The electronic state is 1-A'.
 Alpha  occ. eigenvalues --  -20.55277 -20.55019  -1.32574  -1.32313  -0.69981
 Alpha  occ. eigenvalues --   -0.69714  -0.55995  -0.55736  -0.49681  -0.49422
 Alpha virt. eigenvalues --    0.14274   0.14681   0.20380   0.20695   0.54571
 Alpha virt. eigenvalues --    0.54872   0.57454   0.57717   0.67961   0.68794
 Alpha virt. eigenvalues --    0.79198   0.79452   0.80635   0.80913   0.82604

 Mulliken charges:
               1
     1  O   -0.505682
     2  H    0.251475
     3  H    0.254211
     4  O   -0.505399
     5  H    0.250604
     6  H    0.254790
 Sum of Mulliken charges =  -0.00000

 Dipole moment (field-independent basis, Debye):
    X=             -1.3847    Y=             -0.5858    Z=              0.0000  Tot=              1.5035
 Quadrupole moment (field-independent basis, Debye-Ang):
   XX=             -8.8323   YY=              7.6828   ZZ=            -14.7110
   XY=             -2.9728   XZ=              0.0000   YZ=              0.0000

 Normal termination of Gaussian 16 at Sat Aug 27 02:18:04 2022.
