 Gaussian 16, Revision A.03,
 Gaussian 16:  ES64L-G16RevA.03 25-Dec-2016

 ------------------
 #p CCSD(T)/cc-pVTZ
 ------------------

 ------------
 H2O_H2O_1083
 ------------
 Symbolic Z-matrix:
 Charge =  0 Multiplicity = 1

                         Standard orientation:
 ---------------------------------------------------------------------
 Center     Atomic      Atomic             Coordinates (Angstroms)
 Number     Number       Type             X           Y           Z
 ---------------------------------------------------------------------
      1          8           0        0.028570   -1.367066    0.000000
      2          1           0       -0.772021   -1.936767    0.000000
      3          1           0        0.827118   -1.939627    0.000000
      4          8           0        0.028570    1.382267    0.000000
      5          1           0        0.437053    2.275938    0.000000
      6          1           0       -0.949274    1.478845    0.000000
 ---------------------------------------------------------------------

 SCF Done:  E(RHF) =  -152.099581570     A.U. after   11 cycles
 E2 =    -0.5280808793D+00 EUMP2 =    -0.15262766244935D+03
 CCSD(T)
 CCSD(T)= -0.15265494467D+03

 The electronic state is 1-A'.
 Alpha  occ. eigenvalues --  -20.53902 -20.53481  -1.31373  -1.30708  -0.68768
 Alpha  occ. eigenvalues --   -0.68189  -0.56107  -0.52191  -0.48590  -0.47631
 Alpha virt. eigenvalues --    0.14265   0.17035   0.20457   0.22370   0.52152
 Alpha virt. eigenvalues --    0.58371   0.58672   0.60446   0.69466   0.76608
 Alpha virt. eigenvalues --    0.76848   0.77928   0.81274   0.83315   0.86017

 Mulliken charges:
               1
     1  O   -0.471690
     2  H    0.230292
     3  H    0.241219
     4  O   -0.463396
     5  H    0.224942
     6  H    0.238633
 Sum of Mulliken charges =  -0.00000

 Dipole moment (field-independent basis, Debye):
    X=             -0.9162    Y=             -0.2910    Z=              0.0000  Tot=              0.9613
 Quadrupole moment (field-independent basis, Debye-Ang):
   XX=             -8.4262   YY=             -1.8069   ZZ=            -14.7165
   XY=             -0.6394   XZ=              0.0000   YZ=              0.0000

 Normal termination of Gaussian 16 at Sat Aug 27 01:56:44 2022.
