 Gaussian 16, Revision A.03,
 Gaussian 16:  ES64L-G16RevA.03 25-Dec-2016

 ------------------
 #p CCSD(T)/cc-pVTZ
 ------------------

 ------------
 H2O_H2O_1931
 ------------
 Symbolic Z-matrix:
 Charge =  0 Multiplicity = 1

                         Standard orientation:
 ---------------------------------------------------------------------
 Center     Atomic      Atomic             Coordinates (Angstroms)
 Number     Number       Type             X           Y           Z
 ---------------------------------------------------------------------
      1          8           0        0.021861   -1.822686    0.000000
      2          1           0       -0.778298   -2.392994    0.000000
      3          1           0        0.820843   -2.394641    0.000000
      4          8           0        0.021861    1.831335    0.000000
      5          1           0        0.542864    2.664439    0.000000
      6          1           0       -0.935180    2.053996    0.000000
 ---------------------------------------------------------------------

 SCF Done:  E(RHF) =  -152.104736533     A.U. after   10 cycles
 E2 =    -0.5265157244D+00 EUMP2 =    -0.15263125225785D+03
 CCSD(T)
 CCSD(T)= -0.15265849599D+03

 The electronic state is 1-A'.
 Alpha  occ. eigenvalues --  -20.54517 -20.54360  -1.31798  -1.31633  -0.69220
 Alpha  occ. eigenvalues --   -0.69047  -0.55369  -0.54637  -0.48909  -0.48715
 Alpha virt. eigenvalues --    0.14108   0.15977   0.20547   0.21402   0.53459
 Alpha virt. eigenvalues --    0.56478   0.57971   0.58327   0.61937   0.75855
 Alpha virt. eigenvalues --    0.79166   0.79666   0.80771   0.80860   0.83189

 Mulliken charges:
               1
     1  O   -0.489490
     2  H    0.242708
     3  H    0.247042
     4  O   -0.489495
     5  H    0.241987
     6  H    0.247248
 Sum of Mulliken charges =  -0.00000

 Dipole moment (field-independent basis, Debye):
    X=             -0.7331    Y=             -0.1594    Z=              0.0000  Tot=              0.7502
 Quadrupole moment (field-independent basis, Debye-Ang):
   XX=             -8.1442   YY=              2.1588   ZZ=            -14.7096
   XY=             -0.7657   XZ=              0.0000   YZ=              0.0000

 Normal termination of Gaussian 16 at Sat Aug 27 07:37:12 2022.
