 Gaussian 16, Revision A.03,
 Gaussian 16:  ES64L-G16RevA.03 25-Dec-2016

 ------------------
 #p CCSD(T)/cc-pVTZ
 ------------------

 ------------
 H2O_H2O_4286
 ------------
 Symbolic Z-matrix:
 Charge =  0 Multiplicity = 1

                         Standard orientation:
 ---------------------------------------------------------------------
 Center     Atomic      Atomic             Coordinates (Angstroms)
 Number     Number       Type             X           Y           Z
 ---------------------------------------------------------------------
      1          8           0        0.037672   -3.061848    0.000000
      2          1           0       -0.762500   -3.632137    0.000000
      3          1           0        0.836641   -3.633822    0.000000
      4          8           0        0.037672    3.090115    0.000000
      5          1           0        0.263256    4.046472    0.000000
      6          1           0       -0.940154    2.993351    0.000000
 ---------------------------------------------------------------------

 SCF Done:  E(RHF) =  -152.106995878     A.U. after   10 cycles
 E2 =    -0.5259179833D+00 EUMP2 =    -0.15263291386162D+03
 CCSD(T)
 CCSD(T)= -0.15266014260D+03

 The electronic state is 1-A'.
 Alpha  occ. eigenvalues --  -20.55322 -20.55150  -1.32619  -1.32445  -0.70026
 Alpha  occ. eigenvalues --   -0.69849  -0.56047  -0.55874  -0.49728  -0.49555
 Alpha virt. eigenvalues --    0.14311   0.14500   0.20371   0.20557   0.54540
 Alpha virt. eigenvalues --    0.54728   0.57422   0.57596   0.68152   0.68372
 Alpha virt. eigenvalues --    0.79151   0.79322   0.80591   0.80779   0.82519

 Mulliken charges:
               1
     1  O   -0.506449
     2  H    0.252304
     3  H    0.254145
     4  O   -0.506299
     5  H    0.251734
     6  H    0.254564
 Sum of Mulliken charges =   0.00000

 Dipole moment (field-independent basis, Debye):
    X=             -1.2939    Y=             -0.4940    Z=              0.0000  Tot=              1.3850
 Quadrupole moment (field-independent basis, Debye-Ang):
   XX=             -8.6964   YY=             10.3841   ZZ=            -14.7111
   XY=             -3.1374   XZ=              0.0000   YZ=              0.0000

 Normal termination of Gaussian 16 at Sat Aug 27 06:27:15 2022.
