 Gaussian 16, Revision A.03,
 Gaussian 16:  ES64L-G16RevA.03 25-Dec-2016

 ------------------
 #p CCSD(T)/cc-pVTZ
 ------------------

 -----------
 H2O_H2O_639
 -----------
 Symbolic Z-matrix:
 Charge =  0 Multiplicity = 1

                         Standard orientation:
 ---------------------------------------------------------------------
 Center     Atomic      Atomic             Coordinates (Angstroms)
 Number     Number       Type             X           Y           Z
 ---------------------------------------------------------------------
      1          8           0        0.045388   -1.111891    0.000000
      2          1           0       -0.756143   -1.680269    0.000000
      3          1           0        0.842989   -1.685769    0.000000
      4          8           0        0.045388    1.156269    0.000000
      5          1           0        0.082404    2.138173    0.000000
      6          1           0       -0.895451    0.872844    0.000000
 ---------------------------------------------------------------------

 SCF Done:  E(RHF) =  -152.086612543     A.U. after   11 cycles
 E2 =    -0.5311836331D+00 EUMP2 =    -0.15261779617598D+03
 CCSD(T)
 CCSD(T)= -0.15264490296D+03

 The electronic state is 1-A'.
 Alpha  occ. eigenvalues --  -20.54117 -20.52478  -1.32388  -1.29596  -0.69688
 Alpha  occ. eigenvalues --   -0.67863  -0.56956  -0.50113  -0.49543  -0.46433
 Alpha virt. eigenvalues --    0.13996   0.17782   0.20104   0.23655   0.53079
 Alpha virt. eigenvalues --    0.57656   0.58446   0.61709   0.71211   0.75460
 Alpha virt. eigenvalues --    0.78839   0.81485   0.83296   0.85311   0.87751

 Mulliken charges:
               1
     1  O   -0.458397
     2  H    0.221188
     3  H    0.240361
     4  O   -0.444864
     5  H    0.197680
     6  H    0.244032
 Sum of Mulliken charges =  -0.00000

 Dipole moment (field-independent basis, Debye):
    X=             -1.3752    Y=             -0.8852    Z=              0.0000  Tot=              1.6355
 Quadrupole moment (field-independent basis, Debye-Ang):
   XX=             -9.2238   YY=             -4.4480   ZZ=            -14.7249
   XY=             -1.0792   XZ=              0.0000   YZ=              0.0000

 Normal termination of Gaussian 16 at Fri Aug 26 18:34:48 2022.
