 Gaussian 16, Revision A.03,
 Gaussian 16:  ES64L-G16RevA.03 25-Dec-2016

 ------------------
 #p CCSD(T)/cc-pVTZ
 ------------------

 -----------
 H2O_H2O_415
 -----------
 Symbolic Z-matrix:
 Charge =  0 Multiplicity = 1

                         Standard orientation:
 ---------------------------------------------------------------------
 Center     Atomic      Atomic             Coordinates (Angstroms)
 Number     Number       Type             X           Y           Z
 ---------------------------------------------------------------------
      1          8           0        0.047590   -0.988966    0.000000
      2          1           0       -0.754277   -1.556870    0.000000
      3          1           0        0.844852   -1.563316    0.000000
      4          8           0        0.047590    1.039348    0.000000
      5          1           0        0.020888    2.021587    0.000000
      6          1           0       -0.872901    0.695541    0.000000
 ---------------------------------------------------------------------

 SCF Done:  E(RHF) =  -152.061570836     A.U. after   11 cycles
 E2 =    -0.5349924557D+00 EUMP2 =    -0.15259656329178D+03
 CCSD(T)
 CCSD(T)= -0.15262337270D+03

 The electronic state is 1-A'.
 Alpha  occ. eigenvalues --  -20.53833 -20.51786  -1.33477  -1.28670  -0.70734
 Alpha  occ. eigenvalues --   -0.68281  -0.57068  -0.50374  -0.47632  -0.45445
 Alpha virt. eigenvalues --    0.13953   0.18263   0.19933   0.24041   0.52727
 Alpha virt. eigenvalues --    0.57212   0.59045   0.63257   0.71990   0.75867
 Alpha virt. eigenvalues --    0.80050   0.82844   0.82965   0.84679   0.88179

 Mulliken charges:
               1
     1  O   -0.429222
     2  H    0.205857
     3  H    0.228404
     4  O   -0.421776
     5  H    0.175658
     6  H    0.241079
 Sum of Mulliken charges =  -0.00000

 Dipole moment (field-independent basis, Debye):
    X=             -1.3809    Y=             -1.0374    Z=              0.0000  Tot=              1.7272
 Quadrupole moment (field-independent basis, Debye-Ang):
   XX=             -9.3698   YY=             -5.7974   ZZ=            -14.7078
   XY=             -1.0359   XZ=              0.0000   YZ=              0.0000

 Normal termination of Gaussian 16 at Fri Aug 26 16:15:06 2022.
