 Gaussian 16, Revision A.03,
 Gaussian 16:  ES64L-G16RevA.03 25-Dec-2016

 ------------------
 #p CCSD(T)/cc-pVTZ
 ------------------

 -----------
 H2O_H2O_387
 -----------
 Symbolic Z-matrix:
 Charge =  0 Multiplicity = 1

                         Standard orientation:
 ---------------------------------------------------------------------
 Center     Atomic      Atomic             Coordinates (Angstroms)
 Number     Number       Type             X           Y           Z
 ---------------------------------------------------------------------
      1          8           0        0.040443   -0.985016    0.000000
      2          1           0       -0.761106   -1.553369    0.000000
      3          1           0        0.838027   -1.558920    0.000000
      4          8           0        0.040443    1.018191    0.000000
      5          1           0        0.205337    1.986859    0.000000
      6          1           0       -0.929346    0.860025    0.000000
 ---------------------------------------------------------------------

 SCF Done:  E(RHF) =  -152.056889885     A.U. after   11 cycles
 E2 =    -0.5351910326D+00 EUMP2 =    -0.15259208091754D+03
 CCSD(T)
 CCSD(T)= -0.15261888356D+03

 The electronic state is 1-A'.
 Alpha  occ. eigenvalues --  -20.53079 -20.51901  -1.32930  -1.28636  -0.69972
 Alpha  occ. eigenvalues --   -0.67715  -0.58598  -0.49953  -0.45946  -0.45285
 Alpha virt. eigenvalues --    0.14223   0.18172   0.20117   0.23581   0.53270
 Alpha virt. eigenvalues --    0.57344   0.58414   0.63643   0.71541   0.76610
 Alpha virt. eigenvalues --    0.79727   0.81873   0.83381   0.85387   0.88231

 Mulliken charges:
               1
     1  O   -0.436034
     2  H    0.207505
     3  H    0.227455
     4  O   -0.408549
     5  H    0.173176
     6  H    0.236447
 Sum of Mulliken charges =  -0.00000

 Dipole moment (field-independent basis, Debye):
    X=             -1.1697    Y=             -0.6814    Z=              0.0000  Tot=              1.3536
 Quadrupole moment (field-independent basis, Debye-Ang):
   XX=             -9.0386   YY=             -5.7895   ZZ=            -14.7209
   XY=             -0.6796   XZ=              0.0000   YZ=              0.0000

 Normal termination of Gaussian 16 at Fri Aug 26 15:55:55 2022.
