 Gaussian 16, Revision A.03,
 Gaussian 16:  ES64L-G16RevA.03 25-Dec-2016

 ------------------
 #p CCSD(T)/cc-pVTZ
 ------------------

 -----------
 H2O_H2O_916
 -----------
 Symbolic Z-matrix:
 Charge =  0 Multiplicity = 1

                         Standard orientation:
 ---------------------------------------------------------------------
 Center     Atomic      Atomic             Coordinates (Angstroms)
 Number     Number       Type             X           Y           Z
 ---------------------------------------------------------------------
      1          8           0        0.049556   -1.251409    0.000000
      2          1           0       -0.751911   -1.819877    0.000000
      3          1           0        0.847223   -1.825198    0.000000
      4          8           0        0.049556    1.308192    0.000000
      5          1           0       -0.042018    2.286518    0.000000
      6          1           0       -0.846193    0.904287    0.000000
 ---------------------------------------------------------------------

 SCF Done:  E(RHF) =  -152.099837725     A.U. after   11 cycles
 E2 =    -0.5290035749D+00 EUMP2 =    -0.15262884130029D+03
 CCSD(T)
 CCSD(T)= -0.15265600707D+03

 The electronic state is 1-A'.
 Alpha  occ. eigenvalues --  -20.54960 -20.52955  -1.32558  -1.30194  -0.69957
 Alpha  occ. eigenvalues --   -0.67970  -0.56232  -0.52613  -0.49694  -0.47202
 Alpha virt. eigenvalues --    0.13742   0.17475   0.20007   0.23745   0.53105
 Alpha virt. eigenvalues --    0.57466   0.58626   0.59487   0.70799   0.75220
 Alpha virt. eigenvalues --    0.77225   0.79767   0.83014   0.83617   0.85061

 Mulliken charges:
               1
     1  O   -0.472155
     2  H    0.230546
     3  H    0.248815
     4  O   -0.472990
     5  H    0.216386
     6  H    0.249399
 Sum of Mulliken charges =  -0.00000

 Dipole moment (field-independent basis, Debye):
    X=             -1.5582    Y=             -1.1227    Z=              0.0000  Tot=              1.9205
 Quadrupole moment (field-independent basis, Debye-Ang):
   XX=             -9.4147   YY=             -3.4325   ZZ=            -14.7240
   XY=             -1.5966   XZ=              0.0000   YZ=              0.0000

 Normal termination of Gaussian 16 at Fri Aug 26 21:10:15 2022.
