 Gaussian 16, Revision A.03,
 Gaussian 16:  ES64L-G16RevA.03 25-Dec-2016

 ------------------
 #p CCSD(T)/cc-pVTZ
 ------------------

 -----------
 H2O_H2O_928
 -----------
 Symbolic Z-matrix:
 Charge =  0 Multiplicity = 1

                         Standard orientation:
 ---------------------------------------------------------------------
 Center     Atomic      Atomic             Coordinates (Angstroms)
 Number     Number       Type             X           Y           Z
 ---------------------------------------------------------------------
      1          8           0        0.011143   -1.294364    0.000000
      2          1           0       -0.788851   -1.864904    0.000000
      3          1           0        0.810291   -1.866088    0.000000
      4          8           0        0.011143    1.296543    0.000000
      5          1           0        0.684458    2.012191    0.000000
      6          1           0       -0.884187    1.701374    0.000000
 ---------------------------------------------------------------------

 SCF Done:  E(RHF) =  -152.095052382     A.U. after   11 cycles
 E2 =    -0.5287200921D+00 EUMP2 =    -0.15262377247404D+03
 CCSD(T)
 CCSD(T)= -0.15265108356D+03

 The electronic state is 1-A'.
 Alpha  occ. eigenvalues --  -20.53287 -20.53226  -1.31051  -1.30348  -0.68376
 Alpha  occ. eigenvalues --   -0.67891  -0.56608  -0.50785  -0.48329  -0.47152
 Alpha virt. eigenvalues --    0.14467   0.17335   0.20562   0.22272   0.50718
 Alpha virt. eigenvalues --    0.58708   0.58850   0.62418   0.72569   0.76694
 Alpha virt. eigenvalues --    0.76743   0.78981   0.82030   0.83798   0.86409

 Mulliken charges:
               1
     1  O   -0.462868
     2  H    0.228762
     3  H    0.233781
     4  O   -0.460279
     5  H    0.227519
     6  H    0.233085
 Sum of Mulliken charges =  -0.00000

 Dipole moment (field-independent basis, Debye):
    X=             -0.3528    Y=             -0.0419    Z=              0.0000  Tot=              0.3552
 Quadrupole moment (field-independent basis, Debye-Ang):
   XX=             -8.0374   YY=             -2.4028   ZZ=            -14.7207
   XY=             -0.1792   XZ=              0.0000   YZ=              0.0000

 Normal termination of Gaussian 16 at Fri Aug 26 21:16:10 2022.
