 Gaussian 16, Revision A.03,
 Gaussian 16:  ES64L-G16RevA.03 25-Dec-2016

 ------------------
 #p CCSD(T)/cc-pVTZ
 ------------------

 ------------
 H2O_H2O_4387
 ------------
 Symbolic Z-matrix:
 Charge =  0 Multiplicity = 1

                         Standard orientation:
 ---------------------------------------------------------------------
 Center     Atomic      Atomic             Coordinates (Angstroms)
 Number     Number       Type             X           Y           Z
 ---------------------------------------------------------------------
      1          8           0        0.040404   -3.112262    0.000000
      2          1           0       -0.759801   -3.682505    0.000000
      3          1           0        0.839340   -3.684282    0.000000
      4          8           0        0.040404    3.145628    0.000000
      5          1           0        0.203012    4.114682    0.000000
      6          1           0       -0.929009    2.985174    0.000000
 ---------------------------------------------------------------------

 SCF Done:  E(RHF) =  -152.107061646     A.U. after   10 cycles
 E2 =    -0.5259108616D+00 EUMP2 =    -0.15263297250807D+03
 CCSD(T)
 CCSD(T)= -0.15266019992D+03

 The electronic state is 1-A'.
 Alpha  occ. eigenvalues --  -20.55361 -20.55164  -1.32658  -1.32460  -0.70065
 Alpha  occ. eigenvalues --   -0.69863  -0.56090  -0.55892  -0.49767  -0.49570
 Alpha virt. eigenvalues --    0.14281   0.14489   0.20342   0.20552   0.54500
 Alpha virt. eigenvalues --    0.54713   0.57388   0.57587   0.68113   0.68340
 Alpha virt. eigenvalues --    0.79112   0.79307   0.80550   0.80764   0.82477

 Mulliken charges:
               1
     1  O   -0.506837
     2  H    0.252480
     3  H    0.254357
     4  O   -0.506680
     5  H    0.251863
     6  H    0.254816
 Sum of Mulliken charges =   0.00000

 Dipole moment (field-independent basis, Debye):
    X=             -1.3882    Y=             -0.5828    Z=              0.0000  Tot=              1.5056
 Quadrupole moment (field-independent basis, Debye-Ang):
   XX=             -8.8304   YY=             10.3243   ZZ=            -14.7112
   XY=             -3.5028   XZ=              0.0000   YZ=              0.0000

 Normal termination of Gaussian 16 at Sat Aug 27 07:02:22 2022.
