 Gaussian 16, Revision A.03,
 Gaussian 16:  ES64L-G16RevA.03 25-Dec-2016

 ------------------
 #p CCSD(T)/cc-pVTZ
 ------------------

 ------------
 H2O_H2O_2585
 ------------
 Symbolic Z-matrix:
 Charge =  0 Multiplicity = 1

                         Standard orientation:
 ---------------------------------------------------------------------
 Center     Atomic      Atomic             Coordinates (Angstroms)
 Number     Number       Type             X           Y           Z
 ---------------------------------------------------------------------
      1          8           0        0.034785   -2.160309    0.000000
      2          1           0       -0.765573   -2.730339    0.000000
      3          1           0        0.833568   -2.732543    0.000000
      4          8           0        0.034785    2.183818    0.000000
      5          1           0        0.322739    3.123280    0.000000
      6          1           0       -0.947287    2.151533    0.000000
 ---------------------------------------------------------------------

 SCF Done:  E(RHF) =  -152.106098169     A.U. after   10 cycles
 E2 =    -0.5261188995D+00 EUMP2 =    -0.15263221706836D+03
 CCSD(T)
 CCSD(T)= -0.15265945386D+03

 The electronic state is 1-A'.
 Alpha  occ. eigenvalues --  -20.54977 -20.54678  -1.32266  -1.31964  -0.69678
 Alpha  occ. eigenvalues --   -0.69365  -0.55656  -0.55331  -0.49368  -0.49069
 Alpha virt. eigenvalues --    0.14032   0.15378   0.20446   0.21096   0.54332
 Alpha virt. eigenvalues --    0.55331   0.57688   0.57995   0.65202   0.72822
 Alpha virt. eigenvalues --    0.79441   0.79864   0.80765   0.81301   0.82561

 Mulliken charges:
               1
     1  O   -0.500614
     2  H    0.248147
     3  H    0.252616
     4  O   -0.500213
     5  H    0.247002
     6  H    0.253062
 Sum of Mulliken charges =  -0.00000

 Dipole moment (field-independent basis, Debye):
    X=             -1.1816    Y=             -0.4209    Z=              0.0000  Tot=              1.2543
 Quadrupole moment (field-independent basis, Debye-Ang):
   XX=             -8.5773   YY=              4.2222   ZZ=            -14.7105
   XY=             -1.7808   XZ=              0.0000   YZ=              0.0000

 Normal termination of Gaussian 16 at Fri Aug 26 14:04:49 2022.
