 Gaussian 16, Revision A.03,
 Gaussian 16:  ES64L-G16RevA.03 25-Dec-2016

 ------------------
 #p CCSD(T)/cc-pVTZ
 ------------------

 ------------
 H2O_H2O_2407
 ------------
 Symbolic Z-matrix:
 Charge =  0 Multiplicity = 1

                         Standard orientation:
 ---------------------------------------------------------------------
 Center     Atomic      Atomic             Coordinates (Angstroms)
 Number     Number       Type             X           Y           Z
 ---------------------------------------------------------------------
      1          8           0        0.025267   -2.073637    0.000000
      2          1           0       -0.774901   -2.643932    0.000000
      3          1           0        0.824240   -2.645604    0.000000
      4          8           0        0.025267    2.085364    0.000000
      5          1           0        0.490680    2.950752    0.000000
      6          1           0       -0.944286    2.244970    0.000000
 ---------------------------------------------------------------------

 SCF Done:  E(RHF) =  -152.105628559     A.U. after   10 cycles
 E2 =    -0.5262018886D+00 EUMP2 =    -0.15263183044762D+03
 CCSD(T)
 CCSD(T)= -0.15265907307D+03

 The electronic state is 1-A'.
 Alpha  occ. eigenvalues --  -20.54778 -20.54616  -1.32065  -1.31900  -0.69479
 Alpha  occ. eigenvalues --   -0.69308  -0.55474  -0.55190  -0.49166  -0.49000
 Alpha virt. eigenvalues --    0.14116   0.15499   0.20541   0.21106   0.54297
 Alpha virt. eigenvalues --    0.55659   0.57814   0.58068   0.63875   0.73833
 Alpha virt. eigenvalues --    0.79518   0.80052   0.80836   0.81170   0.82278

 Mulliken charges:
               1
     1  O   -0.497525
     2  H    0.247003
     3  H    0.250631
     4  O   -0.497232
     5  H    0.246263
     6  H    0.250859
 Sum of Mulliken charges =  -0.00000

 Dipole moment (field-independent basis, Debye):
    X=             -0.8560    Y=             -0.2111    Z=              0.0000  Tot=              0.8817
 Quadrupole moment (field-independent basis, Debye-Ang):
   XX=             -8.2265   YY=              4.0492   ZZ=            -14.7100
   XY=             -1.1219   XZ=              0.0000   YZ=              0.0000

 Normal termination of Gaussian 16 at Sat Aug 27 10:23:20 2022.
