 Gaussian 16, Revision A.03,
 Gaussian 16:  ES64L-G16RevA.03 25-Dec-2016

 ------------------
 #p CCSD(T)/cc-pVTZ
 ------------------

 ------------
 H2O_H2O_2559
 ------------
 Symbolic Z-matrix:
 Charge =  0 Multiplicity = 1

                         Standard orientation:
 ---------------------------------------------------------------------
 Center     Atomic      Atomic             Coordinates (Angstroms)
 Number     Number       Type             X           Y           Z
 ---------------------------------------------------------------------
      1          8           0        0.031743   -2.149370    0.000000
      2          1           0       -0.768550   -2.719490    0.000000
      3          1           0        0.830590   -2.721513    0.000000
      4          8           0        0.031743    2.168540    0.000000
      5          1           0        0.380420    3.087196    0.000000
      6          1           0       -0.950341    2.200443    0.000000
 ---------------------------------------------------------------------

 SCF Done:  E(RHF) =  -152.105971721     A.U. after   10 cycles
 E2 =    -0.5261330839D+00 EUMP2 =    -0.15263210480472D+03
 CCSD(T)
 CCSD(T)= -0.15265934402D+03

 The electronic state is 1-A'.
 Alpha  occ. eigenvalues --  -20.54919 -20.54673  -1.32208  -1.31959  -0.69621
 Alpha  occ. eigenvalues --   -0.69362  -0.55598  -0.55312  -0.49310  -0.49063
 Alpha virt. eigenvalues --    0.14076   0.15384   0.20481   0.21077   0.54365
 Alpha virt. eigenvalues --    0.55403   0.57727   0.58003   0.64966   0.72958
 Alpha virt. eigenvalues --    0.79480   0.79889   0.80846   0.81230   0.82464

 Mulliken charges:
               1
     1  O   -0.499883
     2  H    0.247933
     3  H    0.252074
     4  O   -0.499494
     5  H    0.246941
     6  H    0.252429
 Sum of Mulliken charges =  -0.00000

 Dipole moment (field-independent basis, Debye):
    X=             -1.0779    Y=             -0.3434    Z=              0.0000  Tot=              1.1312
 Quadrupole moment (field-independent basis, Debye-Ang):
   XX=             -8.4521   YY=              4.3301   ZZ=            -14.7103
   XY=             -1.5679   XZ=              0.0000   YZ=              0.0000

 Normal termination of Gaussian 16 at Fri Aug 26 13:43:46 2022.
