 Gaussian 16, Revision A.03,
 Gaussian 16:  ES64L-G16RevA.03 25-Dec-2016

 ------------------
 #p CCSD(T)/cc-pVTZ
 ------------------

 -----------
 H2O_H2O_600
 -----------
 Symbolic Z-matrix:
 Charge =  0 Multiplicity = 1

                         Standard orientation:
 ---------------------------------------------------------------------
 Center     Atomic      Atomic             Coordinates (Angstroms)
 Number     Number       Type             X           Y           Z
 ---------------------------------------------------------------------
      1          8           0       -0.000000   -0.000000    1.122701
      2          1           0        0.000000   -0.799571    1.693833
      3          1           0        0.000000    0.799571    1.693833
      4          8           0        0.000000   -0.000000   -1.122701
      5          1           0        0.000000    0.799571   -1.693833
      6          1           0        0.000000   -0.799571   -1.693833
 ---------------------------------------------------------------------

 SCF Done:  E(RHF) =  -152.078485720     A.U. after   10 cycles
 E2 =    -0.5313549934D+00 EUMP2 =    -0.15260984071309D+03
 CCSD(T)
 CCSD(T)= -0.15263702037D+03

 The electronic state is 1-AG.
 Alpha  occ. eigenvalues --  -20.52459 -20.52458  -1.31167  -1.29400  -0.68220
 Alpha  occ. eigenvalues --   -0.67101  -0.58618  -0.48484  -0.47331  -0.45999
 Alpha virt. eigenvalues --    0.14590   0.17974   0.20570   0.22567   0.50134
 Alpha virt. eigenvalues --    0.59043   0.59100   0.64886   0.72004   0.77022
 Alpha virt. eigenvalues --    0.78095   0.81146   0.84353   0.86662   0.86883

 Mulliken charges:
               1
     1  O   -0.448394
     2  H    0.224197
     3  H    0.224197
     4  O   -0.448394
     5  H    0.224197
     6  H    0.224197
 Sum of Mulliken charges =   0.00000

 Dipole moment (field-independent basis, Debye):
    X=              0.0000    Y=              0.0000    Z=              0.0000  Tot=              0.0000
 Quadrupole moment (field-independent basis, Debye-Ang):
   XX=            -14.7399   YY=             -8.0546   ZZ=             -4.2332
   XY=             -0.0000   XZ=             -0.0000   YZ=              0.0000

 P4DQ=-152.6179648\MP4SDQ=-152.6213151\CCSD=-152.6206209\CCSD(T)=-152.6
 Normal termination of Gaussian 16 at Fri Aug 26 18:05:38 2022.
