 Gaussian 16, Revision A.03,
 Gaussian 16:  ES64L-G16RevA.03 25-Dec-2016

 ------------------
 #p CCSD(T)/cc-pVTZ
 ------------------

 ------------
 H2O_H2O_3219
 ------------
 Symbolic Z-matrix:
 Charge =  0 Multiplicity = 1

                         Standard orientation:
 ---------------------------------------------------------------------
 Center     Atomic      Atomic             Coordinates (Angstroms)
 Number     Number       Type             X           Y           Z
 ---------------------------------------------------------------------
      1          8           0        0.054154   -2.463489    0.000000
      2          1           0       -0.746478   -3.033133    0.000000
      3          1           0        0.852661   -3.036108    0.000000
      4          8           0        0.054154    2.540797    0.000000
      5          1           0       -0.227904    3.482047    0.000000
      6          1           0       -0.744748    1.968729    0.000000
 ---------------------------------------------------------------------

 SCF Done:  E(RHF) =  -152.107432912     A.U. after   10 cycles
 E2 =    -0.5259359751D+00 EUMP2 =    -0.15263336888738D+03
 CCSD(T)
 CCSD(T)= -0.15266058279D+03

 The electronic state is 1-A'.
 Alpha  occ. eigenvalues --  -20.55595 -20.54849  -1.32891  -1.32144  -0.70298
 Alpha  occ. eigenvalues --   -0.69535  -0.56337  -0.55586  -0.50003  -0.49259
 Alpha virt. eigenvalues --    0.13733   0.15064   0.20111   0.21080   0.54191
 Alpha virt. eigenvalues --    0.54936   0.57190   0.57850   0.67054   0.69771
 Alpha virt. eigenvalues --    0.78882   0.79605   0.80152   0.80718   0.82770

 Mulliken charges:
               1
     1  O   -0.508654
     2  H    0.252094
     3  H    0.256744
     4  O   -0.508282
     5  H    0.249804
     6  H    0.258294
 Sum of Mulliken charges =  -0.00000

 Dipole moment (field-independent basis, Debye):
    X=             -1.8518    Y=             -1.3699    Z=              0.0000  Tot=              2.3034
 Quadrupole moment (field-independent basis, Debye-Ang):
   XX=             -9.6477   YY=              2.9402   ZZ=            -14.7127
   XY=             -4.2903   XZ=              0.0000   YZ=              0.0000

 Normal termination of Gaussian 16 at Fri Aug 26 20:28:12 2022.
