 Gaussian 16, Revision A.03,
 Gaussian 16:  ES64L-G16RevA.03 25-Dec-2016

 ------------------
 #p CCSD(T)/cc-pVTZ
 ------------------

 -----------
 H2O_H2O_968
 -----------
 Symbolic Z-matrix:
 Charge =  0 Multiplicity = 1

                         Standard orientation:
 ---------------------------------------------------------------------
 Center     Atomic      Atomic             Coordinates (Angstroms)
 Number     Number       Type             X           Y           Z
 ---------------------------------------------------------------------
      1          8           0        0.052888   -1.270743    0.000000
      2          1           0       -0.748665   -1.839090    0.000000
      3          1           0        0.850467   -1.844653    0.000000
      4          8           0        0.052888    1.340890    0.000000
      5          1           0       -0.165455    2.298925    0.000000
      6          1           0       -0.782556    0.823648    0.000000
 ---------------------------------------------------------------------

 SCF Done:  E(RHF) =  -152.102070597     A.U. after   10 cycles
 E2 =    -0.5288447160D+00 EUMP2 =    -0.15263091531288D+03
 CCSD(T)
 CCSD(T)= -0.15265804192D+03

 The electronic state is 1-A'.
 Alpha  occ. eigenvalues --  -20.55458 -20.52887  -1.33009  -1.30159  -0.70413
 Alpha  occ. eigenvalues --   -0.67995  -0.56184  -0.53170  -0.50118  -0.47211
 Alpha virt. eigenvalues --    0.13533   0.17548   0.19864   0.24211   0.52690
 Alpha virt. eigenvalues --    0.57141   0.58902   0.59130   0.70837   0.74861
 Alpha virt. eigenvalues --    0.76492   0.80834   0.82604   0.82819   0.84702

 Mulliken charges:
               1
     1  O   -0.474208
     2  H    0.233322
     3  H    0.251487
     4  O   -0.484724
     5  H    0.220266
     6  H    0.253857
 Sum of Mulliken charges =  -0.00000

 Dipole moment (field-independent basis, Debye):
    X=             -1.6723    Y=             -1.3996    Z=              0.0000  Tot=              2.1807
 Quadrupole moment (field-independent basis, Debye-Ang):
   XX=             -9.6036   YY=             -3.6078   ZZ=            -14.7243
   XY=             -1.9702   XZ=              0.0000   YZ=              0.0000

 Normal termination of Gaussian 16 at Fri Aug 26 21:36:25 2022.
