 Gaussian 16, Revision A.03,
 Gaussian 16:  ES64L-G16RevA.03 25-Dec-2016

 ------------------
 #p CCSD(T)/cc-pVTZ
 ------------------

 -----------
 H2O_H2O_593
 -----------
 Symbolic Z-matrix:
 Charge =  0 Multiplicity = 1

                         Standard orientation:
 ---------------------------------------------------------------------
 Center     Atomic      Atomic             Coordinates (Angstroms)
 Number     Number       Type             X           Y           Z
 ---------------------------------------------------------------------
      1          8           0        0.052910   -1.071339    0.000000
      2          1           0       -0.748999   -1.639183    0.000000
      3          1           0        0.850129   -1.645749    0.000000
      4          8           0        0.052910    1.141419    0.000000
      5          1           0       -0.164832    2.099592    0.000000
      6          1           0       -0.782859    0.624702    0.000000
 ---------------------------------------------------------------------

 SCF Done:  E(RHF) =  -152.083212256     A.U. after   11 cycles
 E2 =    -0.5324466929D+00 EUMP2 =    -0.15261565894854D+03
 CCSD(T)
 CCSD(T)= -0.15264259779D+03

 The electronic state is 1-A'.
 Alpha  occ. eigenvalues --  -20.55059 -20.51893  -1.33622  -1.29134  -0.70995
 Alpha  occ. eigenvalues --   -0.68436  -0.55664  -0.51072  -0.50577  -0.46066
 Alpha virt. eigenvalues --    0.13590   0.18196   0.19757   0.24696   0.51852
 Alpha virt. eigenvalues --    0.56819   0.60126   0.62199   0.71739   0.74667
 Alpha virt. eigenvalues --    0.78819   0.82814   0.84126   0.84286   0.87669

 Mulliken charges:
               1
     1  O   -0.441433
     2  H    0.217051
     3  H    0.239100
     4  O   -0.461412
     5  H    0.196310
     6  H    0.250384
 Sum of Mulliken charges =  -0.00000

 Dipole moment (field-independent basis, Debye):
    X=             -1.5903    Y=             -1.4545    Z=              0.0000  Tot=              2.1551
 Quadrupole moment (field-independent basis, Debye-Ang):
   XX=             -9.6297   YY=             -5.2006   ZZ=            -14.7110
   XY=             -1.6215   XZ=              0.0000   YZ=              0.0000

 Normal termination of Gaussian 16 at Fri Aug 26 17:57:17 2022.
