 Gaussian 16, Revision A.03,
 Gaussian 16:  ES64L-G16RevA.03 25-Dec-2016

 ------------------
 #p CCSD(T)/cc-pVTZ
 ------------------

 ------------
 H2O_H2O_1887
 ------------
 Symbolic Z-matrix:
 Charge =  0 Multiplicity = 1

                         Standard orientation:
 ---------------------------------------------------------------------
 Center     Atomic      Atomic             Coordinates (Angstroms)
 Number     Number       Type             X           Y           Z
 ---------------------------------------------------------------------
      1          8           0        0.040417   -1.782705    0.000000
      2          1           0       -0.760256   -2.352291    0.000000
      3          1           0        0.838883   -2.355381    0.000000
      4          8           0        0.040417    1.816005    0.000000
      5          1           0        0.203821    2.784925    0.000000
      6          1           0       -0.929127    1.656347    0.000000
 ---------------------------------------------------------------------

 SCF Done:  E(RHF) =  -152.105629722     A.U. after   10 cycles
 E2 =    -0.5265255605D+00 EUMP2 =    -0.15263215528226D+03
 CCSD(T)
 CCSD(T)= -0.15265937244D+03

 The electronic state is 1-A'.
 Alpha  occ. eigenvalues --  -20.54910 -20.54268  -1.32187  -1.31535  -0.69607
 Alpha  occ. eigenvalues --   -0.68928  -0.55636  -0.54753  -0.49294  -0.48639
 Alpha virt. eigenvalues --    0.13798   0.16133   0.20324   0.21817   0.53234
 Alpha virt. eigenvalues --    0.55443   0.57751   0.58475   0.63560   0.76540
 Alpha virt. eigenvalues --    0.78843   0.78938   0.80484   0.80868   0.84372

 Mulliken charges:
               1
     1  O   -0.492249
     2  H    0.242603
     3  H    0.250875
     4  O   -0.493459
     5  H    0.240383
     6  H    0.251848
 Sum of Mulliken charges =  -0.00000

 Dipole moment (field-independent basis, Debye):
    X=             -1.3522    Y=             -0.6159    Z=              0.0000  Tot=              1.4858
 Quadrupole moment (field-independent basis, Debye-Ang):
   XX=             -8.8567   YY=              1.1050   ZZ=            -14.7118
   XY=             -1.6889   XZ=              0.0000   YZ=              0.0000

 Normal termination of Gaussian 16 at Sat Aug 27 07:22:14 2022.
