 Gaussian 16, Revision A.03,
 Gaussian 16:  ES64L-G16RevA.03 25-Dec-2016

 ------------------
 #p CCSD(T)/cc-pVTZ
 ------------------

 ------------
 H2O_H2O_2673
 ------------
 Symbolic Z-matrix:
 Charge =  0 Multiplicity = 1

                         Standard orientation:
 ---------------------------------------------------------------------
 Center     Atomic      Atomic             Coordinates (Angstroms)
 Number     Number       Type             X           Y           Z
 ---------------------------------------------------------------------
      1          8           0        0.057109   -2.155125    0.000000
      2          1           0       -0.743728   -2.724479    0.000000
      3          1           0        0.855410   -2.728032    0.000000
      4          8           0        0.057109    2.261627    0.000000
      5          1           0       -0.458649    3.097988    0.000000
      6          1           0       -0.566783    1.502505    0.000000
 ---------------------------------------------------------------------

 SCF Done:  E(RHF) =  -152.108331458     A.U. after   10 cycles
 E2 =    -0.5260111215D+00 EUMP2 =    -0.15263434258001D+03
 CCSD(T)
 CCSD(T)= -0.15266152070D+03

 The electronic state is 1-A'.
 Alpha  occ. eigenvalues --  -20.55966 -20.54556  -1.33250  -1.31857  -0.70656
 Alpha  occ. eigenvalues --   -0.69235  -0.56724  -0.55320  -0.50368  -0.48980
 Alpha virt. eigenvalues --    0.13081   0.15653   0.19873   0.22014   0.53929
 Alpha virt. eigenvalues --    0.54814   0.56925   0.58268   0.66564   0.71585
 Alpha virt. eigenvalues --    0.78520   0.79425   0.79875   0.80572   0.82622

 Mulliken charges:
               1
     1  O   -0.509309
     2  H    0.252312
     3  H    0.258662
     4  O   -0.512129
     5  H    0.248623
     6  H    0.261842
 Sum of Mulliken charges =  -0.00000

 Dipole moment (field-independent basis, Debye):
    X=             -1.9428    Y=             -1.9228    Z=              0.0000  Tot=              2.7335
 Quadrupole moment (field-independent basis, Debye-Ang):
   XX=             -9.8523   YY=             -0.6960   ZZ=            -14.7158
   XY=             -4.4801   XZ=              0.0000   YZ=              0.0000

 Normal termination of Gaussian 16 at Fri Aug 26 14:56:25 2022.
