 Gaussian 16, Revision A.03,
 Gaussian 16:  ES64L-G16RevA.03 25-Dec-2016

 ------------------
 #p CCSD(T)/cc-pVTZ
 ------------------

 -----------
 H2O_H2O_395
 -----------
 Symbolic Z-matrix:
 Charge =  0 Multiplicity = 1

                         Standard orientation:
 ---------------------------------------------------------------------
 Center     Atomic      Atomic             Coordinates (Angstroms)
 Number     Number       Type             X           Y           Z
 ---------------------------------------------------------------------
      1          8           0        0.055368   -0.957336    0.000000
      2          1           0       -0.746908   -1.524662    0.000000
      3          1           0        0.852216   -1.532261    0.000000
      4          8           0        0.055368    1.041473    0.000000
      5          1           0       -0.284983    1.963247    0.000000
      6          1           0       -0.706206    0.420578    0.000000
 ---------------------------------------------------------------------

 SCF Done:  E(RHF) =  -152.050677013     A.U. after   11 cycles
 E2 =    -0.5372056913D+00 EUMP2 =    -0.15258788270405D+03
 CCSD(T)
 CCSD(T)= -0.15261429275D+03

 The electronic state is 1-A'.
 Alpha  occ. eigenvalues --  -20.55461 -20.50493  -1.35690  -1.27901  -0.73260
 Alpha  occ. eigenvalues --   -0.69789  -0.53587  -0.52038  -0.49581  -0.44832
 Alpha virt. eigenvalues --    0.13315   0.18829   0.19443   0.25644   0.50656
 Alpha virt. eigenvalues --    0.55648   0.61497   0.64989   0.72381   0.75215
 Alpha virt. eigenvalues --    0.79397   0.81257   0.83884   0.85028   0.87886

 Mulliken charges:
               1
     1  O   -0.394524
     2  H    0.198314
     3  H    0.232027
     4  O   -0.468120
     5  H    0.177997
     6  H    0.254306
 Sum of Mulliken charges =  -0.00000

 Dipole moment (field-independent basis, Debye):
    X=             -1.5948    Y=             -1.8843    Z=              0.0000  Tot=              2.4686
 Quadrupole moment (field-independent basis, Debye-Ang):
   XX=             -9.7674   YY=             -6.5814   ZZ=            -14.6647
   XY=             -1.7200   XZ=              0.0000   YZ=              0.0000

 Normal termination of Gaussian 16 at Fri Aug 26 16:01:17 2022.
