 Gaussian 16, Revision A.03,
 Gaussian 16:  ES64L-G16RevA.03 25-Dec-2016

 ------------------
 #p CCSD(T)/cc-pVTZ
 ------------------

 ------------
 H2O_H2O_1401
 ------------
 Symbolic Z-matrix:
 Charge =  0 Multiplicity = 1

                         Standard orientation:
 ---------------------------------------------------------------------
 Center     Atomic      Atomic             Coordinates (Angstroms)
 Number     Number       Type             X           Y           Z
 ---------------------------------------------------------------------
      1          8           0        0.003735   -1.548038    0.000000
      2          1           0       -0.795954   -2.119004    0.000000
      3          1           0        0.803188   -2.119336    0.000000
      4          8           0        0.003735    1.548281    0.000000
      5          1           0        0.764371    2.170326    0.000000
      6          1           0       -0.831370    2.066069    0.000000
 ---------------------------------------------------------------------

 SCF Done:  E(RHF) =  -152.101965135     A.U. after   10 cycles
 E2 =    -0.5272155134D+00 EUMP2 =    -0.15262918064800D+03
 CCSD(T)
 CCSD(T)= -0.15265647110D+03

 The electronic state is 1-A'.
 Alpha  occ. eigenvalues --  -20.53929 -20.53923  -1.31313  -1.31136  -0.68727
 Alpha  occ. eigenvalues --   -0.68591  -0.55524  -0.53246  -0.48500  -0.48110
 Alpha virt. eigenvalues --    0.14373   0.16597   0.20575   0.21763   0.51954
 Alpha virt. eigenvalues --    0.58250   0.58621   0.59565   0.64582   0.76111
 Alpha virt. eigenvalues --    0.78035   0.78083   0.79416   0.82440   0.86079

 Mulliken charges:
               1
     1  O   -0.474464
     2  H    0.236649
     3  H    0.237822
     4  O   -0.474397
     5  H    0.236685
     6  H    0.237705
 Sum of Mulliken charges =  -0.00000

 Dipole moment (field-independent basis, Debye):
    X=             -0.1228    Y=             -0.0046    Z=              0.0000  Tot=              0.1229
 Quadrupole moment (field-independent basis, Debye-Ang):
   XX=             -7.8981   YY=             -0.0090   ZZ=            -14.7096
   XY=             -0.0871   XZ=              0.0000   YZ=              0.0000

 Normal termination of Gaussian 16 at Sat Aug 27 04:31:39 2022.
