 Gaussian 16, Revision A.03,
 Gaussian 16:  ES64L-G16RevA.03 25-Dec-2016

 ------------------
 #p CCSD(T)/cc-pVTZ
 ------------------

 ------------
 H2O_H2O_2587
 ------------
 Symbolic Z-matrix:
 Charge =  0 Multiplicity = 1

                         Standard orientation:
 ---------------------------------------------------------------------
 Center     Atomic      Atomic             Coordinates (Angstroms)
 Number     Number       Type             X           Y           Z
 ---------------------------------------------------------------------
      1          8           0        0.040412   -2.154977    0.000000
      2          1           0       -0.760072   -2.724828    0.000000
      3          1           0        0.839068   -2.727388    0.000000
      4          8           0        0.040412    2.188304    0.000000
      5          1           0        0.203494    3.157278    0.000000
      6          1           0       -0.929079    2.028324    0.000000
 ---------------------------------------------------------------------

 SCF Done:  E(RHF) =  -152.106339442     A.U. after   10 cycles
 E2 =    -0.5261058620D+00 EUMP2 =    -0.15263244530371D+03
 CCSD(T)
 CCSD(T)= -0.15265967591D+03

 The electronic state is 1-A'.
 Alpha  occ. eigenvalues --  -20.55092 -20.54664  -1.32381  -1.31950  -0.69793
 Alpha  occ. eigenvalues --   -0.69346  -0.55776  -0.55335  -0.49485  -0.49057
 Alpha virt. eigenvalues --    0.13909   0.15417   0.20367   0.21181   0.54208
 Alpha virt. eigenvalues --    0.55208   0.57607   0.58004   0.65427   0.72886
 Alpha virt. eigenvalues --    0.79342   0.79859   0.80563   0.81478   0.82808

 Mulliken charges:
               1
     1  O   -0.501799
     2  H    0.248426
     3  H    0.253617
     4  O   -0.501486
     5  H    0.246925
     6  H    0.254316
 Sum of Mulliken charges =  -0.00000

 Dipole moment (field-independent basis, Debye):
    X=             -1.3727    Y=             -0.5974    Z=              0.0000  Tot=              1.4971
 Quadrupole moment (field-independent basis, Debye-Ang):
   XX=             -8.8400   YY=              3.7317   ZZ=            -14.7111
   XY=             -2.1928   XZ=              0.0000   YZ=              0.0000

 Normal termination of Gaussian 16 at Fri Aug 26 14:06:00 2022.
