 Gaussian 16, Revision A.03,
 Gaussian 16:  ES64L-G16RevA.03 25-Dec-2016

 ------------------
 #p CCSD(T)/cc-pVTZ
 ------------------

 ------------
 H2O_H2O_2097
 ------------
 Symbolic Z-matrix:
 Charge =  0 Multiplicity = 1

                         Standard orientation:
 ---------------------------------------------------------------------
 Center     Atomic      Atomic             Coordinates (Angstroms)
 Number     Number       Type             X           Y           Z
 ---------------------------------------------------------------------
      1          8           0        0.056752   -1.853378    0.000000
      2          1           0       -0.744280   -2.422459    0.000000
      3          1           0        0.854857   -2.426556    0.000000
      4          8           0        0.056752    1.952404    0.000000
      5          1           0       -0.402906    2.820863    0.000000
      6          1           0       -0.615697    1.235941    0.000000
 ---------------------------------------------------------------------

 SCF Done:  E(RHF) =  -152.108633215     A.U. after   10 cycles
 E2 =    -0.5262830875D+00 EUMP2 =    -0.15263491630292D+03
 CCSD(T)
 CCSD(T)= -0.15266206766D+03

 The electronic state is 1-A'.
 Alpha  occ. eigenvalues --  -20.56048 -20.54177  -1.33317  -1.31474  -0.70724
 Alpha  occ. eigenvalues --   -0.68841  -0.56785  -0.54940  -0.50438  -0.48603
 Alpha virt. eigenvalues --    0.13025   0.16251   0.19816   0.23250   0.53743
 Alpha virt. eigenvalues --    0.55051   0.56831   0.58530   0.66149   0.74178
 Alpha virt. eigenvalues --    0.78175   0.79155   0.79935   0.80407   0.83943

 Mulliken charges:
               1
     1  O   -0.502904
     2  H    0.249143
     3  H    0.258119
     4  O   -0.512407
     5  H    0.245070
     6  H    0.262979
 Sum of Mulliken charges =  -0.00000

 Dipole moment (field-independent basis, Debye):
    X=             -1.9105    Y=             -1.8369    Z=              0.0000  Tot=              2.6503
 Quadrupole moment (field-independent basis, Debye-Ang):
   XX=             -9.8257   YY=             -1.5435   ZZ=            -14.7180
   XY=             -3.7390   XZ=              0.0000   YZ=              0.0000

 Normal termination of Gaussian 16 at Sat Aug 27 08:34:08 2022.
