 Gaussian 16, Revision A.03,
 Gaussian 16:  ES64L-G16RevA.03 25-Dec-2016

 ------------------
 #p CCSD(T)/cc-pVTZ
 ------------------

 ------------
 H2O_H2O_4271
 ------------
 Symbolic Z-matrix:
 Charge =  0 Multiplicity = 1

                         Standard orientation:
 ---------------------------------------------------------------------
 Center     Atomic      Atomic             Coordinates (Angstroms)
 Number     Number       Type             X           Y           Z
 ---------------------------------------------------------------------
      1          8           0        0.056088   -3.014067    0.000000
      2          1           0       -0.744382   -3.583938    0.000000
      3          1           0        0.854758   -3.586458    0.000000
      4          8           0        0.056088    3.105832    0.000000
      5          1           0       -0.346669    4.002098    0.000000
      6          1           0       -0.661118    2.434177    0.000000
 ---------------------------------------------------------------------

 SCF Done:  E(RHF) =  -152.107550218     A.U. after   10 cycles
 E2 =    -0.5258711175D+00 EUMP2 =    -0.15263342133568D+03
 CCSD(T)
 CCSD(T)= -0.15266063810D+03

 The electronic state is 1-A'.
 Alpha  occ. eigenvalues --  -20.55678 -20.55110  -1.32977  -1.32408  -0.70383
 Alpha  occ. eigenvalues --   -0.69806  -0.56431  -0.55858  -0.50090  -0.49523
 Alpha virt. eigenvalues --    0.13980   0.14597   0.20089   0.20706   0.54174
 Alpha virt. eigenvalues --    0.54766   0.57107   0.57673   0.67689   0.68390
 Alpha virt. eigenvalues --    0.78791   0.79348   0.80218   0.80792   0.82196

 Mulliken charges:
               1
     1  O   -0.509742
     2  H    0.253557
     3  H    0.256189
     4  O   -0.509376
     5  H    0.252038
     6  H    0.257334
 Sum of Mulliken charges =  -0.00000

 Dipole moment (field-independent basis, Debye):
    X=             -1.9270    Y=             -1.6058    Z=              0.0000  Tot=              2.5084
 Quadrupole moment (field-independent basis, Debye-Ang):
   XX=             -9.7840   YY=              4.4654   ZZ=            -14.7124
   XY=             -5.7627   XZ=              0.0000   YZ=              0.0000

 Normal termination of Gaussian 16 at Sat Aug 27 06:22:14 2022.
