 Gaussian 16, Revision A.03,
 Gaussian 16:  ES64L-G16RevA.03 25-Dec-2016

 ------------------
 #p CCSD(T)/cc-pVTZ
 ------------------

 ------------
 H2O_H2O_2864
 ------------
 Symbolic Z-matrix:
 Charge =  0 Multiplicity = 1

                         Standard orientation:
 ---------------------------------------------------------------------
 Center     Atomic      Atomic             Coordinates (Angstroms)
 Number     Number       Type             X           Y           Z
 ---------------------------------------------------------------------
      1          8           0        0.045348   -2.295144    0.000000
      2          1           0       -0.755183   -2.864929    0.000000
      3          1           0        0.843957   -2.867621    0.000000
      4          8           0        0.045348    2.339681    0.000000
      5          1           0        0.080640    3.321649    0.000000
      6          1           0       -0.894991    2.054604    0.000000
 ---------------------------------------------------------------------

 SCF Done:  E(RHF) =  -152.106737230     A.U. after   10 cycles
 E2 =    -0.5260229418D+00 EUMP2 =    -0.15263276017216D+03
 CCSD(T)
 CCSD(T)= -0.15265998710D+03

 The electronic state is 1-A'.
 Alpha  occ. eigenvalues --  -20.55262 -20.54763  -1.32555  -1.32052  -0.69965
 Alpha  occ. eigenvalues --   -0.69447  -0.55967  -0.55466  -0.49662  -0.49163
 Alpha virt. eigenvalues --    0.13906   0.15216   0.20298   0.21088   0.54353
 Alpha virt. eigenvalues --    0.55057   0.57468   0.57914   0.66511   0.71246
 Alpha virt. eigenvalues --    0.79211   0.79713   0.80470   0.81378   0.83005

 Mulliken charges:
               1
     1  O   -0.504537
     2  H    0.249904
     3  H    0.254808
     4  O   -0.504169
     5  H    0.248238
     6  H    0.255757
 Sum of Mulliken charges =  -0.00000

 Dipole moment (field-independent basis, Debye):
    X=             -1.5456    Y=             -0.7930    Z=              0.0000  Tot=              1.7371
 Quadrupole moment (field-independent basis, Debye-Ang):
   XX=             -9.1008   YY=              4.0913   ZZ=            -14.7115
   XY=             -2.8428   XZ=              0.0000   YZ=              0.0000

 Normal termination of Gaussian 16 at Fri Aug 26 16:53:20 2022.
