 Gaussian 16, Revision A.03,
 Gaussian 16:  ES64L-G16RevA.03 25-Dec-2016

 ------------------
 #p CCSD(T)/cc-pVTZ
 ------------------

 -----------
 H2O_H2O_366
 -----------
 Symbolic Z-matrix:
 Charge =  0 Multiplicity = 1

                         Standard orientation:
 ---------------------------------------------------------------------
 Center     Atomic      Atomic             Coordinates (Angstroms)
 Number     Number       Type             X           Y           Z
 ---------------------------------------------------------------------
      1          8           0        0.049584   -0.958950    0.000000
      2          1           0       -0.752443   -1.526628    0.000000
      3          1           0        0.846685   -1.533525    0.000000
      4          8           0        0.049584    1.015636    0.000000
      5          1           0       -0.041026    1.994051    0.000000
      6          1           0       -0.846562    0.612613    0.000000
 ---------------------------------------------------------------------

 SCF Done:  E(RHF) =  -152.051709264     A.U. after   10 cycles
 E2 =    -0.5364217984D+00 EUMP2 =    -0.15258813106194D+03
 CCSD(T)
 CCSD(T)= -0.15261479440D+03

 The electronic state is 1-A'.
 Alpha  occ. eigenvalues --  -20.53979 -20.51502  -1.34136  -1.28354  -0.71459
 Alpha  occ. eigenvalues --   -0.68667  -0.56514  -0.50847  -0.47241  -0.45159
 Alpha virt. eigenvalues --    0.13851   0.18455   0.19820   0.24291   0.52332
 Alpha virt. eigenvalues --    0.56924   0.59546   0.63734   0.72274   0.75910
 Alpha virt. eigenvalues --    0.80240   0.82594   0.83467   0.84340   0.88236

 Mulliken charges:
               1
     1  O   -0.415536
     2  H    0.199297
     3  H    0.225573
     4  O   -0.421322
     5  H    0.169918
     6  H    0.242070
 Sum of Mulliken charges =  -0.00000

 Dipole moment (field-independent basis, Debye):
    X=             -1.4213    Y=             -1.1875    Z=              0.0000  Tot=              1.8520
 Quadrupole moment (field-independent basis, Debye-Ang):
   XX=             -9.4785   YY=             -6.2001   ZZ=            -14.6942
   XY=             -1.1227   XZ=              0.0000   YZ=              0.0000

 Normal termination of Gaussian 16 at Fri Aug 26 15:42:14 2022.
