 Gaussian 16, Revision A.03,
 Gaussian 16:  ES64L-G16RevA.03 25-Dec-2016

 ------------------
 #p CCSD(T)/cc-pVTZ
 ------------------

 ------------
 H2O_H2O_4121
 ------------
 Symbolic Z-matrix:
 Charge =  0 Multiplicity = 1

                         Standard orientation:
 ---------------------------------------------------------------------
 Center     Atomic      Atomic             Coordinates (Angstroms)
 Number     Number       Type             X           Y           Z
 ---------------------------------------------------------------------
      1          8           0        0.056090   -2.934294    0.000000
      2          1           0       -0.744404   -3.504132    0.000000
      3          1           0        0.854736   -3.506719    0.000000
      4          8           0        0.056090    3.026055    0.000000
      5          1           0       -0.346629    3.922338    0.000000
      6          1           0       -0.661145    2.354429    0.000000
 ---------------------------------------------------------------------

 SCF Done:  E(RHF) =  -152.107559529     A.U. after   10 cycles
 E2 =    -0.5258739053D+00 EUMP2 =    -0.15263343343460D+03
 CCSD(T)
 CCSD(T)= -0.15266064972D+03

 The electronic state is 1-A'.
 Alpha  occ. eigenvalues --  -20.55681 -20.55079  -1.32980  -1.32378  -0.70386
 Alpha  occ. eigenvalues --   -0.69775  -0.56435  -0.55827  -0.50093  -0.49492
 Alpha virt. eigenvalues --    0.13959   0.14641   0.20085   0.20746   0.54170
 Alpha virt. eigenvalues --    0.54795   0.57105   0.57701   0.67644   0.68463
 Alpha virt. eigenvalues --    0.78788   0.79377   0.80214   0.80792   0.82246

 Mulliken charges:
               1
     1  O   -0.509800
     2  H    0.253482
     3  H    0.256327
     4  O   -0.509394
     5  H    0.251835
     6  H    0.257550
 Sum of Mulliken charges =   0.00000

 Dipole moment (field-independent basis, Debye):
    X=             -1.9263    Y=             -1.6077    Z=              0.0000  Tot=              2.5090
 Quadrupole moment (field-independent basis, Debye-Ang):
   XX=             -9.7839   YY=              4.0842   ZZ=            -14.7125
   XY=             -5.6100   XZ=              0.0000   YZ=              0.0000

 Normal termination of Gaussian 16 at Sat Aug 27 05:29:45 2022.
