 Gaussian 16, Revision A.03,
 Gaussian 16:  ES64L-G16RevA.03 25-Dec-2016

 ------------------
 #p CCSD(T)/cc-pVTZ
 ------------------

 ------------
 H2O_H2O_4777
 ------------
 Symbolic Z-matrix:
 Charge =  0 Multiplicity = 1

                         Standard orientation:
 ---------------------------------------------------------------------
 Center     Atomic      Atomic             Coordinates (Angstroms)
 Number     Number       Type             X           Y           Z
 ---------------------------------------------------------------------
      1          8           0        0.007455   -3.342588    0.000000
      2          1           0       -0.792226   -3.913567    0.000000
      3          1           0        0.806916   -3.913874    0.000000
      4          8           0        0.007455    3.343563    0.000000
      5          1           0        0.725767    4.014036    0.000000
      6          1           0       -0.859735    3.805610    0.000000
 ---------------------------------------------------------------------

 SCF Done:  E(RHF) =  -152.106924719     A.U. after   10 cycles
 E2 =    -0.5259173046D+00 EUMP2 =    -0.15263284202392D+03
 CCSD(T)
 CCSD(T)= -0.15266007269D+03

 The electronic state is 1-A'.
 Alpha  occ. eigenvalues --  -20.55242 -20.55237  -1.32538  -1.32533  -0.69945
 Alpha  occ. eigenvalues --   -0.69940  -0.55963  -0.55958  -0.49646  -0.49641
 Alpha virt. eigenvalues --    0.14393   0.14404   0.20444   0.20452   0.54623
 Alpha virt. eigenvalues --    0.54629   0.57498   0.57504   0.68258   0.68275
 Alpha virt. eigenvalues --    0.79233   0.79238   0.80675   0.80681   0.82601

 Mulliken charges:
               1
     1  O   -0.506011
     2  H    0.252862
     3  H    0.253150
     4  O   -0.506007
     5  H    0.252799
     6  H    0.253208
 Sum of Mulliken charges =  -0.00000

 Dipole moment (field-independent basis, Debye):
    X=             -0.2563    Y=             -0.0170    Z=              0.0000  Tot=              0.2569
 Quadrupole moment (field-independent basis, Debye-Ang):
   XX=             -7.8362   YY=             14.6288   ZZ=            -14.7108
   XY=             -0.6246   XZ=              0.0000   YZ=              0.0000

 Normal termination of Gaussian 16 at Sat Aug 27 09:16:51 2022.
