 Gaussian 16, Revision A.03,
 Gaussian 16:  ES64L-G16RevA.03 25-Dec-2016

 ------------------
 #p CCSD(T)/cc-pVTZ
 ------------------

 ------------
 H2O_H2O_2493
 ------------
 Symbolic Z-matrix:
 Charge =  0 Multiplicity = 1

                         Standard orientation:
 ---------------------------------------------------------------------
 Center     Atomic      Atomic             Coordinates (Angstroms)
 Number     Number       Type             X           Y           Z
 ---------------------------------------------------------------------
      1          8           0        0.052841   -2.081720    0.000000
      2          1           0       -0.747953   -2.651135    0.000000
      3          1           0        0.851185   -2.654567    0.000000
      4          8           0        0.052841    2.152008    0.000000
      5          1           0       -0.166778    3.109751    0.000000
      6          1           0       -0.781913    1.633653    0.000000
 ---------------------------------------------------------------------

 SCF Done:  E(RHF) =  -152.107335088     A.U. after   10 cycles
 E2 =    -0.5260982264D+00 EUMP2 =    -0.15263343331438D+03
 CCSD(T)
 CCSD(T)= -0.15266063372D+03

 The electronic state is 1-A'.
 Alpha  occ. eigenvalues --  -20.55543 -20.54544  -1.32828  -1.31833  -0.70238
 Alpha  occ. eigenvalues --   -0.69213  -0.56257  -0.55264  -0.49939  -0.48950
 Alpha virt. eigenvalues --    0.13406   0.15674   0.20086   0.21735   0.54010
 Alpha virt. eigenvalues --    0.54715   0.57266   0.58204   0.65815   0.73452
 Alpha virt. eigenvalues --    0.78906   0.79743   0.79948   0.82114   0.82580

 Mulliken charges:
               1
     1  O   -0.505009
     2  H    0.249540
     3  H    0.256581
     4  O   -0.506730
     5  H    0.246794
     6  H    0.258823
 Sum of Mulliken charges =  -0.00000

 Dipole moment (field-independent basis, Debye):
    X=             -1.7924    Y=             -1.2711    Z=              0.0000  Tot=              2.1973
 Quadrupole moment (field-independent basis, Debye-Ang):
   XX=             -9.5606   YY=              1.3195   ZZ=            -14.7136
   XY=             -3.3835   XZ=              0.0000   YZ=              0.0000

 Normal termination of Gaussian 16 at Sat Aug 27 10:51:43 2022.
