 Gaussian 16, Revision A.03,
 Gaussian 16:  ES64L-G16RevA.03 25-Dec-2016

 ------------------
 #p CCSD(T)/cc-pVTZ
 ------------------

 -----------
 H2O_H2O_343
 -----------
 Symbolic Z-matrix:
 Charge =  0 Multiplicity = 1

                         Standard orientation:
 ---------------------------------------------------------------------
 Center     Atomic      Atomic             Coordinates (Angstroms)
 Number     Number       Type             X           Y           Z
 ---------------------------------------------------------------------
      1          8           0        0.052930   -0.938411    0.000000
      2          1           0       -0.749298   -1.505805    0.000000
      3          1           0        0.849827   -1.513268    0.000000
      4          8           0        0.052930    1.008431    0.000000
      5          1           0       -0.164275    1.966726    0.000000
      6          1           0       -0.783129    0.492183    0.000000
 ---------------------------------------------------------------------

 SCF Done:  E(RHF) =  -152.043238037     A.U. after   11 cycles
 E2 =    -0.5377690481D+00 EUMP2 =    -0.15258100708471D+03
 CCSD(T)
 CCSD(T)= -0.15260747794D+03

 The electronic state is 1-A'.
 Alpha  occ. eigenvalues --  -20.54566 -20.50971  -1.35143  -1.27997  -0.72629
 Alpha  occ. eigenvalues --   -0.69351  -0.55031  -0.51564  -0.47755  -0.44877
 Alpha virt. eigenvalues --    0.13608   0.18720   0.19615   0.24866   0.51478
 Alpha virt. eigenvalues --    0.56271   0.60594   0.64463   0.72474   0.75743
 Alpha virt. eigenvalues --    0.80123   0.81752   0.84028   0.84471   0.88153

 Mulliken charges:
               1
     1  O   -0.398443
     2  H    0.193690
     3  H    0.226181
     4  O   -0.437325
     5  H    0.168431
     6  H    0.247466
 Sum of Mulliken charges =  -0.00000

 Dipole moment (field-independent basis, Debye):
    X=             -1.5060    Y=             -1.5164    Z=              0.0000  Tot=              2.1372
 Quadrupole moment (field-independent basis, Debye-Ang):
   XX=             -9.6523   YY=             -6.5787   ZZ=            -14.6727
   XY=             -1.3710   XZ=              0.0000   YZ=              0.0000

 Normal termination of Gaussian 16 at Fri Aug 26 15:29:17 2022.
