 Gaussian 16, Revision A.03,
 Gaussian 16:  ES64L-G16RevA.03 25-Dec-2016

 ------------------
 #p CCSD(T)/cc-pVTZ
 ------------------

 ------------
 H2O_H2O_2322
 ------------
 Symbolic Z-matrix:
 Charge =  0 Multiplicity = 1

                         Standard orientation:
 ---------------------------------------------------------------------
 Center     Atomic      Atomic             Coordinates (Angstroms)
 Number     Number       Type             X           Y           Z
 ---------------------------------------------------------------------
      1          8           0        0.056744   -1.973032    0.000000
      2          1           0       -0.744201   -2.542235    0.000000
      3          1           0        0.854936   -2.546089    0.000000
      4          8           0        0.056744    2.072076    0.000000
      5          1           0       -0.403045    2.940464    0.000000
      6          1           0       -0.615596    1.355510    0.000000
 ---------------------------------------------------------------------

 SCF Done:  E(RHF) =  -152.108409067     A.U. after   10 cycles
 E2 =    -0.5261486824D+00 EUMP2 =    -0.15263455774954D+03
 CCSD(T)
 CCSD(T)= -0.15266172329D+03

 The electronic state is 1-A'.
 Alpha  occ. eigenvalues --  -20.55972 -20.54354  -1.33247  -1.31652  -0.70654
 Alpha  occ. eigenvalues --   -0.69022  -0.56714  -0.55114  -0.50366  -0.48778
 Alpha virt. eigenvalues --    0.13041   0.15990   0.19861   0.22652   0.53977
 Alpha virt. eigenvalues --    0.54776   0.56922   0.58532   0.66226   0.73388
 Alpha virt. eigenvalues --    0.78436   0.79292   0.80132   0.81188   0.82583

 Mulliken charges:
               1
     1  O   -0.505768
     2  H    0.250421
     3  H    0.258292
     4  O   -0.511965
     5  H    0.246644
     6  H    0.262376
 Sum of Mulliken charges =   0.00000

 Dipole moment (field-independent basis, Debye):
    X=             -1.9196    Y=             -1.8143    Z=              0.0000  Tot=              2.6413
 Quadrupole moment (field-independent basis, Debye-Ang):
   XX=             -9.8255   YY=             -0.9902   ZZ=            -14.7167
   XY=             -3.9656   XZ=              0.0000   YZ=              0.0000

 Normal termination of Gaussian 16 at Sat Aug 27 09:51:49 2022.
