 Gaussian 16, Revision A.03,
 Gaussian 16:  ES64L-G16RevA.03 25-Dec-2016

 ------------------
 #p CCSD(T)/cc-pVTZ
 ------------------

 -----------
 H2O_H2O_276
 -----------
 Symbolic Z-matrix:
 Charge =  0 Multiplicity = 1

                         Standard orientation:
 ---------------------------------------------------------------------
 Center     Atomic      Atomic             Coordinates (Angstroms)
 Number     Number       Type             X           Y           Z
 ---------------------------------------------------------------------
      1          8           0        0.003735   -0.949722    0.000000
      2          1           0       -0.796029   -1.520584    0.000000
      3          1           0        0.803113   -1.521125    0.000000
      4          8           0        0.003735    0.949965    0.000000
      5          1           0        0.764452    1.571910    0.000000
      6          1           0       -0.831302    1.467861    0.000000
 ---------------------------------------------------------------------

 SCF Done:  E(RHF) =  -152.027442413     A.U. after   11 cycles
 E2 =    -0.5381441312D+00 EUMP2 =    -0.15256558654428D+03
 CCSD(T)
 CCSD(T)= -0.15259206069D+03

 The electronic state is 1-A'.
 Alpha  occ. eigenvalues --  -20.51458 -20.51451  -1.32600  -1.28010  -0.68779
 Alpha  occ. eigenvalues --   -0.66072  -0.62715  -0.49688  -0.44350  -0.41092
 Alpha virt. eigenvalues --    0.14678   0.18759   0.20368   0.22900   0.50297
 Alpha virt. eigenvalues --    0.59214   0.59280   0.66908   0.68992   0.78635
 Alpha virt. eigenvalues --    0.79853   0.83465   0.84494   0.86601   0.87454

 Mulliken charges:
               1
     1  O   -0.412940
     2  H    0.205120
     3  H    0.207761
     4  O   -0.412118
     5  H    0.201291
     6  H    0.210886
 Sum of Mulliken charges =  -0.00000

 Dipole moment (field-independent basis, Debye):
    X=             -0.1078    Y=             -0.0055    Z=              0.0000  Tot=              0.1080
 Quadrupole moment (field-independent basis, Debye-Ang):
   XX=             -8.2322   YY=             -6.5126   ZZ=            -14.7569
   XY=             -0.0345   XZ=              0.0000   YZ=              0.0000

 Normal termination of Gaussian 16 at Fri Aug 26 14:47:04 2022.
