 Gaussian 16, Revision A.03,
 Gaussian 16:  ES64L-G16RevA.03 25-Dec-2016

 ------------------
 #p CCSD(T)/cc-pVTZ
 ------------------

 -----------
 H2O_H2O_634
 -----------
 Symbolic Z-matrix:
 Charge =  0 Multiplicity = 1

                         Standard orientation:
 ---------------------------------------------------------------------
 Center     Atomic      Atomic             Coordinates (Angstroms)
 Number     Number       Type             X           Y           Z
 ---------------------------------------------------------------------
      1          8           0        0.031753   -1.125622    0.000000
      2          1           0       -0.769189   -1.694829    0.000000
      3          1           0        0.829948   -1.698677    0.000000
      4          8           0        0.031753    1.144720    0.000000
      5          1           0        0.381479    2.062978    0.000000
      6          1           0       -0.950293    1.177744    0.000000
 ---------------------------------------------------------------------

 SCF Done:  E(RHF) =  -152.083811372     A.U. after   11 cycles
 E2 =    -0.5310242783D+00 EUMP2 =    -0.15261483565025D+03
 CCSD(T)
 CCSD(T)= -0.15264199977D+03

 The electronic state is 1-A'.
 Alpha  occ. eigenvalues --  -20.53212 -20.52588  -1.31584  -1.29635  -0.68775
 Alpha  occ. eigenvalues --   -0.67491  -0.57875  -0.48858  -0.48717  -0.46335
 Alpha virt. eigenvalues --    0.14366   0.17695   0.20391   0.22990   0.52295
 Alpha virt. eigenvalues --    0.58346   0.58492   0.62974   0.70625   0.76400
 Alpha virt. eigenvalues --    0.77678   0.80999   0.83827   0.86159   0.87421

 Mulliken charges:
               1
     1  O   -0.459142
     2  H    0.220632
     3  H    0.236803
     4  O   -0.437489
     5  H    0.201878
     6  H    0.237318
 Sum of Mulliken charges =  -0.00000

 Dipole moment (field-independent basis, Debye):
    X=             -0.9639    Y=             -0.3782    Z=              0.0000  Tot=              1.0355
 Quadrupole moment (field-independent basis, Debye-Ang):
   XX=             -8.6271   YY=             -4.1620   ZZ=            -14.7316
   XY=             -0.5213   XZ=              0.0000   YZ=              0.0000

 099\MP4DQ=-152.6230234\MP4SDQ=-152.6263526\CCSD=-152.6256631\CCSD(T)=-
 Normal termination of Gaussian 16 at Fri Aug 26 18:31:09 2022.
