 Gaussian 16, Revision A.03,
 Gaussian 16:  ES64L-G16RevA.03 25-Dec-2016

 ------------------
 #p CCSD(T)/cc-pVTZ
 ------------------

 -----------
 H2O_H2O_845
 -----------
 Symbolic Z-matrix:
 Charge =  0 Multiplicity = 1

                         Standard orientation:
 ---------------------------------------------------------------------
 Center     Atomic      Atomic             Coordinates (Angstroms)
 Number     Number       Type             X           Y           Z
 ---------------------------------------------------------------------
      1          8           0        0.055329   -1.196610    0.000000
      2          1           0       -0.746426   -1.764672    0.000000
      3          1           0        0.852705   -1.770803    0.000000
      4          8           0        0.055329    1.280849    0.000000
      5          1           0       -0.285868    2.202309    0.000000
      6          1           0       -0.705675    0.659254    0.000000
 ---------------------------------------------------------------------

 SCF Done:  E(RHF) =  -152.099317825     A.U. after   11 cycles
 E2 =    -0.5299733350D+00 EUMP2 =    -0.15262929116040D+03
 CCSD(T)
 CCSD(T)= -0.15265631026D+03

 The electronic state is 1-A'.
 Alpha  occ. eigenvalues --  -20.55928 -20.52313  -1.33719  -1.29660  -0.71099
 Alpha  occ. eigenvalues --   -0.68144  -0.55977  -0.52978  -0.50765  -0.46705
 Alpha virt. eigenvalues --    0.13324   0.17954   0.19652   0.25145   0.51655
 Alpha virt. eigenvalues --    0.56636   0.59883   0.60515   0.71385   0.74076
 Alpha virt. eigenvalues --    0.76766   0.82817   0.83229   0.84161   0.85808

 Mulliken charges:
               1
     1  O   -0.463876
     2  H    0.231270
     3  H    0.249894
     4  O   -0.492056
     5  H    0.216434
     6  H    0.258335
 Sum of Mulliken charges =  -0.00000

 Dipole moment (field-independent basis, Debye):
    X=             -1.7266    Y=             -1.7374    Z=              0.0000  Tot=              2.4495
 Quadrupole moment (field-independent basis, Debye-Ang):
   XX=             -9.7516   YY=             -4.5345   ZZ=            -14.7208
   XY=             -2.1847   XZ=              0.0000   YZ=              0.0000

 Normal termination of Gaussian 16 at Fri Aug 26 20:31:04 2022.
