 Gaussian 16, Revision A.03,
 Gaussian 16:  ES64L-G16RevA.03 25-Dec-2016

 ------------------
 #p CCSD(T)/cc-pVTZ
 ------------------

 -----------
 H2O_H2O_293
 -----------
 Symbolic Z-matrix:
 Charge =  0 Multiplicity = 1

                         Standard orientation:
 ---------------------------------------------------------------------
 Center     Atomic      Atomic             Coordinates (Angstroms)
 Number     Number       Type             X           Y           Z
 ---------------------------------------------------------------------
      1          8           0        0.052934   -0.911827    0.000000
      2          1           0       -0.749368   -1.479116    0.000000
      3          1           0        0.849756   -1.486788    0.000000
      4          8           0        0.052934    0.981833    0.000000
      5          1           0       -0.164145    1.940156    0.000000
      6          1           0       -0.783192    0.465694    0.000000
 ---------------------------------------------------------------------

 SCF Done:  E(RHF) =  -152.029639441     A.U. after   11 cycles
 E2 =    -0.5393433303D+00 EUMP2 =    -0.15256898277113D+03
 CCSD(T)
 CCSD(T)= -0.15259528380D+03

 The electronic state is 1-A'.
 Alpha  occ. eigenvalues --  -20.54463 -20.50773  -1.35690  -1.27708  -0.73189
 Alpha  occ. eigenvalues --   -0.69613  -0.54900  -0.51905  -0.46747  -0.44592
 Alpha virt. eigenvalues --    0.13602   0.18829   0.19585   0.24876   0.51407
 Alpha virt. eigenvalues --    0.56125   0.60649   0.64936   0.72644   0.76014
 Alpha virt. eigenvalues --    0.80357   0.81379   0.84019   0.84485   0.88264

 Mulliken charges:
               1
     1  O   -0.386766
     2  H    0.187446
     3  H    0.222766
     4  O   -0.431514
     5  H    0.160825
     6  H    0.247243
 Sum of Mulliken charges =  -0.00000

 Dipole moment (field-independent basis, Debye):
    X=             -1.4852    Y=             -1.5340    Z=              0.0000  Tot=              2.1352
 Quadrupole moment (field-independent basis, Debye-Ang):
   XX=             -9.6581   YY=             -6.9106   ZZ=            -14.6602
   XY=             -1.3177   XZ=              0.0000   YZ=              0.0000

 Normal termination of Gaussian 16 at Fri Aug 26 14:56:29 2022.
