 Gaussian 16, Revision A.03,
 Gaussian 16:  ES64L-G16RevA.03 25-Dec-2016

 ------------------
 #p CCSD(T)/cc-pVTZ
 ------------------

 ------------
 H2O_H2O_2554
 ------------
 Symbolic Z-matrix:
 Charge =  0 Multiplicity = 1

                         Standard orientation:
 ---------------------------------------------------------------------
 Center     Atomic      Atomic             Coordinates (Angstroms)
 Number     Number       Type             X           Y           Z
 ---------------------------------------------------------------------
      1          8           0        0.014783   -2.157677    0.000000
      2          1           0       -0.785124   -2.728338    0.000000
      3          1           0        0.814017   -2.729280    0.000000
      4          8           0        0.014783    2.161552    0.000000
      5          1           0        0.639737    2.919799    0.000000
      6          1           0       -0.905161    2.506820    0.000000
 ---------------------------------------------------------------------

 SCF Done:  E(RHF) =  -152.105606944     A.U. after   10 cycles
 E2 =    -0.5261547354D+00 EUMP2 =    -0.15263176167961D+03
 CCSD(T)
 CCSD(T)= -0.15265900988D+03

 The electronic state is 1-A'.
 Alpha  occ. eigenvalues --  -20.54741 -20.54692  -1.32029  -1.31980  -0.69443
 Alpha  occ. eigenvalues --   -0.69391  -0.55447  -0.55267  -0.49131  -0.49077
 Alpha virt. eigenvalues --    0.14258   0.15332   0.20608   0.20973   0.54628
 Alpha virt. eigenvalues --    0.55608   0.57827   0.58010   0.64534   0.72976
 Alpha virt. eigenvalues --    0.79600   0.79932   0.81132   0.81231   0.82061

 Mulliken charges:
               1
     1  O   -0.497904
     2  H    0.248002
     3  H    0.249923
     4  O   -0.497776
     5  H    0.247695
     6  H    0.250060
 Sum of Mulliken charges =  -0.00000

 Dipole moment (field-independent basis, Debye):
    X=             -0.5020    Y=             -0.0693    Z=              0.0000  Tot=              0.5067
 Quadrupole moment (field-independent basis, Debye-Ang):
   XX=             -7.9626   YY=              5.0072   ZZ=            -14.7096
   XY=             -0.6597   XZ=              0.0000   YZ=              0.0000

 Normal termination of Gaussian 16 at Fri Aug 26 13:40:33 2022.
