 Gaussian 16, Revision A.03,
 Gaussian 16:  ES64L-G16RevA.03 25-Dec-2016

 ------------------
 #p CCSD(T)/cc-pVTZ
 ------------------

 ------------
 H2O_H2O_1258
 ------------
 Symbolic Z-matrix:
 Charge =  0 Multiplicity = 1

                         Standard orientation:
 ---------------------------------------------------------------------
 Center     Atomic      Atomic             Coordinates (Angstroms)
 Number     Number       Type             X           Y           Z
 ---------------------------------------------------------------------
      1          8           0        0.028569   -1.460134    0.000000
      2          1           0       -0.771957   -2.029926    0.000000
      3          1           0        0.827183   -2.032604    0.000000
      4          8           0        0.028569    1.475341    0.000000
      5          1           0        0.436951    2.369060    0.000000
      6          1           0       -0.949285    1.571808    0.000000
 ---------------------------------------------------------------------

 SCF Done:  E(RHF) =  -152.101751749     A.U. after   11 cycles
 E2 =    -0.5275429696D+00 EUMP2 =    -0.15262929471871D+03
 CCSD(T)
 CCSD(T)= -0.15265656821D+03

 The electronic state is 1-A'.
 Alpha  occ. eigenvalues --  -20.54114 -20.53724  -1.31478  -1.30972  -0.68896
 Alpha  occ. eigenvalues --   -0.68415  -0.55779  -0.53010  -0.48655  -0.47960
 Alpha virt. eigenvalues --    0.14212   0.16799   0.20457   0.22166   0.52392
 Alpha virt. eigenvalues --    0.58261   0.58496   0.59397   0.67198   0.76558
 Alpha virt. eigenvalues --    0.77378   0.78239   0.79760   0.82829   0.85905

 Mulliken charges:
               1
     1  O   -0.475379
     2  H    0.233036
     3  H    0.242716
     4  O   -0.470504
     5  H    0.229462
     6  H    0.240669
 Sum of Mulliken charges =  -0.00000

 Dipole moment (field-independent basis, Debye):
    X=             -0.9289    Y=             -0.2888    Z=              0.0000  Tot=              0.9727
 Quadrupole moment (field-independent basis, Debye-Ang):
   XX=             -8.4030   YY=             -0.9899   ZZ=            -14.7131
   XY=             -0.7236   XZ=              0.0000   YZ=              0.0000

 Normal termination of Gaussian 16 at Sat Aug 27 03:25:39 2022.
