 Gaussian 16, Revision A.03,
 Gaussian 16:  ES64L-G16RevA.03 25-Dec-2016

 ------------------
 #p CCSD(T)/cc-pVTZ
 ------------------

 ------------
 H2O_H2O_4976
 ------------
 Symbolic Z-matrix:
 Charge =  0 Multiplicity = 1

                         Standard orientation:
 ---------------------------------------------------------------------
 Center     Atomic      Atomic             Coordinates (Angstroms)
 Number     Number       Type             X           Y           Z
 ---------------------------------------------------------------------
      1          8           0        0.003735   -3.449353    0.000000
      2          1           0       -0.795889   -4.020410    0.000000
      3          1           0        0.803253   -4.020559    0.000000
      4          8           0        0.003735    3.449596    0.000000
      5          1           0        0.764299    4.071729    0.000000
      6          1           0       -0.831429    3.967289    0.000000
 ---------------------------------------------------------------------

 SCF Done:  E(RHF) =  -152.106971002     A.U. after   10 cycles
 E2 =    -0.5259116015D+00 EUMP2 =    -0.15263288260318D+03
 CCSD(T)
 CCSD(T)= -0.15266011239D+03

 The electronic state is 1-A'.
 Alpha  occ. eigenvalues --  -20.55263 -20.55262  -1.32560  -1.32559  -0.69967
 Alpha  occ. eigenvalues --   -0.69965  -0.55987  -0.55986  -0.49668  -0.49667
 Alpha virt. eigenvalues --    0.14376   0.14381   0.20429   0.20432   0.54601
 Alpha virt. eigenvalues --    0.54603   0.57480   0.57482   0.68233   0.68241
 Alpha virt. eigenvalues --    0.79211   0.79212   0.80652   0.80654   0.82577

 Mulliken charges:
               1
     1  O   -0.506283
     2  H    0.253076
     3  H    0.253208
     4  O   -0.506283
     5  H    0.253047
     6  H    0.253235
 Sum of Mulliken charges =  -0.00000

 Dipole moment (field-independent basis, Debye):
    X=             -0.1285    Y=             -0.0042    Z=              0.0000  Tot=              0.1286
 Quadrupole moment (field-independent basis, Debye-Ang):
   XX=             -7.8091   YY=             15.5374   ZZ=            -14.7109
   XY=             -0.3257   XZ=              0.0000   YZ=              0.0000

 Normal termination of Gaussian 16 at Sat Aug 27 10:26:12 2022.
