 Gaussian 16, Revision A.03,
 Gaussian 16:  ES64L-G16RevA.03 25-Dec-2016

 ------------------
 #p CCSD(T)/cc-pVTZ
 ------------------

 -----------
 H2O_H2O_279
 -----------
 Symbolic Z-matrix:
 Charge =  0 Multiplicity = 1

                         Standard orientation:
 ---------------------------------------------------------------------
 Center     Atomic      Atomic             Coordinates (Angstroms)
 Number     Number       Type             X           Y           Z
 ---------------------------------------------------------------------
      1          8           0        0.014785   -0.947761    0.000000
      2          1           0       -0.785551   -1.517821    0.000000
      3          1           0        0.813590   -1.519964    0.000000
      4          8           0        0.014785    0.951614    0.000000
      5          1           0        0.640308    1.709391    0.000000
      6          1           0       -0.904900    1.297572    0.000000
 ---------------------------------------------------------------------

 SCF Done:  E(RHF) =  -152.028925409     A.U. after   11 cycles
 E2 =    -0.5380594486D+00 EUMP2 =    -0.15256698485797D+03
 CCSD(T)
 CCSD(T)= -0.15259346219D+03

 The electronic state is 1-A'.
 Alpha  occ. eigenvalues --  -20.51618 -20.51502  -1.32709  -1.28038  -0.68980
 Alpha  occ. eigenvalues --   -0.66364  -0.62253  -0.49777  -0.44408  -0.41407
 Alpha virt. eigenvalues --    0.14630   0.18654   0.20334   0.23003   0.50875
 Alpha virt. eigenvalues --    0.58912   0.59103   0.66407   0.69160   0.78454
 Alpha virt. eigenvalues --    0.79456   0.83363   0.84284   0.86514   0.87653

 Mulliken charges:
               1
     1  O   -0.417500
     2  H    0.203101
     3  H    0.213571
     4  O   -0.406032
     5  H    0.185354
     6  H    0.221506
 Sum of Mulliken charges =  -0.00000

 Dipole moment (field-independent basis, Debye):
    X=             -0.4254    Y=             -0.0863    Z=              0.0000  Tot=              0.4341
 Quadrupole moment (field-independent basis, Debye-Ang):
   XX=             -8.3354   YY=             -6.4992   ZZ=            -14.7513
   XY=             -0.1449   XZ=              0.0000   YZ=              0.0000

 Normal termination of Gaussian 16 at Fri Aug 26 14:48:40 2022.
