 Gaussian 16, Revision A.03,
 Gaussian 16:  ES64L-G16RevA.03 25-Dec-2016

 ------------------
 #p CCSD(T)/cc-pVTZ
 ------------------

 -----------
 H2O_H2O_285
 -----------
 Symbolic Z-matrix:
 Charge =  0 Multiplicity = 1

                         Standard orientation:
 ---------------------------------------------------------------------
 Center     Atomic      Atomic             Coordinates (Angstroms)
 Number     Number       Type             X           Y           Z
 ---------------------------------------------------------------------
      1          8           0        0.034805   -0.937150    0.000000
      2          1           0       -0.766563   -1.505757    0.000000
      3          1           0        0.832571   -1.510801    0.000000
      4          8           0        0.034805    0.960535    0.000000
      5          1           0        0.324429    1.899483    0.000000
      6          1           0       -0.947322    0.929994    0.000000
 ---------------------------------------------------------------------

 SCF Done:  E(RHF) =  -152.034437752     A.U. after   11 cycles
 E2 =    -0.5378365390D+00 EUMP2 =    -0.15257227429143D+03
 CCSD(T)
 CCSD(T)= -0.15259878237D+03

 The electronic state is 1-A'.
 Alpha  occ. eigenvalues --  -20.52420 -20.51652  -1.33356  -1.28117  -0.70067
 Alpha  occ. eigenvalues --   -0.67480  -0.60125  -0.50273  -0.44651  -0.43073
 Alpha virt. eigenvalues --    0.14358   0.18410   0.20131   0.23448   0.53144
 Alpha virt. eigenvalues --    0.57170   0.58589   0.64605   0.71207   0.77479
 Alpha virt. eigenvalues --    0.79446   0.82330   0.83538   0.85608   0.88355

 Mulliken charges:
               1
     1  O   -0.423195
     2  H    0.200698
     3  H    0.220278
     4  O   -0.392110
     5  H    0.162747
     6  H    0.231583
 Sum of Mulliken charges =  -0.00000

 Dipole moment (field-independent basis, Debye):
    X=             -0.9886    Y=             -0.4993    Z=              0.0000  Tot=              1.1075
 Quadrupole moment (field-independent basis, Debye-Ang):
   XX=             -8.8446   YY=             -6.4796   ZZ=            -14.7237
   XY=             -0.4683   XZ=              0.0000   YZ=              0.0000

 7224\MP4DQ=-152.5788864\MP4SDQ=-152.5825334\CCSD=-152.581682\CCSD(T)=-
 Normal termination of Gaussian 16 at Fri Aug 26 14:51:45 2022.
