 Gaussian 16, Revision A.03,
 Gaussian 16:  ES64L-G16RevA.03 25-Dec-2016

 ------------------
 #p CCSD(T)/cc-pVTZ
 ------------------

 -----------
 H2O_H2O_309
 -----------
 Symbolic Z-matrix:
 Charge =  0 Multiplicity = 1

                         Standard orientation:
 ---------------------------------------------------------------------
 Center     Atomic      Atomic             Coordinates (Angstroms)
 Number     Number       Type             X           Y           Z
 ---------------------------------------------------------------------
      1          8           0        0.031758   -0.952790    0.000000
      2          1           0       -0.769431   -1.521650    0.000000
      3          1           0        0.829704   -1.526189    0.000000
      4          8           0        0.031758    0.971861    0.000000
      5          1           0        0.381880    1.889967    0.000000
      6          1           0       -0.950274    1.005308    0.000000
 ---------------------------------------------------------------------

 SCF Done:  E(RHF) =  -152.039660139     A.U. after   11 cycles
 E2 =    -0.5370806522D+00 EUMP2 =    -0.15257674079094D+03
 CCSD(T)
 CCSD(T)= -0.15260333357D+03

 The electronic state is 1-A'.
 Alpha  occ. eigenvalues --  -20.52317 -20.51703  -1.32982  -1.28243  -0.69669
 Alpha  occ. eigenvalues --   -0.67226  -0.60361  -0.49991  -0.44752  -0.43300
 Alpha virt. eigenvalues --    0.14424   0.18361   0.20206   0.23333   0.52754
 Alpha virt. eigenvalues --    0.57537   0.58656   0.64733   0.70732   0.77573
 Alpha virt. eigenvalues --    0.79145   0.82470   0.83701   0.85890   0.88201

 Mulliken charges:
               1
     1  O   -0.428527
     2  H    0.203710
     3  H    0.222362
     4  O   -0.397503
     5  H    0.168698
     6  H    0.231260
 Sum of Mulliken charges =  -0.00000

 Dipole moment (field-independent basis, Debye):
    X=             -0.9086    Y=             -0.4060    Z=              0.0000  Tot=              0.9951
 Quadrupole moment (field-independent basis, Debye-Ang):
   XX=             -8.7290   YY=             -6.2786   ZZ=            -14.7310
   XY=             -0.4040   XZ=              0.0000   YZ=              0.0000

 Normal termination of Gaussian 16 at Fri Aug 26 15:07:56 2022.
