 Gaussian 16, Revision A.03,
 Gaussian 16:  ES64L-G16RevA.03 25-Dec-2016

 ------------------
 #p CCSD(T)/cc-pVTZ
 ------------------

 ------------
 H2O_H2O_1760
 ------------
 Symbolic Z-matrix:
 Charge =  0 Multiplicity = 1

                         Standard orientation:
 ---------------------------------------------------------------------
 Center     Atomic      Atomic             Coordinates (Angstroms)
 Number     Number       Type             X           Y           Z
 ---------------------------------------------------------------------
      1          8           0        0.034789   -1.721557    0.000000
      2          1           0       -0.765767   -2.291307    0.000000
      3          1           0        0.833372   -2.294069    0.000000
      4          8           0        0.034789    1.745041    0.000000
      5          1           0        0.323071    2.684403    0.000000
      6          1           0       -0.947294    1.713099    0.000000
 ---------------------------------------------------------------------

 SCF Done:  E(RHF) =  -152.104915282     A.U. after   10 cycles
 E2 =    -0.5266720150D+00 EUMP2 =    -0.15263158729654D+03
 CCSD(T)
 CCSD(T)= -0.15265881735D+03

 The electronic state is 1-A'.
 Alpha  occ. eigenvalues --  -20.54679 -20.54201  -1.31959  -1.31466  -0.69382
 Alpha  occ. eigenvalues --   -0.68868  -0.55518  -0.54497  -0.49069  -0.48557
 Alpha virt. eigenvalues --    0.13949   0.16227   0.20403   0.21772   0.53093
 Alpha virt. eigenvalues --    0.56053   0.57911   0.58523   0.63301   0.76810
 Alpha virt. eigenvalues --    0.78711   0.78840   0.80143   0.81231   0.84548

 Mulliken charges:
               1
     1  O   -0.488028
     2  H    0.240576
     3  H    0.248433
     4  O   -0.488458
     5  H    0.238638
     6  H    0.248839
 Sum of Mulliken charges =  -0.00000

 Dipole moment (field-independent basis, Debye):
    X=             -1.1594    Y=             -0.4367    Z=              0.0000  Tot=              1.2389
 Quadrupole moment (field-independent basis, Debye-Ang):
   XX=             -8.6027   YY=              0.9529   ZZ=            -14.7110
   XY=             -1.2710   XZ=              0.0000   YZ=              0.0000

 Normal termination of Gaussian 16 at Sat Aug 27 06:38:13 2022.
