 Gaussian 16, Revision A.03,
 Gaussian 16:  ES64L-G16RevA.03 25-Dec-2016

 ------------------
 #p CCSD(T)/cc-pVTZ
 ------------------

 ------------
 H2O_H2O_3909
 ------------
 Symbolic Z-matrix:
 Charge =  0 Multiplicity = 1

                         Standard orientation:
 ---------------------------------------------------------------------
 Center     Atomic      Atomic             Coordinates (Angstroms)
 Number     Number       Type             X           Y           Z
 ---------------------------------------------------------------------
      1          8           0        0.031740   -2.867339    0.000000
      2          1           0       -0.768373   -3.437711    0.000000
      3          1           0        0.830768   -3.439229    0.000000
      4          8           0        0.031740    2.886529    0.000000
      5          1           0        0.380127    3.805296    0.000000
      6          1           0       -0.950354    2.918121    0.000000
 ---------------------------------------------------------------------

 SCF Done:  E(RHF) =  -152.106794515     A.U. after   10 cycles
 E2 =    -0.5259423403D+00 EUMP2 =    -0.15263273685511D+03
 CCSD(T)
 CCSD(T)= -0.15265996948D+03

 The electronic state is 1-A'.
 Alpha  occ. eigenvalues --  -20.55218 -20.55084  -1.32514  -1.32378  -0.69921
 Alpha  occ. eigenvalues --   -0.69783  -0.55932  -0.55797  -0.49620  -0.49486
 Alpha virt. eigenvalues --    0.14375   0.14573   0.20443   0.20600   0.54643
 Alpha virt. eigenvalues --    0.54798   0.57511   0.57649   0.68184   0.68566
 Alpha virt. eigenvalues --    0.79258   0.79391   0.80701   0.80849   0.82637

 Mulliken charges:
               1
     1  O   -0.505265
     2  H    0.251693
     3  H    0.253572
     4  O   -0.505112
     5  H    0.251184
     6  H    0.253928
 Sum of Mulliken charges =  -0.00000

 Dipole moment (field-independent basis, Debye):
    X=             -1.0887    Y=             -0.3361    Z=              0.0000  Tot=              1.1394
 Quadrupole moment (field-independent basis, Debye-Ang):
   XX=             -8.4389   YY=              9.6519   ZZ=            -14.7108
   XY=             -2.3375   XZ=              0.0000   YZ=              0.0000

 Normal termination of Gaussian 16 at Sat Aug 27 04:13:42 2022.
