 Gaussian 16, Revision A.03,
 Gaussian 16:  ES64L-G16RevA.03 25-Dec-2016

 ------------------
 #p CCSD(T)/cc-pVTZ
 ------------------

 ------------
 H2O_H2O_2897
 ------------
 Symbolic Z-matrix:
 Charge =  0 Multiplicity = 1

                         Standard orientation:
 ---------------------------------------------------------------------
 Center     Atomic      Atomic             Coordinates (Angstroms)
 Number     Number       Type             X           Y           Z
 ---------------------------------------------------------------------
      1          8           0        0.056728   -2.278819    0.000000
      2          1           0       -0.744036   -2.848276    0.000000
      3          1           0        0.855102   -2.851624    0.000000
      4          8           0        0.056728    2.377898    0.000000
      5          1           0       -0.403336    3.246142    0.000000
      6          1           0       -0.615385    1.661121    0.000000
 ---------------------------------------------------------------------

 SCF Done:  E(RHF) =  -152.107978833     A.U. after   10 cycles
 E2 =    -0.5259635861D+00 EUMP2 =    -0.15263394241952D+03
 CCSD(T)
 CCSD(T)= -0.15266113576D+03

 The electronic state is 1-A'.
 Alpha  occ. eigenvalues --  -20.55834 -20.54686  -1.33124  -1.31985  -0.70530
 Alpha  occ. eigenvalues --   -0.69368  -0.56589  -0.55441  -0.50240  -0.49105
 Alpha virt. eigenvalues --    0.13289   0.15409   0.19950   0.21558   0.53973
 Alpha virt. eigenvalues --    0.54836   0.57017   0.58026   0.66614   0.70810
 Alpha virt. eigenvalues --    0.78652   0.79625   0.79751   0.80499   0.82766

 Mulliken charges:
               1
     1  O   -0.509838
     2  H    0.252508
     3  H    0.258171
     4  O   -0.510706
     5  H    0.249244
     6  H    0.260622
 Sum of Mulliken charges =  -0.00000

 Dipole moment (field-independent basis, Debye):
    X=             -1.9347    Y=             -1.7736    Z=              0.0000  Tot=              2.6246
 Quadrupole moment (field-independent basis, Debye-Ang):
   XX=             -9.8259   YY=              0.4010   ZZ=            -14.7145
   XY=             -4.5481   XZ=              0.0000   YZ=              0.0000

 Normal termination of Gaussian 16 at Fri Aug 26 17:15:25 2022.
