 Gaussian 16, Revision A.03,
 Gaussian 16:  ES64L-G16RevA.03 25-Dec-2016

 ------------------
 #p CCSD(T)/cc-pVTZ
 ------------------

 -----------
 H2O_H2O_113
 -----------
 Symbolic Z-matrix:
 Charge =  0 Multiplicity = 1

                         Standard orientation:
 ---------------------------------------------------------------------
 Center     Atomic      Atomic             Coordinates (Angstroms)
 Number     Number       Type             X           Y           Z
 ---------------------------------------------------------------------
      1          8           0        0.043024   -0.835845    0.000000
      2          1           0       -0.759009   -1.403516    0.000000
      3          1           0        0.840118   -1.410428    0.000000
      4          8           0        0.043024    0.874386    0.000000
      5          1           0        0.145043    1.851677    0.000000
      6          1           0       -0.914532    0.653947    0.000000
 ---------------------------------------------------------------------

 SCF Done:  E(RHF) =  -151.972569058     A.U. after   12 cycles
 E2 =    -0.5453466406D+00 EUMP2 =    -0.15251791569877D+03
 CCSD(T)
 CCSD(T)= -0.15254346407D+03

 The electronic state is 1-A'.
 Alpha  occ. eigenvalues --  -20.52742 -20.51319  -1.36591  -1.27030  -0.73089
 Alpha  occ. eigenvalues --   -0.69348  -0.59090  -0.52543  -0.43709  -0.39424
 Alpha virt. eigenvalues --    0.14030   0.18952   0.19758   0.23855   0.53148
 Alpha virt. eigenvalues --    0.56444   0.58644   0.65383   0.73052   0.77402
 Alpha virt. eigenvalues --    0.80971   0.82128   0.82293   0.84218   0.88933

 Mulliken charges:
               1
     1  O   -0.363727
     2  H    0.169140
     3  H    0.199947
     4  O   -0.357026
     5  H    0.119587
     6  H    0.232078
 Sum of Mulliken charges =  -0.00000

 Dipole moment (field-independent basis, Debye):
    X=             -1.1605    Y=             -0.8789    Z=              0.0000  Tot=              1.4558
 Quadrupole moment (field-independent basis, Debye-Ang):
   XX=             -9.2369   YY=             -8.1140   ZZ=            -14.6675
   XY=             -0.6444   XZ=              0.0000   YZ=              0.0000

 Normal termination of Gaussian 16 at Fri Aug 26 12:53:05 2022.
