 Gaussian 16, Revision A.03,
 Gaussian 16:  ES64L-G16RevA.03 25-Dec-2016

 ------------------
 #p CCSD(T)/cc-pVTZ
 ------------------

 ------------
 H2O_H2O_4443
 ------------
 Symbolic Z-matrix:
 Charge =  0 Multiplicity = 1

                         Standard orientation:
 ---------------------------------------------------------------------
 Center     Atomic      Atomic             Coordinates (Angstroms)
 Number     Number       Type             X           Y           Z
 ---------------------------------------------------------------------
      1          8           0        0.052816   -3.118762    0.000000
      2          1           0       -0.747576   -3.688742    0.000000
      3          1           0        0.851564   -3.691045    0.000000
      4          8           0        0.052816    3.189124    0.000000
      5          1           0       -0.167479    4.146712    0.000000
      6          1           0       -0.781572    2.670180    0.000000
 ---------------------------------------------------------------------

 SCF Done:  E(RHF) =  -152.107369237     A.U. after   10 cycles
 E2 =    -0.5258837734D+00 EUMP2 =    -0.15263325301084D+03
 CCSD(T)
 CCSD(T)= -0.15266047385D+03

 The electronic state is 1-A'.
 Alpha  occ. eigenvalues --  -20.55563 -20.55154  -1.32862  -1.32452  -0.70268
 Alpha  occ. eigenvalues --   -0.69851  -0.56308  -0.55895  -0.49973  -0.49564
 Alpha virt. eigenvalues --    0.14099   0.14526   0.20180   0.20619   0.54293
 Alpha virt. eigenvalues --    0.54724   0.57209   0.57619   0.67865   0.68323
 Alpha virt. eigenvalues --    0.78906   0.79309   0.80338   0.80772   0.82270

 Mulliken charges:
               1
     1  O   -0.508664
     2  H    0.253163
     3  H    0.255501
     4  O   -0.508407
     5  H    0.252064
     6  H    0.256342
 Sum of Mulliken charges =  -0.00000

 Dipole moment (field-independent basis, Debye):
    X=             -1.8153    Y=             -1.2294    Z=              0.0000  Tot=              2.1924
 Quadrupole moment (field-independent basis, Debye-Ang):
   XX=             -9.5594   YY=              7.0860   ZZ=            -14.7119
   XY=             -5.2402   XZ=              0.0000   YZ=              0.0000

 Normal termination of Gaussian 16 at Sat Aug 27 07:20:53 2022.
