 Gaussian 16, Revision A.03,
 Gaussian 16:  ES64L-G16RevA.03 25-Dec-2016

 ------------------
 #p CCSD(T)/cc-pVTZ
 ------------------

 ------------
 H2O_H2O_3423
 ------------
 Symbolic Z-matrix:
 Charge =  0 Multiplicity = 1

                         Standard orientation:
 ---------------------------------------------------------------------
 Center     Atomic      Atomic             Coordinates (Angstroms)
 Number     Number       Type             X           Y           Z
 ---------------------------------------------------------------------
      1          8           0        0.057091   -2.553982    0.000000
      2          1           0       -0.743553   -3.123608    0.000000
      3          1           0        0.855586   -3.126617    0.000000
      4          8           0        0.057091    2.660523    0.000000
      5          1           0       -0.458951    3.496709    0.000000
      6          1           0       -0.566543    1.901190    0.000000
 ---------------------------------------------------------------------

 SCF Done:  E(RHF) =  -152.107876157     A.U. after   10 cycles
 E2 =    -0.5258884061D+00 EUMP2 =    -0.15263376456265D+03
 CCSD(T)
 CCSD(T)= -0.15266096944D+03

 The electronic state is 1-A'.
 Alpha  occ. eigenvalues --  -20.55823 -20.54881  -1.33120  -1.32181  -0.70526
 Alpha  occ. eigenvalues --   -0.69572  -0.56587  -0.55638  -0.50235  -0.49299
 Alpha virt. eigenvalues --    0.13575   0.15019   0.19970   0.21107   0.54003
 Alpha virt. eigenvalues --    0.54894   0.56994   0.57831   0.66996   0.69282
 Alpha virt. eigenvalues --    0.78652   0.79561   0.79953   0.80353   0.82755

 Mulliken charges:
               1
     1  O   -0.511212
     2  H    0.253642
     3  H    0.257775
     4  O   -0.510714
     5  H    0.250837
     6  H    0.259672
 Sum of Mulliken charges =  -0.00000

 Dipole moment (field-independent basis, Debye):
    X=             -1.9550    Y=             -1.8839    Z=              0.0000  Tot=              2.7150
 Quadrupole moment (field-independent basis, Debye-Ang):
   XX=             -9.8535   YY=              1.0004   ZZ=            -14.7136
   XY=             -5.2497   XZ=              0.0000   YZ=              0.0000

 Normal termination of Gaussian 16 at Fri Aug 26 22:12:23 2022.
