 Gaussian 16, Revision A.03,
 Gaussian 16:  ES64L-G16RevA.03 25-Dec-2016

 ------------------
 #p CCSD(T)/cc-pVTZ
 ------------------

 ------------
 H2O_H2O_2196
 ------------
 Symbolic Z-matrix:
 Charge =  0 Multiplicity = 1

                         Standard orientation:
 ---------------------------------------------------------------------
 Center     Atomic      Atomic             Coordinates (Angstroms)
 Number     Number       Type             X           Y           Z
 ---------------------------------------------------------------------
      1          8           0        0.056129   -1.910559    0.000000
      2          1           0       -0.744847   -2.479718    0.000000
      3          1           0        0.854290   -2.483660    0.000000
      4          8           0        0.056129    2.002224    0.000000
      5          1           0       -0.345831    2.898848    0.000000
      6          1           0       -0.661674    1.331206    0.000000
 ---------------------------------------------------------------------

 SCF Done:  E(RHF) =  -152.108221026     A.U. after   10 cycles
 E2 =    -0.5262222607D+00 EUMP2 =    -0.15263444328630D+03
 CCSD(T)
 CCSD(T)= -0.15266160899D+03

 The electronic state is 1-A'.
 Alpha  occ. eigenvalues --  -20.55896 -20.54287  -1.33169  -1.31581  -0.70578
 Alpha  occ. eigenvalues --   -0.68949  -0.56623  -0.55036  -0.50287  -0.48706
 Alpha virt. eigenvalues --    0.13105   0.16094   0.19891   0.22762   0.54021
 Alpha virt. eigenvalues --    0.54662   0.56977   0.58552   0.65870   0.74185
 Alpha virt. eigenvalues --    0.78432   0.79175   0.80264   0.80751   0.83502

 Mulliken charges:
               1
     1  O   -0.503724
     2  H    0.249191
     3  H    0.257751
     4  O   -0.510600
     5  H    0.245507
     6  H    0.261874
 Sum of Mulliken charges =  -0.00000

 Dipole moment (field-independent basis, Debye):
    X=             -1.8935    Y=             -1.6877    Z=              0.0000  Tot=              2.5365
 Quadrupole moment (field-independent basis, Debye-Ang):
   XX=             -9.7828   YY=             -0.8322   ZZ=            -14.7166
   XY=             -3.6688   XZ=              0.0000   YZ=              0.0000

 Normal termination of Gaussian 16 at Sat Aug 27 09:09:17 2022.
