 Gaussian 16, Revision A.03,
 Gaussian 16:  ES64L-G16RevA.03 25-Dec-2016

 ------------------
 #p CCSD(T)/cc-pVTZ
 ------------------

 ------------
 H2O_H2O_1810
 ------------
 Symbolic Z-matrix:
 Charge =  0 Multiplicity = 1

                         Standard orientation:
 ---------------------------------------------------------------------
 Center     Atomic      Atomic             Coordinates (Angstroms)
 Number     Number       Type             X           Y           Z
 ---------------------------------------------------------------------
      1          8           0        0.034788   -1.748148    0.000000
      2          1           0       -0.765753   -2.317919    0.000000
      3          1           0        0.833387   -2.320639    0.000000
      4          8           0        0.034788    1.771634    0.000000
      5          1           0        0.323046    2.711003    0.000000
      6          1           0       -0.947293    1.739665    0.000000
 ---------------------------------------------------------------------

 SCF Done:  E(RHF) =  -152.105044965     A.U. after   10 cycles
 E2 =    -0.5266167397D+00 EUMP2 =    -0.15263166170447D+03
 CCSD(T)
 CCSD(T)= -0.15265889071D+03

 The electronic state is 1-A'.
 Alpha  occ. eigenvalues --  -20.54705 -20.54239  -1.31983  -1.31506  -0.69406
 Alpha  occ. eigenvalues --   -0.68907  -0.55514  -0.54580  -0.49092  -0.48599
 Alpha virt. eigenvalues --    0.13937   0.16172   0.20406   0.21721   0.53118
 Alpha virt. eigenvalues --    0.55948   0.57894   0.58481   0.63176   0.76664
 Alpha virt. eigenvalues --    0.78813   0.78962   0.80330   0.81096   0.84255

 Mulliken charges:
               1
     1  O   -0.489138
     2  H    0.241243
     3  H    0.248811
     4  O   -0.489633
     5  H    0.239420
     6  H    0.249296
 Sum of Mulliken charges =  -0.00000

 Dipole moment (field-independent basis, Debye):
    X=             -1.1614    Y=             -0.4357    Z=              0.0000  Tot=              1.2404
 Quadrupole moment (field-independent basis, Debye-Ang):
   XX=             -8.6002   YY=              1.1567   ZZ=            -14.7109
   XY=             -1.3016   XZ=              0.0000   YZ=              0.0000

 Normal termination of Gaussian 16 at Sat Aug 27 06:54:51 2022.
