 Gaussian 16, Revision A.03,
 Gaussian 16:  ES64L-G16RevA.03 25-Dec-2016

 ------------------
 #p CCSD(T)/cc-pVTZ
 ------------------

 ------------
 H2O_H2O_1675
 ------------
 Symbolic Z-matrix:
 Charge =  0 Multiplicity = 1

                         Standard orientation:
 ---------------------------------------------------------------------
 Center     Atomic      Atomic             Coordinates (Angstroms)
 Number     Number       Type             X           Y           Z
 ---------------------------------------------------------------------
      1          8           0        0.000000   -0.000000    1.694425
      2          1           0        0.000000    0.799571    2.265557
      3          1           0       -0.000000   -0.799571    2.265557
      4          8           0        0.000000   -0.000000   -1.694425
      5          1           0       -0.000000   -0.799571   -2.265557
      6          1           0        0.000000    0.799571   -2.265557
 ---------------------------------------------------------------------

 SCF Done:  E(RHF) =  -152.103541796     A.U. after   10 cycles
 E2 =    -0.5267909791D+00 EUMP2 =    -0.15263033277558D+03
 CCSD(T)
 CCSD(T)= -0.15265759807D+03

 The electronic state is 1-AG.
 Alpha  occ. eigenvalues --  -20.54190 -20.54190  -1.31511  -1.31432  -0.68933
 Alpha  occ. eigenvalues --   -0.68867  -0.55343  -0.54045  -0.48662  -0.48459
 Alpha virt. eigenvalues --    0.14284   0.16236   0.20601   0.21511   0.52988
 Alpha virt. eigenvalues --    0.58063   0.58198   0.58475   0.61541   0.75957
 Alpha virt. eigenvalues --    0.78781   0.79041   0.79988   0.81573   0.84645

 Mulliken charges:
               1
     1  O   -0.482003
     2  H    0.241001
     3  H    0.241001
     4  O   -0.482003
     5  H    0.241001
     6  H    0.241001
 Sum of Mulliken charges =   0.00000

 Dipole moment (field-independent basis, Debye):
    X=             -0.0000    Y=              0.0000    Z=              0.0000  Tot=              0.0000
 Quadrupole moment (field-independent basis, Debye-Ang):
   XX=            -14.7087   YY=             -7.8655   ZZ=              1.2831
   XY=              0.0000   XZ=              0.0000   YZ=             -0.0000

 4\MP4DQ=-152.6393288\MP4SDQ=-152.6424445\CCSD=-152.6418328\CCSD(T)=-15
 Normal termination of Gaussian 16 at Sat Aug 27 06:09:30 2022.
