 Gaussian 16, Revision A.03,
 Gaussian 16:  ES64L-G16RevA.03 25-Dec-2016

 ------------------
 #p CCSD(T)/cc-pVTZ
 ------------------

 -----------
 H2O_H2O_247
 -----------
 Symbolic Z-matrix:
 Charge =  0 Multiplicity = 1

                         Standard orientation:
 ---------------------------------------------------------------------
 Center     Atomic      Atomic             Coordinates (Angstroms)
 Number     Number       Type             X           Y           Z
 ---------------------------------------------------------------------
      1          8           0        0.056887   -0.869643    0.000000
      2          1           0       -0.745702   -1.436526    0.000000
      3          1           0        0.853418   -1.445008    0.000000
      4          8           0        0.056887    0.968357    0.000000
      5          1           0       -0.400387    1.838074    0.000000
      6          1           0       -0.617524    0.253741    0.000000
 ---------------------------------------------------------------------

 SCF Done:  E(RHF) =  -151.993428742     A.U. after   11 cycles
 E2 =    -0.5433390076D+00 EUMP2 =    -0.15253676774977D+03
 CCSD(T)
 CCSD(T)= -0.15256218967D+03

 The electronic state is 1-A'.
 Alpha  occ. eigenvalues --  -20.56440 -20.48318  -1.39254  -1.26368  -0.77009
 Alpha  occ. eigenvalues --   -0.71803  -0.54294  -0.50970  -0.46911  -0.43279
 Alpha virt. eigenvalues --    0.12833   0.18418   0.20029   0.26674   0.49371
 Alpha virt. eigenvalues --    0.54056   0.62786   0.68284   0.72953   0.75540
 Alpha virt. eigenvalues --    0.78889   0.79017   0.84104   0.85345   0.88313

 Mulliken charges:
               1
     1  O   -0.330682
     2  H    0.182158
     3  H    0.225514
     4  O   -0.502109
     5  H    0.159653
     6  H    0.265467
 Sum of Mulliken charges =   0.00000

 Dipole moment (field-independent basis, Debye):
    X=             -1.5607    Y=             -2.4753    Z=              0.0000  Tot=              2.9262
 Quadrupole moment (field-independent basis, Debye-Ang):
   XX=             -9.8228   YY=             -7.8811   ZZ=            -14.5892
   XY=             -1.8353   XZ=              0.0000   YZ=              0.0000

 Normal termination of Gaussian 16 at Fri Aug 26 14:28:54 2022.
