 Gaussian 16, Revision A.03,
 Gaussian 16:  ES64L-G16RevA.03 25-Dec-2016

 ------------------
 #p CCSD(T)/cc-pVTZ
 ------------------

 ------------
 H2O_H2O_3993
 ------------
 Symbolic Z-matrix:
 Charge =  0 Multiplicity = 1

                         Standard orientation:
 ---------------------------------------------------------------------
 Center     Atomic      Atomic             Coordinates (Angstroms)
 Number     Number       Type             X           Y           Z
 ---------------------------------------------------------------------
      1          8           0        0.052821   -2.879442    0.000000
      2          1           0       -0.747640   -3.449328    0.000000
      3          1           0        0.851500   -3.451820    0.000000
      4          8           0        0.052821    2.949792    0.000000
      5          1           0       -0.167361    3.907407    0.000000
      6          1           0       -0.781629    2.430947    0.000000
 ---------------------------------------------------------------------

 SCF Done:  E(RHF) =  -152.107344811     A.U. after   10 cycles
 E2 =    -0.5258954067D+00 EUMP2 =    -0.15263324021785D+03
 CCSD(T)
 CCSD(T)= -0.15266046091D+03

 The electronic state is 1-A'.
 Alpha  occ. eigenvalues --  -20.55551 -20.55067  -1.32850  -1.32364  -0.70256
 Alpha  occ. eigenvalues --   -0.69762  -0.56294  -0.55806  -0.49961  -0.49477
 Alpha virt. eigenvalues --    0.14067   0.14641   0.20182   0.20721   0.54300
 Alpha virt. eigenvalues --    0.54814   0.57218   0.57700   0.67784   0.68518
 Alpha virt. eigenvalues --    0.78920   0.79395   0.80349   0.80829   0.82350

 Mulliken charges:
               1
     1  O   -0.508534
     2  H    0.252797
     3  H    0.255744
     4  O   -0.508182
     5  H    0.251415
     6  H    0.256761
 Sum of Mulliken charges =  -0.00000

 Dipole moment (field-independent basis, Debye):
    X=             -1.8131    Y=             -1.2333    Z=              0.0000  Tot=              2.1928
 Quadrupole moment (field-independent basis, Debye-Ang):
   XX=             -9.5591   YY=              5.7615   ZZ=            -14.7120
   XY=             -4.8091   XZ=              0.0000   YZ=              0.0000

 Normal termination of Gaussian 16 at Sat Aug 27 04:46:47 2022.
