 Gaussian 16, Revision A.03,
 Gaussian 16:  ES64L-G16RevA.03 25-Dec-2016

 ------------------
 #p CCSD(T)/cc-pVTZ
 ------------------

 -----------
 H2O_H2O_305
 -----------
 Symbolic Z-matrix:
 Charge =  0 Multiplicity = 1

                         Standard orientation:
 ---------------------------------------------------------------------
 Center     Atomic      Atomic             Coordinates (Angstroms)
 Number     Number       Type             X           Y           Z
 ---------------------------------------------------------------------
      1          8           0        0.018363   -0.959889    0.000000
      2          1           0       -0.782144   -1.529708    0.000000
      3          1           0        0.816996   -1.532333    0.000000
      4          8           0        0.018363    0.965891    0.000000
      5          1           0        0.593226    1.762785    0.000000
      6          1           0       -0.921892    1.251243    0.000000
 ---------------------------------------------------------------------

 SCF Done:  E(RHF) =  -152.035977615     A.U. after   11 cycles
 E2 =    -0.5372238586D+00 EUMP2 =    -0.15257320147339D+03
 CCSD(T)
 CCSD(T)= -0.15259977931D+03

 The electronic state is 1-A'.
 Alpha  occ. eigenvalues --  -20.51783 -20.51600  -1.32565  -1.28179  -0.68984
 Alpha  occ. eigenvalues --   -0.66536  -0.61664  -0.49663  -0.44584  -0.42218
 Alpha virt. eigenvalues --    0.14604   0.18531   0.20344   0.23034   0.51163
 Alpha virt. eigenvalues --    0.58735   0.59022   0.66018   0.69441   0.78214
 Alpha virt. eigenvalues --    0.79173   0.83164   0.84194   0.86473   0.87708

 Mulliken charges:
               1
     1  O   -0.423665
     2  H    0.204946
     3  H    0.217429
     4  O   -0.407443
     5  H    0.183635
     6  H    0.225098
 Sum of Mulliken charges =  -0.00000

 Dipole moment (field-independent basis, Debye):
    X=             -0.5295    Y=             -0.1317    Z=              0.0000  Tot=              0.5456
 Quadrupole moment (field-independent basis, Debye-Ang):
   XX=             -8.3799   YY=             -6.2906   ZZ=            -14.7478
   XY=             -0.1862   XZ=              0.0000   YZ=              0.0000

 Normal termination of Gaussian 16 at Fri Aug 26 15:05:51 2022.
