 Gaussian 16, Revision A.03,
 Gaussian 16:  ES64L-G16RevA.03 25-Dec-2016

 ------------------
 #p CCSD(T)/cc-pVTZ
 ------------------

 -----------
 H2O_H2O_991
 -----------
 Symbolic Z-matrix:
 Charge =  0 Multiplicity = 1

                         Standard orientation:
 ---------------------------------------------------------------------
 Center     Atomic      Atomic             Coordinates (Angstroms)
 Number     Number       Type             X           Y           Z
 ---------------------------------------------------------------------
      1          8           0        0.049553   -1.291291    0.000000
      2          1           0       -0.751856   -1.859840    0.000000
      3          1           0        0.847277   -1.865000    0.000000
      4          8           0        0.049553    1.348085    0.000000
      5          1           0       -0.042120    2.326401    0.000000
      6          1           0       -0.846155    0.944090    0.000000
 ---------------------------------------------------------------------

 SCF Done:  E(RHF) =  -152.101522742     A.U. after   11 cycles
 E2 =    -0.5285908386D+00 EUMP2 =    -0.15263011358036D+03
 CCSD(T)
 CCSD(T)= -0.15265728897D+03

 The electronic state is 1-A'.
 Alpha  occ. eigenvalues --  -20.55027 -20.53097  -1.32535  -1.30341  -0.69943
 Alpha  occ. eigenvalues --   -0.68005  -0.56186  -0.52947  -0.49670  -0.47372
 Alpha virt. eigenvalues --    0.13729   0.17365   0.20014   0.23645   0.53271
 Alpha virt. eigenvalues --    0.57479   0.58489   0.58931   0.70486   0.75441
 Alpha virt. eigenvalues --    0.76723   0.78635   0.82692   0.82932   0.85074

 Mulliken charges:
               1
     1  O   -0.474871
     2  H    0.232061
     3  H    0.249814
     4  O   -0.476454
     5  H    0.219706
     6  H    0.249744
 Sum of Mulliken charges =  -0.00000

 Dipole moment (field-independent basis, Debye):
    X=             -1.5704    Y=             -1.1172    Z=              0.0000  Tot=              1.9272
 Quadrupole moment (field-independent basis, Debye-Ang):
   XX=             -9.4079   YY=             -3.1253   ZZ=            -14.7233
   XY=             -1.6600   XZ=              0.0000   YZ=              0.0000

 Normal termination of Gaussian 16 at Sat Aug 27 01:13:21 2022.
