 Gaussian 16, Revision A.03,
 Gaussian 16:  ES64L-G16RevA.03 25-Dec-2016

 ------------------
 #p CCSD(T)/cc-pVTZ
 ------------------

 ------------
 H2O_H2O_3337
 ------------
 Symbolic Z-matrix:
 Charge =  0 Multiplicity = 1

                         Standard orientation:
 ---------------------------------------------------------------------
 Center     Atomic      Atomic             Coordinates (Angstroms)
 Number     Number       Type             X           Y           Z
 ---------------------------------------------------------------------
      1          8           0        0.040408   -2.553844    0.000000
      2          1           0       -0.759935   -3.123894    0.000000
      3          1           0        0.839206   -3.126057    0.000000
      4          8           0        0.040408    2.587191    0.000000
      5          1           0        0.203249    3.556204    0.000000
      6          1           0       -0.929044    2.426971    0.000000
 ---------------------------------------------------------------------

 SCF Done:  E(RHF) =  -152.106736214     A.U. after   10 cycles
 E2 =    -0.5259706085D+00 EUMP2 =    -0.15263270682270D+03
 CCSD(T)
 CCSD(T)= -0.15265993903D+03

 The electronic state is 1-A'.
 Alpha  occ. eigenvalues --  -20.55230 -20.54934  -1.32525  -1.32226  -0.69934
 Alpha  occ. eigenvalues --   -0.69627  -0.55940  -0.55643  -0.49632  -0.49335
 Alpha virt. eigenvalues --    0.14213   0.14839   0.20387   0.20795   0.54584
 Alpha virt. eigenvalues --    0.54968   0.57490   0.57788   0.67611   0.69381
 Alpha virt. eigenvalues --    0.79247   0.79538   0.80664   0.81014   0.82714

 Mulliken charges:
               1
     1  O   -0.504934
     2  H    0.250831
     3  H    0.254121
     4  O   -0.504567
     5  H    0.249801
     6  H    0.254748
 Sum of Mulliken charges =  -0.00000

 Dipole moment (field-independent basis, Debye):
    X=             -1.3823    Y=             -0.5879    Z=              0.0000  Tot=              1.5022
 Quadrupole moment (field-independent basis, Debye-Ang):
   XX=             -8.8337   YY=              6.4931   ZZ=            -14.7109
   XY=             -2.7362   XZ=              0.0000   YZ=              0.0000

 Normal termination of Gaussian 16 at Fri Aug 26 21:29:04 2022.
