 Gaussian 16, Revision A.03,
 Gaussian 16:  ES64L-G16RevA.03 25-Dec-2016

 ------------------
 #p CCSD(T)/cc-pVTZ
 ------------------

 ------------
 H2O_H2O_2176
 ------------
 Symbolic Z-matrix:
 Charge =  0 Multiplicity = 1

                         Standard orientation:
 ---------------------------------------------------------------------
 Center     Atomic      Atomic             Coordinates (Angstroms)
 Number     Number       Type             X           Y           Z
 ---------------------------------------------------------------------
      1          8           0        0.003735   -1.960211    0.000000
      2          1           0       -0.795929   -2.531212    0.000000
      3          1           0        0.803213   -2.531474    0.000000
      4          8           0        0.003735    1.960454    0.000000
      5          1           0        0.764343    2.582533    0.000000
      6          1           0       -0.831393    2.478206    0.000000
 ---------------------------------------------------------------------

 SCF Done:  E(RHF) =  -152.104967581     A.U. after   10 cycles
 E2 =    -0.5263378413D+00 EUMP2 =    -0.15263130542193D+03
 CCSD(T)
 CCSD(T)= -0.15265855544D+03

 The electronic state is 1-A'.
 Alpha  occ. eigenvalues --  -20.54525 -20.54521  -1.31815  -1.31796  -0.69233
 Alpha  occ. eigenvalues --   -0.69215  -0.55333  -0.54893  -0.48931  -0.48872
 Alpha virt. eigenvalues --    0.14216   0.15682   0.20635   0.21151   0.54275
 Alpha virt. eigenvalues --    0.56407   0.57911   0.58195   0.61862   0.74944
 Alpha virt. eigenvalues --    0.79493   0.80415   0.80716   0.81102   0.82162

 Mulliken charges:
               1
     1  O   -0.492893
     2  H    0.246138
     3  H    0.246759
     4  O   -0.492887
     5  H    0.246073
     6  H    0.246810
 Sum of Mulliken charges =  -0.00000

 Dipole moment (field-independent basis, Debye):
    X=             -0.1260    Y=             -0.0044    Z=              0.0000  Tot=              0.1261
 Quadrupole moment (field-independent basis, Debye-Ang):
   XX=             -7.8476   YY=              3.5195   ZZ=            -14.7093
   XY=             -0.1376   XZ=              0.0000   YZ=              0.0000

 Normal termination of Gaussian 16 at Sat Aug 27 09:02:08 2022.
