 Gaussian 16, Revision A.03,
 Gaussian 16:  ES64L-G16RevA.03 25-Dec-2016

 ------------------
 #p CCSD(T)/cc-pVTZ
 ------------------

 ------------
 H2O_H2O_2179
 ------------
 Symbolic Z-matrix:
 Charge =  0 Multiplicity = 1

                         Standard orientation:
 ---------------------------------------------------------------------
 Center     Atomic      Atomic             Coordinates (Angstroms)
 Number     Number       Type             X           Y           Z
 ---------------------------------------------------------------------
      1          8           0        0.014783   -1.958239    0.000000
      2          1           0       -0.785158   -2.528852    0.000000
      3          1           0        0.813983   -2.529890    0.000000
      4          8           0        0.014783    1.962112    0.000000
      5          1           0        0.639783    2.720322    0.000000
      6          1           0       -0.905140    2.307437    0.000000
 ---------------------------------------------------------------------

 SCF Done:  E(RHF) =  -152.105081358     A.U. after   10 cycles
 E2 =    -0.5263328553D+00 EUMP2 =    -0.15263141421330D+03
 CCSD(T)
 CCSD(T)= -0.15265866116D+03

 The electronic state is 1-A'.
 Alpha  occ. eigenvalues --  -20.54577 -20.54516  -1.31860  -1.31796  -0.69278
 Alpha  occ. eigenvalues --   -0.69211  -0.55357  -0.54926  -0.48967  -0.48883
 Alpha virt. eigenvalues --    0.14169   0.15694   0.20604   0.21179   0.54144
 Alpha virt. eigenvalues --    0.56232   0.57905   0.58189   0.62160   0.74937
 Alpha virt. eigenvalues --    0.79468   0.80395   0.80526   0.81178   0.82256

 Mulliken charges:
               1
     1  O   -0.493442
     2  H    0.245524
     3  H    0.247984
     4  O   -0.493350
     5  H    0.245155
     6  H    0.248131
 Sum of Mulliken charges =  -0.00000

 Dipole moment (field-independent basis, Debye):
    X=             -0.4988    Y=             -0.0705    Z=              0.0000  Tot=              0.5038
 Quadrupole moment (field-independent basis, Debye-Ang):
   XX=             -7.9739   YY=              3.3958   ZZ=            -14.7095
   XY=             -0.5613   XZ=              0.0000   YZ=              0.0000

 Normal termination of Gaussian 16 at Sat Aug 27 09:03:35 2022.
