 Gaussian 16, Revision A.03,
 Gaussian 16:  ES64L-G16RevA.03 25-Dec-2016

 ------------------
 #p CCSD(T)/cc-pVTZ
 ------------------

 ------------
 H2O_H2O_1386
 ------------
 Symbolic Z-matrix:
 Charge =  0 Multiplicity = 1

                         Standard orientation:
 ---------------------------------------------------------------------
 Center     Atomic      Atomic             Coordinates (Angstroms)
 Number     Number       Type             X           Y           Z
 ---------------------------------------------------------------------
      1          8           0        0.037687   -1.519564    0.000000
      2          1           0       -0.763089   -2.089005    0.000000
      3          1           0        0.836049   -2.092384    0.000000
      4          8           0        0.037687    1.547751    0.000000
      5          1           0        0.264285    2.503868    0.000000
      6          1           0       -0.940241    1.452023    0.000000
 ---------------------------------------------------------------------

 SCF Done:  E(RHF) =  -152.103640091     A.U. after   10 cycles
 E2 =    -0.5272482538D+00 EUMP2 =    -0.15263088834514D+03
 CCSD(T)
 CCSD(T)= -0.15265812739D+03

 The electronic state is 1-A'.
 Alpha  occ. eigenvalues --  -20.54542 -20.53836  -1.31854  -1.31089  -0.69280
 Alpha  occ. eigenvalues --   -0.68504  -0.55712  -0.53713  -0.48986  -0.48148
 Alpha virt. eigenvalues --    0.14011   0.16673   0.20340   0.22298   0.53202
 Alpha virt. eigenvalues --    0.57332   0.57988   0.58782   0.65819   0.76531
 Alpha virt. eigenvalues --    0.77602   0.78095   0.79637   0.82349   0.85595

 Mulliken charges:
               1
     1  O   -0.480590
     2  H    0.235532
     3  H    0.246622
     4  O   -0.478420
     5  H    0.231042
     6  H    0.245814
 Sum of Mulliken charges =  -0.00000

 Dipole moment (field-independent basis, Debye):
    X=             -1.2335    Y=             -0.5343    Z=              0.0000  Tot=              1.3443
 Quadrupole moment (field-independent basis, Debye-Ang):
   XX=             -8.7565   YY=             -0.7361   ZZ=            -14.7135
   XY=             -1.1854   XZ=              0.0000   YZ=              0.0000

 Normal termination of Gaussian 16 at Sat Aug 27 04:25:32 2022.
