 Gaussian 16, Revision A.03,
 Gaussian 16:  ES64L-G16RevA.03 25-Dec-2016

 ------------------
 #p CCSD(T)/cc-pVTZ
 ------------------

 ------------
 H2O_H2O_3796
 ------------
 Symbolic Z-matrix:
 Charge =  0 Multiplicity = 1

                         Standard orientation:
 ---------------------------------------------------------------------
 Center     Atomic      Atomic             Coordinates (Angstroms)
 Number     Number       Type             X           Y           Z
 ---------------------------------------------------------------------
      1          8           0        0.056095   -2.761453    0.000000
      2          1           0       -0.744456   -3.331211    0.000000
      3          1           0        0.854683   -3.333958    0.000000
      4          8           0        0.056095    2.853203    0.000000
      5          1           0       -0.346535    3.749526    0.000000
      6          1           0       -0.661207    2.181648    0.000000
 ---------------------------------------------------------------------

 SCF Done:  E(RHF) =  -152.107588375     A.U. after   10 cycles
 E2 =    -0.5258828761D+00 EUMP2 =    -0.15263347125091D+03
 CCSD(T)
 CCSD(T)= -0.15266068588D+03

 The electronic state is 1-A'.
 Alpha  occ. eigenvalues --  -20.55689 -20.55004  -1.32989  -1.32302  -0.70395
 Alpha  occ. eigenvalues --   -0.69697  -0.56444  -0.55752  -0.50101  -0.49418
 Alpha virt. eigenvalues --    0.13877   0.14766   0.20072   0.20854   0.54153
 Alpha virt. eigenvalues --    0.54859   0.57098   0.57761   0.67473   0.68718
 Alpha virt. eigenvalues --    0.78781   0.79450   0.80195   0.80716   0.82473

 Mulliken charges:
               1
     1  O   -0.509943
     2  H    0.253292
     3  H    0.256684
     4  O   -0.509447
     5  H    0.251318
     6  H    0.258095
 Sum of Mulliken charges =  -0.00000

 Dipole moment (field-independent basis, Debye):
    X=             -1.9243    Y=             -1.6126    Z=              0.0000  Tot=              2.5106
 Quadrupole moment (field-independent basis, Debye-Ang):
   XX=             -9.7834   YY=              3.2575   ZZ=            -14.7127
   XY=             -5.2797   XZ=              0.0000   YZ=              0.0000

 Normal termination of Gaussian 16 at Sat Aug 27 03:23:49 2022.
