 Gaussian 16, Revision A.03,
 Gaussian 16:  ES64L-G16RevA.03 25-Dec-2016

 ------------------
 #p CCSD(T)/cc-pVTZ
 ------------------

 ------------
 H2O_H2O_2053
 ------------
 Symbolic Z-matrix:
 Charge =  0 Multiplicity = 1

                         Standard orientation:
 ---------------------------------------------------------------------
 Center     Atomic      Atomic             Coordinates (Angstroms)
 Number     Number       Type             X           Y           Z
 ---------------------------------------------------------------------
      1          8           0        0.011143   -1.892677    0.000000
      2          1           0       -0.788717   -2.463405    0.000000
      3          1           0        0.810424   -2.464214    0.000000
      4          8           0        0.011143    1.894861    0.000000
      5          1           0        0.684290    2.610667    0.000000
      6          1           0       -0.884282    2.299483    0.000000
 ---------------------------------------------------------------------

 SCF Done:  E(RHF) =  -152.104784310     A.U. after   10 cycles
 E2 =    -0.5264213563D+00 EUMP2 =    -0.15263120566677D+03
 CCSD(T)
 CCSD(T)= -0.15265845451D+03

 The electronic state is 1-A'.
 Alpha  occ. eigenvalues --  -20.54486 -20.54449  -1.31770  -1.31724  -0.69190
 Alpha  occ. eigenvalues --   -0.69143  -0.55328  -0.54753  -0.48887  -0.48798
 Alpha virt. eigenvalues --    0.14185   0.15819   0.20613   0.21246   0.53961
 Alpha virt. eigenvalues --    0.56612   0.57937   0.58260   0.61479   0.75372
 Alpha virt. eigenvalues --    0.79372   0.80274   0.80630   0.80929   0.82619

 Mulliken charges:
               1
     1  O   -0.491019
     2  H    0.244526
     3  H    0.246543
     4  O   -0.490986
     5  H    0.244268
     6  H    0.246667
 Sum of Mulliken charges =  -0.00000

 Dipole moment (field-independent basis, Debye):
    X=             -0.3750    Y=             -0.0400    Z=              0.0000  Tot=              0.3771
 Quadrupole moment (field-independent basis, Debye-Ang):
   XX=             -7.9207   YY=              2.9065   ZZ=            -14.7092
   XY=             -0.3926   XZ=              0.0000   YZ=              0.0000

 Normal termination of Gaussian 16 at Sat Aug 27 08:19:23 2022.
