 Gaussian 16, Revision A.03,
 Gaussian 16:  ES64L-G16RevA.03 25-Dec-2016

 ------------------
 #p CCSD(T)/cc-pVTZ
 ------------------

 -----------
 H2O_H2O_400
 -----------
 Symbolic Z-matrix:
 Charge =  0 Multiplicity = 1

                         Standard orientation:
 ---------------------------------------------------------------------
 Center     Atomic      Atomic             Coordinates (Angstroms)
 Number     Number       Type             X           Y           Z
 ---------------------------------------------------------------------
      1          8           0        0.000000   -0.000000    1.016334
      2          1           0        0.000000    0.799571    1.587466
      3          1           0       -0.000000   -0.799571    1.587466
      4          8           0        0.000000   -0.000000   -1.016334
      5          1           0       -0.000000   -0.799571   -1.587466
      6          1           0        0.000000    0.799571   -1.587466
 ---------------------------------------------------------------------

 SCF Done:  E(RHF) =  -152.054176296     A.U. after   11 cycles
 E2 =    -0.5347023970D+00 EUMP2 =    -0.15258887869258D+03
 CCSD(T)
 CCSD(T)= -0.15261575437D+03

 The electronic state is 1-AG.
 Alpha  occ. eigenvalues --  -20.51843 -20.51841  -1.31766  -1.28600  -0.68406
 Alpha  occ. eigenvalues --   -0.66480  -0.60813  -0.49010  -0.45041  -0.43970
 Alpha virt. eigenvalues --    0.14663   0.18420   0.20493   0.22773   0.50164
 Alpha virt. eigenvalues --    0.59159   0.59277   0.66201   0.70166   0.77923
 Alpha virt. eigenvalues --    0.79179   0.82696   0.84501   0.86691   0.87203

 Mulliken charges:
               1
     1  O   -0.431106
     2  H    0.215553
     3  H    0.215553
     4  O   -0.431106
     5  H    0.215553
     6  H    0.215553
 Sum of Mulliken charges =  -0.00000

 Dipole moment (field-independent basis, Debye):
    X=             -0.0000    Y=              0.0000    Z=             -0.0000  Tot=              0.0000
 Quadrupole moment (field-independent basis, Debye-Ang):
   XX=            -14.7518   YY=             -8.1432   ZZ=             -5.5542
   XY=              0.0000   XZ=             -0.0000   YZ=             -0.0000

 \MP4DQ=-152.596209\MP4SDQ=-152.5997277\CCSD=-152.5989568\CCSD(T)=-152.
 Normal termination of Gaussian 16 at Fri Aug 26 16:06:28 2022.
