 Gaussian 16, Revision A.03,
 Gaussian 16:  ES64L-G16RevA.03 25-Dec-2016

 ------------------
 #p CCSD(T)/cc-pVTZ
 ------------------

 ------------
 H2O_H2O_4347
 ------------
 Symbolic Z-matrix:
 Charge =  0 Multiplicity = 1

                         Standard orientation:
 ---------------------------------------------------------------------
 Center     Atomic      Atomic             Coordinates (Angstroms)
 Number     Number       Type             X           Y           Z
 ---------------------------------------------------------------------
      1          8           0        0.056703   -3.049951    0.000000
      2          1           0       -0.743766   -3.619825    0.000000
      3          1           0        0.855374   -3.622340    0.000000
      4          8           0        0.056703    3.149090    0.000000
      5          1           0       -0.403814    4.017094    0.000000
      6          1           0       -0.615037    2.431962    0.000000
 ---------------------------------------------------------------------

 SCF Done:  E(RHF) =  -152.107607971     A.U. after   10 cycles
 E2 =    -0.5258644584D+00 EUMP2 =    -0.15263347242976D+03
 CCSD(T)
 CCSD(T)= -0.15266068808D+03

 The electronic state is 1-A'.
 Alpha  occ. eigenvalues --  -20.55715 -20.55120  -1.33015  -1.32419  -0.70421
 Alpha  occ. eigenvalues --   -0.69817  -0.56472  -0.55870  -0.50128  -0.49534
 Alpha virt. eigenvalues --    0.13952   0.14589   0.20060   0.20704   0.54137
 Alpha virt. eigenvalues --    0.54753   0.57074   0.57667   0.67653   0.68364
 Alpha virt. eigenvalues --    0.78752   0.79337   0.80178   0.80782   0.82152

 Mulliken charges:
               1
     1  O   -0.510082
     2  H    0.253781
     3  H    0.256305
     4  O   -0.509705
     5  H    0.252215
     6  H    0.257487
 Sum of Mulliken charges =  -0.00000

 Dipole moment (field-independent basis, Debye):
    X=             -1.9486    Y=             -1.7341    Z=              0.0000  Tot=              2.6084
 Quadrupole moment (field-independent basis, Debye-Ang):
   XX=             -9.8280   YY=              3.8870   ZZ=            -14.7126
   XY=             -6.0340   XZ=              0.0000   YZ=              0.0000

 1486\MP4DQ=-152.6425974\MP4SDQ=-152.6456508\CCSD=-152.6450644\CCSD(T)=
 Normal termination of Gaussian 16 at Sat Aug 27 06:48:11 2022.
