 Gaussian 16, Revision A.03,
 Gaussian 16:  ES64L-G16RevA.03 25-Dec-2016

 ------------------
 #p CCSD(T)/cc-pVTZ
 ------------------

 ------------
 H2O_H2O_2147
 ------------
 Symbolic Z-matrix:
 Charge =  0 Multiplicity = 1

                         Standard orientation:
 ---------------------------------------------------------------------
 Center     Atomic      Atomic             Coordinates (Angstroms)
 Number     Number       Type             X           Y           Z
 ---------------------------------------------------------------------
      1          8           0        0.056750   -1.879967    0.000000
      2          1           0       -0.744261   -2.449078    0.000000
      3          1           0        0.854875   -2.453118    0.000000
      4          8           0        0.056750    1.978998    0.000000
      5          1           0       -0.402939    2.847440    0.000000
      6          1           0       -0.615673    1.262511    0.000000
 ---------------------------------------------------------------------

 SCF Done:  E(RHF) =  -152.108581978     A.U. after   10 cycles
 E2 =    -0.5262486070D+00 EUMP2 =    -0.15263483058465D+03
 CCSD(T)
 CCSD(T)= -0.15266198523D+03

 The electronic state is 1-A'.
 Alpha  occ. eigenvalues --  -20.56030 -20.54219  -1.33300  -1.31517  -0.70707
 Alpha  occ. eigenvalues --   -0.68884  -0.56768  -0.54981  -0.50421  -0.48645
 Alpha virt. eigenvalues --    0.13025   0.16191   0.19827   0.23112   0.53812
 Alpha virt. eigenvalues --    0.54974   0.56855   0.58554   0.66149   0.74020
 Alpha virt. eigenvalues --    0.78249   0.79177   0.80275   0.80336   0.83619

 Mulliken charges:
               1
     1  O   -0.503610
     2  H    0.249454
     3  H    0.258163
     4  O   -0.512329
     5  H    0.245456
     6  H    0.262865
 Sum of Mulliken charges =  -0.00000

 Dipole moment (field-independent basis, Debye):
    X=             -1.9128    Y=             -1.8315    Z=              0.0000  Tot=              2.6482
 Quadrupole moment (field-independent basis, Debye-Ang):
   XX=             -9.8256   YY=             -1.4198   ZZ=            -14.7176
   XY=             -3.7893   XZ=              0.0000   YZ=              0.0000

 Normal termination of Gaussian 16 at Sat Aug 27 08:51:02 2022.
