 Gaussian 16, Revision A.03,
 Gaussian 16:  ES64L-G16RevA.03 25-Dec-2016

 ------------------
 #p CCSD(T)/cc-pVTZ
 ------------------

 ------------
 H2O_H2O_1516
 ------------
 Symbolic Z-matrix:
 Charge =  0 Multiplicity = 1

                         Standard orientation:
 ---------------------------------------------------------------------
 Center     Atomic      Atomic             Coordinates (Angstroms)
 Number     Number       Type             X           Y           Z
 ---------------------------------------------------------------------
      1          8           0        0.049537   -1.570476    0.000000
      2          1           0       -0.751552   -2.139477    0.000000
      3          1           0        0.847585   -2.143735    0.000000
      4          8           0        0.049537    1.627325    0.000000
      5          1           0       -0.042687    2.605590    0.000000
      6          1           0       -0.845943    1.222826    0.000000
 ---------------------------------------------------------------------

 SCF Done:  E(RHF) =  -152.106042026     A.U. after   10 cycles
 E2 =    -0.5269896813D+00 EUMP2 =    -0.15263303170738D+03
 CCSD(T)
 CCSD(T)= -0.15266021633D+03

 The electronic state is 1-A'.
 Alpha  occ. eigenvalues --  -20.55271 -20.53839  -1.32560  -1.31098  -0.69982
 Alpha  occ. eigenvalues --   -0.68491  -0.56014  -0.54332  -0.49675  -0.48206
 Alpha virt. eigenvalues --    0.13626   0.16678   0.20068   0.22911   0.54219
 Alpha virt. eigenvalues --    0.55291   0.57443   0.58415   0.65690   0.76242
 Alpha virt. eigenvalues --    0.77479   0.77518   0.79039   0.81778   0.85038

 Mulliken charges:
               1
     1  O   -0.487347
     2  H    0.239516
     3  H    0.252144
     4  O   -0.492852
     5  H    0.234642
     6  H    0.253896
 Sum of Mulliken charges =   0.00000

 Dipole moment (field-independent basis, Debye):
    X=             -1.6308    Y=             -1.0802    Z=              0.0000  Tot=              1.9561
 Quadrupole moment (field-independent basis, Debye-Ang):
   XX=             -9.3726   YY=             -1.1609   ZZ=            -14.7168
   XY=             -2.1078   XZ=              0.0000   YZ=              0.0000

 Normal termination of Gaussian 16 at Sat Aug 27 05:13:35 2022.
