 Gaussian 16, Revision A.03,
 Gaussian 16:  ES64L-G16RevA.03 25-Dec-2016

 ------------------
 #p CCSD(T)/cc-pVTZ
 ------------------

 ------------
 H2O_H2O_3900
 ------------
 Symbolic Z-matrix:
 Charge =  0 Multiplicity = 1

                         Standard orientation:
 ---------------------------------------------------------------------
 Center     Atomic      Atomic             Coordinates (Angstroms)
 Number     Number       Type             X           Y           Z
 ---------------------------------------------------------------------
      1          8           0        0.000000   -0.000000    2.877761
      2          1           0        0.000000    0.799571    3.448893
      3          1           0       -0.000000   -0.799571    3.448893
      4          8           0        0.000000   -0.000000   -2.877761
      5          1           0       -0.000000   -0.799571   -3.448893
      6          1           0        0.000000    0.799571   -3.448893
 ---------------------------------------------------------------------

 SCF Done:  E(RHF) =  -152.106599347     A.U. after   10 cycles
 E2 =    -0.5259580101D+00 EUMP2 =    -0.15263255735700D+03
 CCSD(T)
 CCSD(T)= -0.15265979421D+03

 The electronic state is 1-AG.
 Alpha  occ. eigenvalues --  -20.55094 -20.55094  -1.32388  -1.32388  -0.69796
 Alpha  occ. eigenvalues --   -0.69796  -0.55799  -0.55797  -0.49494  -0.49494
 Alpha virt. eigenvalues --    0.14471   0.14562   0.20532   0.20567   0.54760
 Alpha virt. eigenvalues --    0.54789   0.57614   0.57631   0.68301   0.68611
 Alpha virt. eigenvalues --    0.79383   0.79385   0.80825   0.80839   0.82754

 Mulliken charges:
               1
     1  O   -0.504098
     2  H    0.252049
     3  H    0.252049
     4  O   -0.504098
     5  H    0.252049
     6  H    0.252049
 Sum of Mulliken charges =   0.00000

 Dipole moment (field-independent basis, Debye):
    X=             -0.0000    Y=              0.0000    Z=              0.0000  Tot=              0.0000
 Quadrupole moment (field-independent basis, Debye-Ang):
   XX=            -14.7103   YY=             -7.8067   ZZ=             10.9824
   XY=              0.0000   XZ=              0.0000   YZ=             -0.0000

 1\MP4DQ=-152.6416819\MP4SDQ=-152.644744\CCSD=-152.6441549\CCSD(T)=-152
 Normal termination of Gaussian 16 at Sat Aug 27 04:09:53 2022.
