 Gaussian 16, Revision A.03,
 Gaussian 16:  ES64L-G16RevA.03 25-Dec-2016

 ------------------
 #p CCSD(T)/cc-pVTZ
 ------------------

 ------------
 H2O_H2O_1796
 ------------
 Symbolic Z-matrix:
 Charge =  0 Multiplicity = 1

                         Standard orientation:
 ---------------------------------------------------------------------
 Center     Atomic      Atomic             Coordinates (Angstroms)
 Number     Number       Type             X           Y           Z
 ---------------------------------------------------------------------
      1          8           0        0.056143   -1.697842    0.000000
      2          1           0       -0.745005   -2.266760    0.000000
      3          1           0        0.854131   -2.271183    0.000000
      4          8           0        0.056143    1.789474    0.000000
      5          1           0       -0.345548    2.686218    0.000000
      6          1           0       -0.661862    1.118672    0.000000
 ---------------------------------------------------------------------

 SCF Done:  E(RHF) =  -152.108481860     A.U. after   10 cycles
 E2 =    -0.5265691157D+00 EUMP2 =    -0.15263505097533D+03
 CCSD(T)
 CCSD(T)= -0.15266219181D+03

 The electronic state is 1-A'.
 Alpha  occ. eigenvalues --  -20.56018 -20.53925  -1.33287  -1.31216  -0.70697
 Alpha  occ. eigenvalues --   -0.68590  -0.56728  -0.54677  -0.50407  -0.48347
 Alpha virt. eigenvalues --    0.13137   0.16578   0.19806   0.23749   0.53502
 Alpha virt. eigenvalues --    0.55180   0.56822   0.58307   0.66131   0.75304
 Alpha virt. eigenvalues --    0.77640   0.77814   0.79113   0.80952   0.84468

 Mulliken charges:
               1
     1  O   -0.497322
     2  H    0.246184
     3  H    0.257306
     4  O   -0.509943
     5  H    0.241700
     6  H    0.262074
 Sum of Mulliken charges =  -0.00000

 Dipole moment (field-independent basis, Debye):
    X=             -1.8725    Y=             -1.7304    Z=              0.0000  Tot=              2.5496
 Quadrupole moment (field-independent basis, Debye-Ang):
   XX=             -9.7852   YY=             -1.8921   ZZ=            -14.7194
   XY=             -3.2717   XZ=              0.0000   YZ=              0.0000

 Normal termination of Gaussian 16 at Sat Aug 27 06:50:10 2022.
