 Gaussian 16, Revision A.03,
 Gaussian 16:  ES64L-G16RevA.03 25-Dec-2016

 ------------------
 #p CCSD(T)/cc-pVTZ
 ------------------

 ------------
 H2O_H2O_2368
 ------------
 Symbolic Z-matrix:
 Charge =  0 Multiplicity = 1

                         Standard orientation:
 ---------------------------------------------------------------------
 Center     Atomic      Atomic             Coordinates (Angstroms)
 Number     Number       Type             X           Y           Z
 ---------------------------------------------------------------------
      1          8           0        0.052844   -2.015245    0.000000
      2          1           0       -0.747991   -2.584604    0.000000
      3          1           0        0.851147   -2.588147    0.000000
      4          8           0        0.052844    2.085524    0.000000
      5          1           0       -0.166709    3.043283    0.000000
      6          1           0       -0.781947    1.567228    0.000000
 ---------------------------------------------------------------------

 SCF Done:  E(RHF) =  -152.107346541     A.U. after   10 cycles
 E2 =    -0.5261496464D+00 EUMP2 =    -0.15263349618771D+03
 CCSD(T)
 CCSD(T)= -0.15266069166D+03

 The electronic state is 1-A'.
 Alpha  occ. eigenvalues --  -20.55549 -20.54472  -1.32831  -1.31760  -0.70242
 Alpha  occ. eigenvalues --   -0.69138  -0.56256  -0.55189  -0.49943  -0.48878
 Alpha virt. eigenvalues --    0.13366   0.15802   0.20073   0.21918   0.53992
 Alpha virt. eigenvalues --    0.54617   0.57264   0.58314   0.65541   0.74163
 Alpha virt. eigenvalues --    0.78862   0.79566   0.80054   0.81908   0.83139

 Mulliken charges:
               1
     1  O   -0.503876
     2  H    0.248866
     3  H    0.256465
     4  O   -0.506417
     5  H    0.246015
     6  H    0.258947
 Sum of Mulliken charges =  -0.00000

 Dipole moment (field-independent basis, Debye):
    X=             -1.7885    Y=             -1.2776    Z=              0.0000  Tot=              2.1980
 Quadrupole moment (field-independent basis, Debye-Ang):
   XX=             -9.5613   YY=              0.9455   ZZ=            -14.7140
   XY=             -3.2656   XZ=              0.0000   YZ=              0.0000

 Normal termination of Gaussian 16 at Sat Aug 27 10:10:21 2022.
