 Gaussian 16, Revision A.03,
 Gaussian 16:  ES64L-G16RevA.03 25-Dec-2016

 ------------------
 #p CCSD(T)/cc-pVTZ
 ------------------

 ------------
 H2O_H2O_2998
 ------------
 Symbolic Z-matrix:
 Charge =  0 Multiplicity = 1

                         Standard orientation:
 ---------------------------------------------------------------------
 Center     Atomic      Atomic             Coordinates (Angstroms)
 Number     Number       Type             X           Y           Z
 ---------------------------------------------------------------------
      1          8           0        0.057101   -2.327962    0.000000
      2          1           0       -0.743645   -2.897445    0.000000
      3          1           0        0.855493   -2.900740    0.000000
      4          8           0        0.057101    2.434482    0.000000
      5          1           0       -0.458792    3.270760    0.000000
      6          1           0       -0.566669    1.675261    0.000000
 ---------------------------------------------------------------------

 SCF Done:  E(RHF) =  -152.108087783     A.U. after   10 cycles
 E2 =    -0.5259386609D+00 EUMP2 =    -0.15263402644348D+03
 CCSD(T)
 CCSD(T)= -0.15266121888D+03

 The electronic state is 1-A'.
 Alpha  occ. eigenvalues --  -20.55890 -20.54718  -1.33181  -1.32019  -0.70587
 Alpha  occ. eigenvalues --   -0.69403  -0.56652  -0.55478  -0.50297  -0.49140
 Alpha virt. eigenvalues --    0.13279   0.15348   0.19920   0.21501   0.53932
 Alpha virt. eigenvalues --    0.54860   0.56965   0.57985   0.66679   0.70350
 Alpha virt. eigenvalues --    0.78596   0.79599   0.79715   0.80315   0.82801

 Mulliken charges:
               1
     1  O   -0.510771
     2  H    0.253123
     3  H    0.258399
     4  O   -0.511331
     5  H    0.249750
     6  H    0.260831
 Sum of Mulliken charges =  -0.00000

 Dipole moment (field-independent basis, Debye):
    X=             -1.9493    Y=             -1.9023    Z=              0.0000  Tot=              2.7237
 Quadrupole moment (field-independent basis, Debye-Ang):
   XX=             -9.8528   YY=              0.0398   ZZ=            -14.7146
   XY=             -4.8127   XZ=              0.0000   YZ=              0.0000

 Normal termination of Gaussian 16 at Fri Aug 26 18:17:14 2022.
