 Gaussian 16, Revision A.03,
 Gaussian 16:  ES64L-G16RevA.03 25-Dec-2016

 ------------------
 #p CCSD(T)/cc-pVTZ
 ------------------

 ------------
 H2O_H2O_1186
 ------------
 Symbolic Z-matrix:
 Charge =  0 Multiplicity = 1

                         Standard orientation:
 ---------------------------------------------------------------------
 Center     Atomic      Atomic             Coordinates (Angstroms)
 Number     Number       Type             X           Y           Z
 ---------------------------------------------------------------------
      1          8           0        0.037689   -1.413203    0.000000
      2          1           0       -0.763177   -1.982517    0.000000
      3          1           0        0.835961   -1.986149    0.000000
      4          8           0        0.037689    1.441378    0.000000
      5          1           0        0.264437    2.397459    0.000000
      6          1           0       -0.940254    1.345805    0.000000
 ---------------------------------------------------------------------

 SCF Done:  E(RHF) =  -152.102005481     A.U. after   11 cycles
 E2 =    -0.5277519765D+00 EUMP2 =    -0.15262975745763D+03
 CCSD(T)
 CCSD(T)= -0.15265700649D+03

 The electronic state is 1-A'.
 Alpha  occ. eigenvalues --  -20.54370 -20.53590  -1.31746  -1.30835  -0.69165
 Alpha  occ. eigenvalues --   -0.68283  -0.55931  -0.53021  -0.48907  -0.47847
 Alpha virt. eigenvalues --    0.14073   0.16918   0.20331   0.22549   0.53103
 Alpha virt. eigenvalues --    0.58070   0.58274   0.59109   0.68005   0.76336
 Alpha virt. eigenvalues --    0.76921   0.77299   0.80974   0.82926   0.85688

 Mulliken charges:
               1
     1  O   -0.476420
     2  H    0.232529
     3  H    0.245267
     4  O   -0.470563
     5  H    0.225759
     6  H    0.243428
 Sum of Mulliken charges =  -0.00000

 Dipole moment (field-independent basis, Debye):
    X=             -1.2169    Y=             -0.5395    Z=              0.0000  Tot=              1.3311
 Quadrupole moment (field-independent basis, Debye-Ang):
   XX=             -8.7764   YY=             -1.5930   ZZ=            -14.7161
   XY=             -1.0560   XZ=              0.0000   YZ=              0.0000

 Normal termination of Gaussian 16 at Sat Aug 27 02:49:32 2022.
