 Gaussian 16, Revision A.03,
 Gaussian 16:  ES64L-G16RevA.03 25-Dec-2016

 ------------------
 #p CCSD(T)/cc-pVTZ
 ------------------

 ------------
 H2O_H2O_4610
 ------------
 Symbolic Z-matrix:
 Charge =  0 Multiplicity = 1

                         Standard orientation:
 ---------------------------------------------------------------------
 Center     Atomic      Atomic             Coordinates (Angstroms)
 Number     Number       Type             X           Y           Z
 ---------------------------------------------------------------------
      1          8           0        0.034779   -3.237262    0.000000
      2          1           0       -0.765318   -3.807657    0.000000
      3          1           0        0.833824   -3.809130    0.000000
      4          8           0        0.034779    3.260802    0.000000
      5          1           0        0.322305    4.200395    0.000000
      6          1           0       -0.947277    3.228068    0.000000
 ---------------------------------------------------------------------

 SCF Done:  E(RHF) =  -152.107035628     A.U. after   10 cycles
 E2 =    -0.5259099503D+00 EUMP2 =    -0.15263294557862D+03
 CCSD(T)
 CCSD(T)= -0.15266017375D+03

 The electronic state is 1-A'.
 Alpha  occ. eigenvalues --  -20.55332 -20.55204  -1.32629  -1.32500  -0.70036
 Alpha  occ. eigenvalues --   -0.69904  -0.56059  -0.55931  -0.49738  -0.49609
 Alpha virt. eigenvalues --    0.14312   0.14444   0.20369   0.20504   0.54530
 Alpha virt. eigenvalues --    0.54669   0.57416   0.57545   0.68156   0.68293
 Alpha virt. eigenvalues --    0.79141   0.79268   0.80580   0.80720   0.82506

 Mulliken charges:
               1
     1  O   -0.506675
     2  H    0.252611
     3  H    0.254064
     4  O   -0.506573
     5  H    0.252176
     6  H    0.254397
 Sum of Mulliken charges =  -0.00000

 Dipole moment (field-independent basis, Debye):
    X=             -1.1955    Y=             -0.4106    Z=              0.0000  Tot=              1.2641
 Quadrupole moment (field-independent basis, Debye-Ang):
   XX=             -8.5636   YY=             12.0096   ZZ=            -14.7111
   XY=             -3.0499   XZ=              0.0000   YZ=              0.0000

 Normal termination of Gaussian 16 at Sat Aug 27 08:19:27 2022.
