 Gaussian 16, Revision A.03,
 Gaussian 16:  ES64L-G16RevA.03 25-Dec-2016

 ------------------
 #p CCSD(T)/cc-pVTZ
 ------------------

 ------------
 H2O_H2O_2784
 ------------
 Symbolic Z-matrix:
 Charge =  0 Multiplicity = 1

                         Standard orientation:
 ---------------------------------------------------------------------
 Center     Atomic      Atomic             Coordinates (Angstroms)
 Number     Number       Type             X           Y           Z
 ---------------------------------------------------------------------
      1          8           0        0.031742   -2.269031    0.000000
      2          1           0       -0.768513   -2.839204    0.000000
      3          1           0        0.830628   -2.841121    0.000000
      4          8           0        0.031742    2.288205    0.000000
      5          1           0        0.380358    3.206885    0.000000
      6          1           0       -0.950344    2.320043    0.000000
 ---------------------------------------------------------------------

 SCF Done:  E(RHF) =  -152.106159940     A.U. after   10 cycles
 E2 =    -0.5260702190D+00 EUMP2 =    -0.15263223015873D+03
 CCSD(T)
 CCSD(T)= -0.15265947025D+03

 The electronic state is 1-A'.
 Alpha  occ. eigenvalues --  -20.54983 -20.54765  -1.32274  -1.32054  -0.69686
 Alpha  occ. eigenvalues --   -0.69457  -0.55664  -0.55432  -0.49377  -0.49158
 Alpha virt. eigenvalues --    0.14166   0.15185   0.20485   0.20956   0.54574
 Alpha virt. eigenvalues --    0.55250   0.57680   0.57922   0.66066   0.71605
 Alpha virt. eigenvalues --    0.79471   0.79740   0.80860   0.81270   0.82537

 Mulliken charges:
               1
     1  O   -0.501374
     2  H    0.248921
     3  H    0.252512
     4  O   -0.500987
     5  H    0.248040
     6  H    0.252887
 Sum of Mulliken charges =  -0.00000

 Dipole moment (field-independent basis, Debye):
    X=             -1.0808    Y=             -0.3412    Z=              0.0000  Tot=              1.1334
 Quadrupole moment (field-independent basis, Debye-Ang):
   XX=             -8.4485   YY=              5.2232   ZZ=            -14.7103
   XY=             -1.6955   XZ=              0.0000   YZ=              0.0000

 Normal termination of Gaussian 16 at Fri Aug 26 16:08:37 2022.
