 Gaussian 16, Revision A.03,
 Gaussian 16:  ES64L-G16RevA.03 25-Dec-2016

 ------------------
 #p CCSD(T)/cc-pVTZ
 ------------------

 ------------
 H2O_H2O_2249
 ------------
 Symbolic Z-matrix:
 Charge =  0 Multiplicity = 1

                         Standard orientation:
 ---------------------------------------------------------------------
 Center     Atomic      Atomic             Coordinates (Angstroms)
 Number     Number       Type             X           Y           Z
 ---------------------------------------------------------------------
      1          8           0        0.057255   -1.925053    0.000000
      2          1           0       -0.743731   -2.494200    0.000000
      3          1           0        0.855407   -2.498167    0.000000
      4          8           0        0.057255    2.038996    0.000000
      5          1           0       -0.511892    2.839981    0.000000
      6          1           0       -0.515859    1.240843    0.000000
 ---------------------------------------------------------------------

 SCF Done:  E(RHF) =  -152.109092280     A.U. after   10 cycles
 E2 =    -0.5261789250D+00 EUMP2 =    -0.15263527120519D+03
 CCSD(T)
 CCSD(T)= -0.15266241676D+03

 The electronic state is 1-A'.
 Alpha  occ. eigenvalues --  -20.56222 -20.54244  -1.33492  -1.31550  -0.70896
 Alpha  occ. eigenvalues --   -0.68919  -0.56987  -0.55026  -0.50615  -0.48681
 Alpha virt. eigenvalues --    0.12879   0.16152   0.19741   0.23271   0.53635
 Alpha virt. eigenvalues --    0.55295   0.56702   0.58570   0.66826   0.72989
 Alpha virt. eigenvalues --    0.78131   0.79318   0.80232   0.80496   0.82782

 Mulliken charges:
               1
     1  O   -0.505911
     2  H    0.251179
     3  H    0.259019
     4  O   -0.515117
     5  H    0.246783
     6  H    0.264047
 Sum of Mulliken charges =  -0.00000

 Dipole moment (field-independent basis, Debye):
    X=             -1.9351    Y=             -2.1013    Z=              0.0000  Tot=              2.8566
 Quadrupole moment (field-independent basis, Debye-Ang):
   XX=             -9.8606   YY=             -2.1810   ZZ=            -14.7185
   XY=             -4.1896   XZ=              0.0000   YZ=              0.0000

 Normal termination of Gaussian 16 at Sat Aug 27 09:26:45 2022.
