 Gaussian 16, Revision A.03,
 Gaussian 16:  ES64L-G16RevA.03 25-Dec-2016

 ------------------
 #p CCSD(T)/cc-pVTZ
 ------------------

 ------------
 H2O_H2O_4608
 ------------
 Symbolic Z-matrix:
 Charge =  0 Multiplicity = 1

                         Standard orientation:
 ---------------------------------------------------------------------
 Center     Atomic      Atomic             Coordinates (Angstroms)
 Number     Number       Type             X           Y           Z
 ---------------------------------------------------------------------
      1          8           0        0.028562   -3.241758    0.000000
      2          1           0       -0.771441   -3.812285    0.000000
      3          1           0        0.827701   -3.813495    0.000000
      4          8           0        0.028562    3.257019    0.000000
      5          1           0        0.436123    4.151111    0.000000
      6          1           0       -0.949381    3.352587    0.000000
 ---------------------------------------------------------------------

 SCF Done:  E(RHF) =  -152.106976231     A.U. after   10 cycles
 E2 =    -0.5259149505D+00 EUMP2 =    -0.15263289118179D+03
 CCSD(T)
 CCSD(T)= -0.15266012063D+03

 The electronic state is 1-A'.
 Alpha  occ. eigenvalues --  -20.55290 -20.55207  -1.32587  -1.32503  -0.69994
 Alpha  occ. eigenvalues --   -0.69908  -0.56014  -0.55931  -0.49695  -0.49612
 Alpha virt. eigenvalues --    0.14349   0.14436   0.20403   0.20490   0.54574
 Alpha virt. eigenvalues --    0.54664   0.57454   0.57537   0.68205   0.68297
 Alpha virt. eigenvalues --    0.79184   0.79266   0.80624   0.80715   0.82551

 Mulliken charges:
               1
     1  O   -0.506322
     2  H    0.252564
     3  H    0.253758
     4  O   -0.506250
     5  H    0.252240
     6  H    0.254011
 Sum of Mulliken charges =  -0.00000

 Dipole moment (field-independent basis, Debye):
    X=             -0.9818    Y=             -0.2661    Z=              0.0000  Tot=              1.0172
 Quadrupole moment (field-independent basis, Debye-Ang):
   XX=             -8.3157   YY=             12.7176   ZZ=            -14.7110
   XY=             -2.4304   XZ=              0.0000   YZ=              0.0000

 Normal termination of Gaussian 16 at Sat Aug 27 08:18:45 2022.
