 Gaussian 16, Revision A.03,
 Gaussian 16:  ES64L-G16RevA.03 25-Dec-2016

 ------------------
 #p CCSD(T)/cc-pVTZ
 ------------------

 -----------
 H2O_H2O_382
 -----------
 Symbolic Z-matrix:
 Charge =  0 Multiplicity = 1

                         Standard orientation:
 ---------------------------------------------------------------------
 Center     Atomic      Atomic             Coordinates (Angstroms)
 Number     Number       Type             X           Y           Z
 ---------------------------------------------------------------------
      1          8           0        0.025273   -0.996698    0.000000
      2          1           0       -0.775535   -1.566094    0.000000
      3          1           0        0.823604   -1.569563    0.000000
      4          8           0        0.025273    1.008368    0.000000
      5          1           0        0.491658    1.873232    0.000000
      6          1           0       -0.944099    1.169062    0.000000
 ---------------------------------------------------------------------

 SCF Done:  E(RHF) =  -152.053205362     A.U. after   11 cycles
 E2 =    -0.5351503026D+00 EUMP2 =    -0.15258835566418D+03
 CCSD(T)
 CCSD(T)= -0.15261516467D+03

 The electronic state is 1-A'.
 Alpha  occ. eigenvalues --  -20.52241 -20.51872  -1.32222  -1.28585  -0.68969
 Alpha  occ. eigenvalues --   -0.66898  -0.60283  -0.49393  -0.45081  -0.44335
 Alpha virt. eigenvalues --    0.14527   0.18241   0.20357   0.23090   0.51804
 Alpha virt. eigenvalues --    0.58374   0.58809   0.65028   0.70066   0.77563
 Alpha virt. eigenvalues --    0.78654   0.82573   0.84007   0.86337   0.87777

 Mulliken charges:
               1
     1  O   -0.437376
     2  H    0.209801
     3  H    0.225354
     4  O   -0.412996
     5  H    0.184251
     6  H    0.230967
 Sum of Mulliken charges =  -0.00000

 Dipole moment (field-independent basis, Debye):
    X=             -0.7359    Y=             -0.2448    Z=              0.0000  Tot=              0.7755
 Quadrupole moment (field-independent basis, Debye-Ang):
   XX=             -8.5011   YY=             -5.7186   ZZ=            -14.7408
   XY=             -0.2934   XZ=              0.0000   YZ=              0.0000

 Normal termination of Gaussian 16 at Fri Aug 26 15:52:52 2022.
