 Gaussian 16, Revision A.03,
 Gaussian 16:  ES64L-G16RevA.03 25-Dec-2016

 ------------------
 #p CCSD(T)/cc-pVTZ
 ------------------

 ------------
 H2O_H2O_1932
 ------------
 Symbolic Z-matrix:
 Charge =  0 Multiplicity = 1

                         Standard orientation:
 ---------------------------------------------------------------------
 Center     Atomic      Atomic             Coordinates (Angstroms)
 Number     Number       Type             X           Y           Z
 ---------------------------------------------------------------------
      1          8           0        0.025268   -1.821018    0.000000
      2          1           0       -0.774983   -2.391198    0.000000
      3          1           0        0.824158   -2.393102    0.000000
      4          8           0        0.025268    1.832738    0.000000
      5          1           0        0.490806    2.698059    0.000000
      6          1           0       -0.944262    1.992483    0.000000
 ---------------------------------------------------------------------

 SCF Done:  E(RHF) =  -152.104855745     A.U. after   10 cycles
 E2 =    -0.5265114869D+00 EUMP2 =    -0.15263136723147D+03
 CCSD(T)
 CCSD(T)= -0.15265860765D+03

 The electronic state is 1-A'.
 Alpha  occ. eigenvalues --  -20.54568 -20.54354  -1.31847  -1.31626  -0.69269
 Alpha  occ. eigenvalues --   -0.69038  -0.55395  -0.54667  -0.48956  -0.48713
 Alpha virt. eigenvalues --    0.14067   0.15988   0.20519   0.21438   0.53382
 Alpha virt. eigenvalues --    0.56300   0.57957   0.58331   0.62212   0.75938
 Alpha virt. eigenvalues --    0.79139   0.79590   0.80774   0.80844   0.83247

 Mulliken charges:
               1
     1  O   -0.489974
     2  H    0.242657
     3  H    0.247672
     4  O   -0.490023
     5  H    0.241736
     6  H    0.247931
 Sum of Mulliken charges =   0.00000

 Dipole moment (field-independent basis, Debye):
    X=             -0.8473    Y=             -0.2160    Z=              0.0000  Tot=              0.8744
 Quadrupole moment (field-independent basis, Debye-Ang):
   XX=             -8.2429   YY=              2.0616   ZZ=            -14.7098
   XY=             -0.9090   XZ=              0.0000   YZ=              0.0000

 Normal termination of Gaussian 16 at Sat Aug 27 07:37:33 2022.
