 Gaussian 16, Revision A.03,
 Gaussian 16:  ES64L-G16RevA.03 25-Dec-2016

 ------------------
 #p CCSD(T)/cc-pVTZ
 ------------------

 -----------
 H2O_H2O_703
 -----------
 Symbolic Z-matrix:
 Charge =  0 Multiplicity = 1

                         Standard orientation:
 ---------------------------------------------------------------------
 Center     Atomic      Atomic             Coordinates (Angstroms)
 Number     Number       Type             X           Y           Z
 ---------------------------------------------------------------------
      1          8           0        0.011143   -1.174702    0.000000
      2          1           0       -0.788893   -1.745182    0.000000
      3          1           0        0.810248   -1.746486    0.000000
      4          8           0        0.011143    1.176879    0.000000
      5          1           0        0.684512    1.892476    0.000000
      6          1           0       -0.884157    1.581778    0.000000
 ---------------------------------------------------------------------

 SCF Done:  E(RHF) =  -152.085901244     A.U. after   11 cycles
 E2 =    -0.5302834013D+00 EUMP2 =    -0.15261618464499D+03
 CCSD(T)
 CCSD(T)= -0.15264343066D+03

 The electronic state is 1-A'.
 Alpha  occ. eigenvalues --  -20.52801 -20.52735  -1.31093  -1.29754  -0.68274
 Alpha  occ. eigenvalues --   -0.67402  -0.57797  -0.48695  -0.48408  -0.46429
 Alpha virt. eigenvalues --    0.14533   0.17737   0.20564   0.22509   0.50456
 Alpha virt. eigenvalues --    0.58926   0.58977   0.63988   0.72331   0.76740
 Alpha virt. eigenvalues --    0.77405   0.80516   0.84183   0.86580   0.86787

 Mulliken charges:
               1
     1  O   -0.455107
     2  H    0.224482
     3  H    0.230051
     4  O   -0.451384
     5  H    0.221024
     6  H    0.230934
 Sum of Mulliken charges =  -0.00000

 Dipole moment (field-independent basis, Debye):
    X=             -0.3429    Y=             -0.0428    Z=              0.0000  Tot=              0.3456
 Quadrupole moment (field-independent basis, Debye-Ang):
   XX=             -8.0939   YY=             -3.6420   ZZ=            -14.7327
   XY=             -0.1420   XZ=              0.0000   YZ=              0.0000

 Normal termination of Gaussian 16 at Fri Aug 26 19:15:06 2022.
