 Gaussian 16, Revision A.03,
 Gaussian 16:  ES64L-G16RevA.03 25-Dec-2016

 ------------------
 #p CCSD(T)/cc-pVTZ
 ------------------

 ------------
 H2O_H2O_1915
 ------------
 Symbolic Z-matrix:
 Charge =  0 Multiplicity = 1

                         Standard orientation:
 ---------------------------------------------------------------------
 Center     Atomic      Atomic             Coordinates (Angstroms)
 Number     Number       Type             X           Y           Z
 ---------------------------------------------------------------------
      1          8           0        0.047545   -1.786632    0.000000
      2          1           0       -0.753312   -2.355959    0.000000
      3          1           0        0.845825   -2.359567    0.000000
      4          8           0        0.047545    1.837183    0.000000
      5          1           0        0.019100    2.819373    0.000000
      6          1           0       -0.872334    1.491743    0.000000
 ---------------------------------------------------------------------

 SCF Done:  E(RHF) =  -152.106416885     A.U. after   10 cycles
 E2 =    -0.5264760730D+00 EUMP2 =    -0.15263289295844D+03
 CCSD(T)
 CCSD(T)= -0.15266009106D+03

 The electronic state is 1-A'.
 Alpha  occ. eigenvalues --  -20.55219 -20.54231  -1.32495  -1.31501  -0.69913
 Alpha  occ. eigenvalues --   -0.68882  -0.55905  -0.54836  -0.49604  -0.48614
 Alpha virt. eigenvalues --    0.13587   0.16188   0.20178   0.22155   0.53566
 Alpha virt. eigenvalues --    0.54858   0.57516   0.58532   0.64217   0.76365
 Alpha virt. eigenvalues --    0.78673   0.78679   0.80242   0.80758   0.85090

 Mulliken charges:
               1
     1  O   -0.495129
     2  H    0.243887
     3  H    0.253273
     4  O   -0.498259
     5  H    0.241007
     6  H    0.255221
 Sum of Mulliken charges =  -0.00000

 Dipole moment (field-independent basis, Debye):
    X=             -1.5913    Y=             -0.9363    Z=              0.0000  Tot=              1.8463
 Quadrupole moment (field-independent basis, Debye-Ang):
   XX=             -9.2404   YY=              0.4958   ZZ=            -14.7136
   XY=             -2.2638   XZ=              0.0000   YZ=              0.0000

 Normal termination of Gaussian 16 at Sat Aug 27 07:31:22 2022.
