 Gaussian 16, Revision A.03,
 Gaussian 16:  ES64L-G16RevA.03 25-Dec-2016

 ------------------
 #p CCSD(T)/cc-pVTZ
 ------------------

 -----------
 H2O_H2O_385
 -----------
 Symbolic Z-matrix:
 Charge =  0 Multiplicity = 1

                         Standard orientation:
 ---------------------------------------------------------------------
 Center     Atomic      Atomic             Coordinates (Angstroms)
 Number     Number       Type             X           Y           Z
 ---------------------------------------------------------------------
      1          8           0        0.034803   -0.990328    0.000000
      2          1           0       -0.766470   -1.559069    0.000000
      3          1           0        0.832665   -1.563845    0.000000
      4          8           0        0.034803    1.013724    0.000000
      5          1           0        0.324269    1.952722    0.000000
      6          1           0       -0.947319    0.983019    0.000000
 ---------------------------------------------------------------------

 SCF Done:  E(RHF) =  -152.055661053     A.U. after   11 cycles
 E2 =    -0.5351175937D+00 EUMP2 =    -0.15259077864711D+03
 CCSD(T)
 CCSD(T)= -0.15261758749D+03

 The electronic state is 1-A'.
 Alpha  occ. eigenvalues --  -20.52701 -20.51919  -1.32589  -1.28633  -0.69502
 Alpha  occ. eigenvalues --   -0.67354  -0.59383  -0.49688  -0.45217  -0.45212
 Alpha virt. eigenvalues --    0.14366   0.18159   0.20228   0.23355   0.52937
 Alpha virt. eigenvalues --    0.57573   0.58511   0.64078   0.70944   0.77033
 Alpha virt. eigenvalues --    0.79076   0.82048   0.83639   0.85838   0.88108

 Mulliken charges:
               1
     1  O   -0.439145
     2  H    0.208931
     3  H    0.227815
     4  O   -0.407933
     5  H    0.175921
     6  H    0.234411
 Sum of Mulliken charges =  -0.00000

 Dipole moment (field-independent basis, Debye):
    X=             -1.0091    Y=             -0.4832    Z=              0.0000  Tot=              1.1188
 Quadrupole moment (field-independent basis, Debye-Ang):
   XX=             -8.8099   YY=             -5.7394   ZZ=            -14.7298
   XY=             -0.5000   XZ=              0.0000   YZ=              0.0000

 Normal termination of Gaussian 16 at Fri Aug 26 15:54:48 2022.
