 Gaussian 16, Revision A.03,
 Gaussian 16:  ES64L-G16RevA.03 25-Dec-2016

 ------------------
 #p CCSD(T)/cc-pVTZ
 ------------------

 -----------
 H2O_H2O_933
 -----------
 Symbolic Z-matrix:
 Charge =  0 Multiplicity = 1

                         Standard orientation:
 ---------------------------------------------------------------------
 Center     Atomic      Atomic             Coordinates (Angstroms)
 Number     Number       Type             X           Y           Z
 ---------------------------------------------------------------------
      1          8           0        0.028571   -1.287294    0.000000
      2          1           0       -0.772083   -1.856907    0.000000
      3          1           0        0.827056   -1.859943    0.000000
      4          8           0        0.028571    1.302489    0.000000
      5          1           0        0.437152    2.196115    0.000000
      6          1           0       -0.949262    1.399175    0.000000
 ---------------------------------------------------------------------

 SCF Done:  E(RHF) =  -152.096547793     A.U. after   11 cycles
 E2 =    -0.5287305854D+00 EUMP2 =    -0.15262527837799D+03
 CCSD(T)
 CCSD(T)= -0.15265255571D+03

 The electronic state is 1-A'.
 Alpha  occ. eigenvalues --  -20.53679 -20.53231  -1.31318  -1.30423  -0.68674
 Alpha  occ. eigenvalues --   -0.67965  -0.56535  -0.51271  -0.48572  -0.47277
 Alpha virt. eigenvalues --    0.14312   0.17249   0.20457   0.22547   0.51994
 Alpha virt. eigenvalues --    0.58462   0.58694   0.61412   0.70627   0.76514
 Alpha virt. eigenvalues --    0.76798   0.78662   0.83544   0.83631   0.86117

 Mulliken charges:
               1
     1  O   -0.468254
     2  H    0.227696
     3  H    0.239763
     4  O   -0.456746
     5  H    0.220098
     6  H    0.237443
 Sum of Mulliken charges =  -0.00000

 Dipole moment (field-independent basis, Debye):
    X=             -0.9027    Y=             -0.2933    Z=              0.0000  Tot=              0.9492
 Quadrupole moment (field-independent basis, Debye-Ang):
   XX=             -8.4509   YY=             -2.5381   ZZ=            -14.7209
   XY=             -0.5688   XZ=              0.0000   YZ=              0.0000

 Normal termination of Gaussian 16 at Fri Aug 26 21:18:39 2022.
