 Gaussian 16, Revision A.03,
 Gaussian 16:  ES64L-G16RevA.03 25-Dec-2016

 ------------------
 #p CCSD(T)/cc-pVTZ
 ------------------

 ------------
 H2O_H2O_1098
 ------------
 Symbolic Z-matrix:
 Charge =  0 Multiplicity = 1

                         Standard orientation:
 ---------------------------------------------------------------------
 Center     Atomic      Atomic             Coordinates (Angstroms)
 Number     Number       Type             X           Y           Z
 ---------------------------------------------------------------------
      1          8           0        0.057182   -1.317563    0.000000
      2          1           0       -0.744428   -1.885830    0.000000
      3          1           0        0.854703   -1.891553    0.000000
      4          8           0        0.057182    1.423910    0.000000
      5          1           0       -0.457441    2.260971    0.000000
      6          1           0       -0.567740    0.665636    0.000000
 ---------------------------------------------------------------------

 SCF Done:  E(RHF) =  -152.107245472     A.U. after   10 cycles
 E2 =    -0.5286078640D+00 EUMP2 =    -0.15263585333621D+03
 CCSD(T)
 CCSD(T)= -0.15266285645D+03

 The electronic state is 1-A'.
 Alpha  occ. eigenvalues --  -20.56773 -20.52536  -1.34260  -1.29936  -0.71624
 Alpha  occ. eigenvalues --   -0.68013  -0.57108  -0.53472  -0.51338  -0.47044
 Alpha virt. eigenvalues --    0.12964   0.17803   0.19447   0.26268   0.51201
 Alpha virt. eigenvalues --    0.56193   0.58128   0.59959   0.70463   0.73984
 Alpha virt. eigenvalues --    0.74484   0.79679   0.82493   0.83793   0.85212

 Mulliken charges:
               1
     1  O   -0.481155
     2  H    0.242025
     3  H    0.258399
     4  O   -0.517469
     5  H    0.229969
     6  H    0.268231
 Sum of Mulliken charges =  -0.00000

 Dipole moment (field-independent basis, Debye):
    X=             -1.8347    Y=             -2.1853    Z=              0.0000  Tot=              2.8534
 Quadrupole moment (field-independent basis, Debye-Ang):
   XX=             -9.8519   YY=             -4.5656   ZZ=            -14.7258
   XY=             -2.8991   XZ=              0.0000   YZ=              0.0000

 Normal termination of Gaussian 16 at Sat Aug 27 02:07:07 2022.
