 Gaussian 16, Revision A.03,
 Gaussian 16:  ES64L-G16RevA.03 25-Dec-2016

 ------------------
 #p CCSD(T)/cc-pVTZ
 ------------------

 ----------
 H2O_H2O_36
 ----------
 Symbolic Z-matrix:
 Charge =  0 Multiplicity = 1

                         Standard orientation:
 ---------------------------------------------------------------------
 Center     Atomic      Atomic             Coordinates (Angstroms)
 Number     Number       Type             X           Y           Z
 ---------------------------------------------------------------------
      1          8           0        0.037713   -0.801658    0.000000
      2          1           0       -0.764121   -1.369608    0.000000
      3          1           0        0.835008   -1.375962    0.000000
      4          8           0        0.037713    0.829704    0.000000
      5          1           0        0.266089    1.785398    0.000000
      6          1           0       -0.940391    0.735797    0.000000
 ---------------------------------------------------------------------

 SCF Done:  E(RHF) =  -151.932006122     A.U. after   12 cycles
 E2 =    -0.5500369522D+00 EUMP2 =    -0.15248204307446D+03
 CCSD(T)
 CCSD(T)= -0.15250676366D+03

 The electronic state is 1-A'.
 Alpha  occ. eigenvalues --  -20.52470 -20.51534  -1.37933  -1.26696  -0.73599
 Alpha  occ. eigenvalues --   -0.69863  -0.60888  -0.53554  -0.43290  -0.35588
 Alpha virt. eigenvalues --    0.14032   0.19111   0.19836   0.23650   0.53632
 Alpha virt. eigenvalues --    0.55560   0.58621   0.65679   0.72858   0.77770
 Alpha virt. eigenvalues --    0.80049   0.82380   0.82441   0.84178   0.89116

 Mulliken charges:
               1
     1  O   -0.337916
     2  H    0.156821
     3  H    0.186384
     4  O   -0.329111
     5  H    0.095792
     6  H    0.228030
 Sum of Mulliken charges =  -0.00000

 Dipole moment (field-independent basis, Debye):
    X=             -1.0161    Y=             -0.6994    Z=              0.0000  Tot=              1.2335
 Quadrupole moment (field-independent basis, Debye-Ang):
   XX=             -9.0866   YY=             -9.0348   ZZ=            -14.6790
   XY=             -0.5337   XZ=              0.0000   YZ=              0.0000

 Normal termination of Gaussian 16 at Fri Aug 26 12:08:53 2022.
