 Gaussian 16, Revision A.03,
 Gaussian 16:  ES64L-G16RevA.03 25-Dec-2016

 ------------------
 #p CCSD(T)/cc-pVTZ
 ------------------

 ------------
 H2O_H2O_4845
 ------------
 Symbolic Z-matrix:
 Charge =  0 Multiplicity = 1

                         Standard orientation:
 ---------------------------------------------------------------------
 Center     Atomic      Atomic             Coordinates (Angstroms)
 Number     Number       Type             X           Y           Z
 ---------------------------------------------------------------------
      1          8           0        0.055227   -3.323815    0.000000
      2          1           0       -0.745149   -3.893819    0.000000
      3          1           0        0.853991   -3.896075    0.000000
      4          8           0        0.055227    3.408322    0.000000
      5          1           0       -0.288202    4.328954    0.000000
      6          1           0       -0.704269    2.784886    0.000000
 ---------------------------------------------------------------------

 SCF Done:  E(RHF) =  -152.107479717     A.U. after   10 cycles
 E2 =    -0.5258687918D+00 EUMP2 =    -0.15263334850873D+03
 CCSD(T)
 CCSD(T)= -0.15266056734D+03

 The electronic state is 1-A'.
 Alpha  occ. eigenvalues --  -20.55638 -20.55211  -1.32937  -1.32509  -0.70343
 Alpha  occ. eigenvalues --   -0.69910  -0.56387  -0.55957  -0.50049  -0.49623
 Alpha virt. eigenvalues --    0.14043   0.14472   0.20123   0.20575   0.54218
 Alpha virt. eigenvalues --    0.54662   0.57143   0.57570   0.67793   0.68238
 Alpha virt. eigenvalues --    0.78830   0.79251   0.80260   0.80713   0.82185

 Mulliken charges:
               1
     1  O   -0.509308
     2  H    0.253664
     3  H    0.255644
     4  O   -0.509076
     5  H    0.252602
     6  H    0.256473
 Sum of Mulliken charges =  -0.00000

 Dipole moment (field-independent basis, Debye):
    X=             -1.8998    Y=             -1.4736    Z=              0.0000  Tot=              2.4043
 Quadrupole moment (field-independent basis, Debye-Ang):
   XX=             -9.7244   YY=              6.7344   ZZ=            -14.7122
   XY=             -6.1262   XZ=              0.0000   YZ=              0.0000

 Normal termination of Gaussian 16 at Sat Aug 27 09:39:38 2022.
