 Gaussian 16, Revision A.03,
 Gaussian 16:  ES64L-G16RevA.03 25-Dec-2016

 ------------------
 #p CCSD(T)/cc-pVTZ
 ------------------

 ------------
 H2O_H2O_2945
 ------------
 Symbolic Z-matrix:
 Charge =  0 Multiplicity = 1

                         Standard orientation:
 ---------------------------------------------------------------------
 Center     Atomic      Atomic             Coordinates (Angstroms)
 Number     Number       Type             X           Y           Z
 ---------------------------------------------------------------------
      1          8           0        0.055252   -2.313361    0.000000
      2          1           0       -0.745468   -2.882880    0.000000
      3          1           0        0.853670   -2.886104    0.000000
      4          8           0        0.055252    2.397801    0.000000
      5          1           0       -0.287619    3.318640    0.000000
      6          1           0       -0.704620    1.774825    0.000000
 ---------------------------------------------------------------------

 SCF Done:  E(RHF) =  -152.107621056     A.U. after   10 cycles
 E2 =    -0.5259674427D+00 EUMP2 =    -0.15263358849892D+03
 CCSD(T)
 CCSD(T)= -0.15266079287D+03

 The electronic state is 1-A'.
 Alpha  occ. eigenvalues --  -20.55677 -20.54733  -1.32969  -1.32029  -0.70376
 Alpha  occ. eigenvalues --   -0.69415  -0.56420  -0.55475  -0.50082  -0.49146
 Alpha virt. eigenvalues --    0.13483   0.15309   0.20043   0.21359   0.54074
 Alpha virt. eigenvalues --    0.54875   0.57139   0.57950   0.66662   0.70767
 Alpha virt. eigenvalues --    0.78805   0.79715   0.79870   0.80744   0.82778

 Mulliken charges:
               1
     1  O   -0.508733
     2  H    0.251867
     3  H    0.257387
     4  O   -0.508987
     5  H    0.249079
     6  H    0.259387
 Sum of Mulliken charges =   0.00000

 Dipole moment (field-independent basis, Debye):
    X=             -1.8851    Y=             -1.5071    Z=              0.0000  Tot=              2.4135
 Quadrupole moment (field-independent basis, Debye-Ang):
   XX=             -9.7226   YY=              1.6410   ZZ=            -14.7135
   XY=             -4.2272   XZ=              0.0000   YZ=              0.0000

 Normal termination of Gaussian 16 at Fri Aug 26 17:41:52 2022.
