 Gaussian 16, Revision A.03,
 Gaussian 16:  ES64L-G16RevA.03 25-Dec-2016

 ------------------
 #p CCSD(T)/cc-pVTZ
 ------------------

 ------------
 H2O_H2O_2111
 ------------
 Symbolic Z-matrix:
 Charge =  0 Multiplicity = 1

                         Standard orientation:
 ---------------------------------------------------------------------
 Center     Atomic      Atomic             Coordinates (Angstroms)
 Number     Number       Type             X           Y           Z
 ---------------------------------------------------------------------
      1          8           0        0.037681   -1.905128    0.000000
      2          1           0       -0.762853   -2.474909    0.000000
      3          1           0        0.836287   -2.477610    0.000000
      4          8           0        0.037681    1.933347    0.000000
      5          1           0        0.263873    2.889561    0.000000
      6          1           0       -0.940206    1.837205    0.000000
 ---------------------------------------------------------------------

 SCF Done:  E(RHF) =  -152.105770025     A.U. after   10 cycles
 E2 =    -0.5263470890D+00 EUMP2 =    -0.15263211711373D+03
 CCSD(T)
 CCSD(T)= -0.15265934211D+03

 The electronic state is 1-A'.
 Alpha  occ. eigenvalues --  -20.54902 -20.54428  -1.32183  -1.31703  -0.69600
 Alpha  occ. eigenvalues --   -0.69100  -0.55598  -0.54984  -0.49287  -0.48807
 Alpha virt. eigenvalues --    0.13843   0.15871   0.20383   0.21507   0.53454
 Alpha virt. eigenvalues --    0.55468   0.57756   0.58270   0.63497   0.75575
 Alpha virt. eigenvalues --    0.79193   0.79765   0.80421   0.81047   0.83260

 Mulliken charges:
               1
     1  O   -0.495745
     2  H    0.244896
     3  H    0.251503
     4  O   -0.496103
     5  H    0.243227
     6  H    0.252223
 Sum of Mulliken charges =   0.00000

 Dipole moment (field-independent basis, Debye):
    X=             -1.2688    Y=             -0.5158    Z=              0.0000  Tot=              1.3696
 Quadrupole moment (field-independent basis, Debye-Ang):
   XX=             -8.7176   YY=              2.1716   ZZ=            -14.7111
   XY=             -1.6654   XZ=              0.0000   YZ=              0.0000

 48751\MP4DQ=-152.6411656\MP4SDQ=-152.644251\CCSD=-152.6436499\CCSD(T)=
 Normal termination of Gaussian 16 at Sat Aug 27 08:39:05 2022.
