 Gaussian 16, Revision A.03,
 Gaussian 16:  ES64L-G16RevA.03 25-Dec-2016

 ------------------
 #p CCSD(T)/cc-pVTZ
 ------------------

 -----------
 H2O_H2O_108
 -----------
 Symbolic Z-matrix:
 Charge =  0 Multiplicity = 1

                         Standard orientation:
 ---------------------------------------------------------------------
 Center     Atomic      Atomic             Coordinates (Angstroms)
 Number     Number       Type             X           Y           Z
 ---------------------------------------------------------------------
      1          8           0        0.028578   -0.848558    0.000000
      2          1           0       -0.772629   -1.417391    0.000000
      3          1           0        0.826506   -1.421984    0.000000
      4          8           0        0.028578    0.863697    0.000000
      5          1           0        0.438029    1.756925    0.000000
      6          1           0       -0.949160    0.961334    0.000000
 ---------------------------------------------------------------------

 SCF Done:  E(RHF) =  -151.970328709     A.U. after   12 cycles
 E2 =    -0.5455207455D+00 EUMP2 =    -0.15251584945411D+03
 CCSD(T)
 CCSD(T)= -0.15254125541D+03

 The electronic state is 1-A'.
 Alpha  occ. eigenvalues --  -20.51817 -20.51363  -1.35523  -1.27154  -0.71271
 Alpha  occ. eigenvalues --   -0.68114  -0.62451  -0.51896  -0.43562  -0.37127
 Alpha virt. eigenvalues --    0.14342   0.19073   0.19925   0.23405   0.52838
 Alpha virt. eigenvalues --    0.56758   0.58856   0.65631   0.70788   0.78471
 Alpha virt. eigenvalues --    0.79661   0.83067   0.83469   0.85360   0.88607

 Mulliken charges:
               1
     1  O   -0.378771
     2  H    0.179066
     3  H    0.199863
     4  O   -0.355264
     5  H    0.132220
     6  H    0.222886
 Sum of Mulliken charges =  -0.00000

 Dipole moment (field-independent basis, Debye):
    X=             -0.7951    Y=             -0.3713    Z=              0.0000  Tot=              0.8775
 Quadrupole moment (field-independent basis, Debye-Ang):
   XX=             -8.7548   YY=             -8.1384   ZZ=            -14.7244
   XY=             -0.3613   XZ=              0.0000   YZ=              0.0000

 Normal termination of Gaussian 16 at Fri Aug 26 12:50:13 2022.
