 Gaussian 16, Revision A.03,
 Gaussian 16:  ES64L-G16RevA.03 25-Dec-2016

 ------------------
 #p CCSD(T)/cc-pVTZ
 ------------------

 ------------
 H2O_H2O_1783
 ------------
 Symbolic Z-matrix:
 Charge =  0 Multiplicity = 1

                         Standard orientation:
 ---------------------------------------------------------------------
 Center     Atomic      Atomic             Coordinates (Angstroms)
 Number     Number       Type             X           Y           Z
 ---------------------------------------------------------------------
      1          8           0        0.028567   -1.739340    0.000000
      2          1           0       -0.771807   -2.309346    0.000000
      3          1           0        0.827334   -2.311597    0.000000
      4          8           0        0.028567    1.754563    0.000000
      5          1           0        0.436710    2.648390    0.000000
      6          1           0       -0.949313    1.850769    0.000000
 ---------------------------------------------------------------------

 SCF Done:  E(RHF) =  -152.104609684     A.U. after   10 cycles
 E2 =    -0.5266557100D+00 EUMP2 =    -0.15263126539419D+03
 CCSD(T)
 CCSD(T)= -0.15265850513D+03

 The electronic state is 1-A'.
 Alpha  occ. eigenvalues --  -20.54543 -20.54240  -1.31823  -1.31508  -0.69247
 Alpha  occ. eigenvalues --   -0.68918  -0.55433  -0.54456  -0.48936  -0.48590
 Alpha virt. eigenvalues --    0.14049   0.16167   0.20478   0.21615   0.53081
 Alpha virt. eigenvalues --    0.56432   0.57990   0.58456   0.62720   0.76515
 Alpha virt. eigenvalues --    0.78849   0.79063   0.80339   0.81203   0.84065

 Mulliken charges:
               1
     1  O   -0.487202
     2  H    0.240719
     3  H    0.247073
     4  O   -0.487293
     5  H    0.239436
     6  H    0.247266
 Sum of Mulliken charges =  -0.00000

 Dipole moment (field-independent basis, Debye):
    X=             -0.9533    Y=             -0.2826    Z=              0.0000  Tot=              0.9943
 Quadrupole moment (field-independent basis, Debye-Ang):
   XX=             -8.3597   YY=              1.3152   ZZ=            -14.7101
   XY=             -0.9832   XZ=              0.0000   YZ=              0.0000

 Normal termination of Gaussian 16 at Sat Aug 27 06:45:53 2022.
