 Gaussian 16, Revision A.03,
 Gaussian 16:  ES64L-G16RevA.03 25-Dec-2016

 ------------------
 #p CCSD(T)/cc-pVTZ
 ------------------

 ------------
 H2O_H2O_3068
 ------------
 Symbolic Z-matrix:
 Charge =  0 Multiplicity = 1

                         Standard orientation:
 ---------------------------------------------------------------------
 Center     Atomic      Atomic             Coordinates (Angstroms)
 Number     Number       Type             X           Y           Z
 ---------------------------------------------------------------------
      1          8           0        0.052832   -2.387511    0.000000
      2          1           0       -0.747809   -2.957143    0.000000
      3          1           0        0.851330   -2.960141    0.000000
      4          8           0        0.052832    2.457827    0.000000
      5          1           0       -0.167047    3.415511    0.000000
      6          1           0       -0.781782    1.939246    0.000000
 ---------------------------------------------------------------------

 SCF Done:  E(RHF) =  -152.107306912     A.U. after   10 cycles
 E2 =    -0.5259617007D+00 EUMP2 =    -0.15263326861229D+03
 CCSD(T)
 CCSD(T)= -0.15266048379D+03

 The electronic state is 1-A'.
 Alpha  occ. eigenvalues --  -20.55532 -20.54804  -1.32827  -1.32098  -0.70235
 Alpha  occ. eigenvalues --   -0.69488  -0.56266  -0.55535  -0.49938  -0.49212
 Alpha virt. eigenvalues --    0.13719   0.15152   0.20141   0.21138   0.54213
 Alpha virt. eigenvalues --    0.54946   0.57247   0.57880   0.66892   0.70300
 Alpha virt. eigenvalues --    0.78946   0.79653   0.80163   0.80883   0.82798

 Mulliken charges:
               1
     1  O   -0.507744
     2  H    0.251495
     3  H    0.256488
     4  O   -0.507480
     5  H    0.249242
     6  H    0.257999
 Sum of Mulliken charges =  -0.00000

 Dipole moment (field-independent basis, Debye):
    X=             -1.8043    Y=             -1.2493    Z=              0.0000  Tot=              2.1946
 Quadrupole moment (field-independent basis, Debye-Ang):
   XX=             -9.5590   YY=              3.0280   ZZ=            -14.7125
   XY=             -3.9275   XZ=              0.0000   YZ=              0.0000

 Normal termination of Gaussian 16 at Fri Aug 26 19:06:44 2022.
