 Gaussian 16, Revision A.03,
 Gaussian 16:  ES64L-G16RevA.03 25-Dec-2016

 ------------------
 #p CCSD(T)/cc-pVTZ
 ------------------

 ------------
 H2O_H2O_2069
 ------------
 Symbolic Z-matrix:
 Charge =  0 Multiplicity = 1

                         Standard orientation:
 ---------------------------------------------------------------------
 Center     Atomic      Atomic             Coordinates (Angstroms)
 Number     Number       Type             X           Y           Z
 ---------------------------------------------------------------------
      1          8           0        0.054178   -1.851912    0.000000
      2          1           0       -0.746797   -2.421073    0.000000
      3          1           0        0.852340   -2.425011    0.000000
      4          8           0        0.054178    1.929155    0.000000
      5          1           0       -0.227314    2.870573    0.000000
      6          1           0       -0.745068    1.357567    0.000000
 ---------------------------------------------------------------------

 SCF Done:  E(RHF) =  -152.107661137     A.U. after   10 cycles
 E2 =    -0.5263184540D+00 EUMP2 =    -0.15263397959132D+03
 CCSD(T)
 CCSD(T)= -0.15266115392D+03

 The electronic state is 1-A'.
 Alpha  occ. eigenvalues --  -20.55685 -20.54246  -1.32958  -1.31530  -0.70370
 Alpha  occ. eigenvalues --   -0.68900  -0.56385  -0.54964  -0.50073  -0.48653
 Alpha virt. eigenvalues --    0.13263   0.16161   0.19980   0.22620   0.54179
 Alpha virt. eigenvalues --    0.54326   0.57146   0.58547   0.65227   0.75187
 Alpha virt. eigenvalues --    0.78509   0.78953   0.80299   0.80437   0.84716

 Mulliken charges:
               1
     1  O   -0.500718
     2  H    0.247227
     3  H    0.256484
     4  O   -0.506834
     5  H    0.243815
     6  H    0.260026
 Sum of Mulliken charges =  -0.00000

 Dipole moment (field-independent basis, Debye):
    X=             -1.8215    Y=             -1.4273    Z=              0.0000  Tot=              2.3141
 Quadrupole moment (field-independent basis, Debye-Ang):
   XX=             -9.6513   YY=             -0.3361   ZZ=            -14.7158
   XY=             -3.1766   XZ=              0.0000   YZ=              0.0000

 Normal termination of Gaussian 16 at Sat Aug 27 08:24:39 2022.
