 Gaussian 16, Revision A.03,
 Gaussian 16:  ES64L-G16RevA.03 25-Dec-2016

 ------------------
 #p CCSD(T)/cc-pVTZ
 ------------------

 ------------
 H2O_H2O_4426
 ------------
 Symbolic Z-matrix:
 Charge =  0 Multiplicity = 1

                         Standard orientation:
 ---------------------------------------------------------------------
 Center     Atomic      Atomic             Coordinates (Angstroms)
 Number     Number       Type             X           Y           Z
 ---------------------------------------------------------------------
      1          8           0        0.003735   -3.156843    0.000000
      2          1           0       -0.795894   -3.727893    0.000000
      3          1           0        0.803248   -3.728056    0.000000
      4          8           0        0.003735    3.157086    0.000000
      5          1           0        0.764305    3.779212    0.000000
      6          1           0       -0.831425    3.674786    0.000000
 ---------------------------------------------------------------------

 SCF Done:  E(RHF) =  -152.106814105     A.U. after   10 cycles
 E2 =    -0.5259305912D+00 EUMP2 =    -0.15263274469607D+03
 CCSD(T)
 CCSD(T)= -0.15265997749D+03

 The electronic state is 1-A'.
 Alpha  occ. eigenvalues --  -20.55188 -20.55187  -1.32484  -1.32482  -0.69891
 Alpha  occ. eigenvalues --   -0.69889  -0.55904  -0.55902  -0.49591  -0.49589
 Alpha virt. eigenvalues --    0.14428   0.14453   0.20479   0.20491   0.54676
 Alpha virt. eigenvalues --    0.54682   0.57542   0.57548   0.68306   0.68361
 Alpha virt. eigenvalues --    0.79288   0.79290   0.80732   0.80734   0.82660

 Mulliken charges:
               1
     1  O   -0.505360
     2  H    0.252595
     3  H    0.252765
     4  O   -0.505359
     5  H    0.252561
     6  H    0.252798
 Sum of Mulliken charges =  -0.00000

 Dipole moment (field-independent basis, Debye):
    X=             -0.1283    Y=             -0.0043    Z=              0.0000  Tot=              0.1284
 Quadrupole moment (field-independent basis, Debye-Ang):
   XX=             -7.8118   YY=             13.2028   ZZ=            -14.7106
   XY=             -0.2884   XZ=              0.0000   YZ=              0.0000

 Normal termination of Gaussian 16 at Sat Aug 27 07:15:19 2022.
