 Gaussian 16, Revision A.03,
 Gaussian 16:  ES64L-G16RevA.03 25-Dec-2016

 ------------------
 #p CCSD(T)/cc-pVTZ
 ------------------

 ------------
 H2O_H2O_3097
 ------------
 Symbolic Z-matrix:
 Charge =  0 Multiplicity = 1

                         Standard orientation:
 ---------------------------------------------------------------------
 Center     Atomic      Atomic             Coordinates (Angstroms)
 Number     Number       Type             X           Y           Z
 ---------------------------------------------------------------------
      1          8           0        0.056724   -2.385181    0.000000
      2          1           0       -0.743989   -2.954711    0.000000
      3          1           0        0.855150   -2.957913    0.000000
      4          8           0        0.056724    2.484271    0.000000
      5          1           0       -0.403420    3.352473    0.000000
      6          1           0       -0.615324    1.767432    0.000000
 ---------------------------------------------------------------------

 SCF Done:  E(RHF) =  -152.107879087     A.U. after   10 cycles
 E2 =    -0.5259299997D+00 EUMP2 =    -0.15263380908674D+03
 CCSD(T)
 CCSD(T)= -0.15266100916D+03

 The electronic state is 1-A'.
 Alpha  occ. eigenvalues --  -20.55802 -20.54772  -1.33096  -1.32071  -0.70502
 Alpha  occ. eigenvalues --   -0.69458  -0.56560  -0.55526  -0.50211  -0.49190
 Alpha virt. eigenvalues --    0.13425   0.15237   0.19974   0.21329   0.53999
 Alpha virt. eigenvalues --    0.54882   0.57029   0.57914   0.66766   0.70098
 Alpha virt. eigenvalues --    0.78679   0.79668   0.79775   0.80414   0.82799

 Mulliken charges:
               1
     1  O   -0.510383
     2  H    0.252911
     3  H    0.257956
     4  O   -0.510435
     5  H    0.249866
     6  H    0.260085
 Sum of Mulliken charges =   0.00000

 Dipole moment (field-independent basis, Debye):
    X=             -1.9380    Y=             -1.7638    Z=              0.0000  Tot=              2.6205
 Quadrupole moment (field-independent basis, Debye-Ang):
   XX=             -9.8262   YY=              0.8820   ZZ=            -14.7140
   XY=             -4.7518   XZ=              0.0000   YZ=              0.0000

 Normal termination of Gaussian 16 at Fri Aug 26 19:24:06 2022.
