 Gaussian 16, Revision A.03,
 Gaussian 16:  ES64L-G16RevA.03 25-Dec-2016

 ------------------
 #p CCSD(T)/cc-pVTZ
 ------------------

 ------------
 H2O_H2O_1567
 ------------
 Symbolic Z-matrix:
 Charge =  0 Multiplicity = 1

                         Standard orientation:
 ---------------------------------------------------------------------
 Center     Atomic      Atomic             Coordinates (Angstroms)
 Number     Number       Type             X           Y           Z
 ---------------------------------------------------------------------
      1          8           0        0.051309   -1.593495    0.000000
      2          1           0       -0.749808   -2.162456    0.000000
      3          1           0        0.849328   -2.166795    0.000000
      4          8           0        0.051309    1.656923    0.000000
      5          1           0       -0.104650    2.627068    0.000000
      6          1           0       -0.815822    1.194766    0.000000
 ---------------------------------------------------------------------

 SCF Done:  E(RHF) =  -152.106585782     A.U. after   10 cycles
 E2 =    -0.5269005637D+00 EUMP2 =    -0.15263348634551D+03
 CCSD(T)
 CCSD(T)= -0.15266066042D+03

 The electronic state is 1-A'.
 Alpha  occ. eigenvalues --  -20.55431 -20.53855  -1.32715  -1.31119  -0.70135
 Alpha  occ. eigenvalues --   -0.68507  -0.56134  -0.54436  -0.49829  -0.48234
 Alpha virt. eigenvalues --    0.13531   0.16662   0.20013   0.23055   0.54328
 Alpha virt. eigenvalues --    0.54875   0.57318   0.58388   0.65653   0.76234
 Alpha virt. eigenvalues --    0.77442   0.77553   0.78874   0.81601   0.84917

 Mulliken charges:
               1
     1  O   -0.489335
     2  H    0.240790
     3  H    0.253327
     4  O   -0.496596
     5  H    0.236115
     6  H    0.255698
 Sum of Mulliken charges =  -0.00000

 Dipole moment (field-independent basis, Debye):
    X=             -1.6934    Y=             -1.2042    Z=              0.0000  Tot=              2.0779
 Quadrupole moment (field-independent basis, Debye-Ang):
   XX=             -9.4780   YY=             -1.2443   ZZ=            -14.7174
   XY=             -2.3338   XZ=              0.0000   YZ=              0.0000

 Normal termination of Gaussian 16 at Sat Aug 27 05:30:48 2022.
