 Gaussian 16, Revision A.03,
 Gaussian 16:  ES64L-G16RevA.03 25-Dec-2016

 ------------------
 #p CCSD(T)/cc-pVTZ
 ------------------

 ------------
 H2O_H2O_4970
 ------------
 Symbolic Z-matrix:
 Charge =  0 Multiplicity = 1

                         Standard orientation:
 ---------------------------------------------------------------------
 Center     Atomic      Atomic             Coordinates (Angstroms)
 Number     Number       Type             X           Y           Z
 ---------------------------------------------------------------------
      1          8           0        0.055226   -3.390293    0.000000
      2          1           0       -0.745135   -3.960319    0.000000
      3          1           0        0.854006   -3.962531    0.000000
      4          8           0        0.055226    3.474803    0.000000
      5          1           0       -0.288228    4.395426    0.000000
      6          1           0       -0.704253    2.851346    0.000000
 ---------------------------------------------------------------------

 SCF Done:  E(RHF) =  -152.107479065     A.U. after   10 cycles
 E2 =    -0.5258676416D+00 EUMP2 =    -0.15263334670678D+03
 CCSD(T)
 CCSD(T)= -0.15266056564D+03

 The electronic state is 1-A'.
 Alpha  occ. eigenvalues --  -20.55638 -20.55228  -1.32937  -1.32527  -0.70343
 Alpha  occ. eigenvalues --   -0.69928  -0.56388  -0.55975  -0.50050  -0.49640
 Alpha virt. eigenvalues --    0.14044   0.14454   0.20122   0.20555   0.54218
 Alpha virt. eigenvalues --    0.54643   0.57142   0.57552   0.67796   0.68218
 Alpha virt. eigenvalues --    0.78830   0.79234   0.80260   0.80694   0.82183

 Mulliken charges:
               1
     1  O   -0.509301
     2  H    0.253716
     3  H    0.255586
     4  O   -0.509087
     5  H    0.252715
     6  H    0.256372
 Sum of Mulliken charges =  -0.00000

 Dipole moment (field-independent basis, Debye):
    X=             -1.9002    Y=             -1.4728    Z=              0.0000  Tot=              2.4041
 Quadrupole moment (field-independent basis, Debye-Ang):
   XX=             -9.7245   YY=              7.0681   ZZ=            -14.7121
   XY=             -6.2518   XZ=              0.0000   YZ=              0.0000

 Normal termination of Gaussian 16 at Sat Aug 27 10:24:14 2022.
