 Gaussian 16, Revision A.03,
 Gaussian 16:  ES64L-G16RevA.03 25-Dec-2016

 ------------------
 #p CCSD(T)/cc-pVTZ
 ------------------

 ------------
 H2O_H2O_4855
 ------------
 Symbolic Z-matrix:
 Charge =  0 Multiplicity = 1

                         Standard orientation:
 ---------------------------------------------------------------------
 Center     Atomic      Atomic             Coordinates (Angstroms)
 Number     Number       Type             X           Y           Z
 ---------------------------------------------------------------------
      1          8           0        0.018360   -3.379722    0.000000
      2          1           0       -0.781478   -3.950481    0.000000
      3          1           0        0.817664   -3.951228    0.000000
      4          8           0        0.018360    3.385767    0.000000
      5          1           0        0.592287    4.183335    0.000000
      6          1           0       -0.922229    3.670015    0.000000
 ---------------------------------------------------------------------

 SCF Done:  E(RHF) =  -152.106976200     A.U. after   10 cycles
 E2 =    -0.5259122640D+00 EUMP2 =    -0.15263288846434D+03
 CCSD(T)
 CCSD(T)= -0.15266011807D+03

 The electronic state is 1-A'.
 Alpha  occ. eigenvalues --  -20.55275 -20.55245  -1.32572  -1.32541  -0.69978
 Alpha  occ. eigenvalues --   -0.69947  -0.55999  -0.55969  -0.49680  -0.49650
 Alpha virt. eigenvalues --    0.14366   0.14397   0.20419   0.20450   0.54589
 Alpha virt. eigenvalues --    0.54622   0.57469   0.57499   0.68223   0.68256
 Alpha virt. eigenvalues --    0.79199   0.79229   0.80640   0.80673   0.82566

 Mulliken charges:
               1
     1  O   -0.506316
     2  H    0.252815
     3  H    0.253501
     4  O   -0.506290
     5  H    0.252649
     6  H    0.253642
 Sum of Mulliken charges =  -0.00000

 Dipole moment (field-independent basis, Debye):
    X=             -0.6314    Y=             -0.1053    Z=              0.0000  Tot=              0.6401
 Quadrupole moment (field-independent basis, Debye-Ang):
   XX=             -8.0132   YY=             14.5141   ZZ=            -14.7109
   XY=             -1.5924   XZ=              0.0000   YZ=              0.0000

 Normal termination of Gaussian 16 at Sat Aug 27 09:43:04 2022.
