 Gaussian 16, Revision A.03,
 Gaussian 16:  ES64L-G16RevA.03 25-Dec-2016

 ------------------
 #p CCSD(T)/cc-pVTZ
 ------------------

 ------------
 H2O_H2O_1922
 ------------
 Symbolic Z-matrix:
 Charge =  0 Multiplicity = 1

                         Standard orientation:
 ---------------------------------------------------------------------
 Center     Atomic      Atomic             Coordinates (Angstroms)
 Number     Number       Type             X           Y           Z
 ---------------------------------------------------------------------
      1          8           0        0.056758   -1.760314    0.000000
      2          1           0       -0.744348   -2.329290    0.000000
      3          1           0        0.854788   -2.333597    0.000000
      4          8           0        0.056758    1.859325    0.000000
      5          1           0       -0.402785    2.727845    0.000000
      6          1           0       -0.615785    1.142951    0.000000
 ---------------------------------------------------------------------

 SCF Done:  E(RHF) =  -152.108810395     A.U. after   10 cycles
 E2 =    -0.5264304938D+00 EUMP2 =    -0.15263524088864D+03
 CCSD(T)
 CCSD(T)= -0.15266238028D+03

 The electronic state is 1-A'.
 Alpha  occ. eigenvalues --  -20.56117 -20.54013  -1.33384  -1.31311  -0.70791
 Alpha  occ. eigenvalues --   -0.68680  -0.56849  -0.54781  -0.50505  -0.48442
 Alpha virt. eigenvalues --    0.13035   0.16467   0.19775   0.23740   0.53464
 Alpha virt. eigenvalues --    0.55321   0.56735   0.58359   0.66290   0.74694
 Alpha virt. eigenvalues --    0.77819   0.78604   0.79189   0.80696   0.84388

 Mulliken charges:
               1
     1  O   -0.500169
     2  H    0.247946
     3  H    0.258010
     4  O   -0.512548
     5  H    0.243526
     6  H    0.263236
 Sum of Mulliken charges =   0.00000

 Dipole moment (field-independent basis, Debye):
    X=             -1.9016    Y=             -1.8577    Z=              0.0000  Tot=              2.6584
 Quadrupole moment (field-independent basis, Debye-Ang):
   XX=             -9.8262   YY=             -1.9810   ZZ=            -14.7193
   XY=             -3.5634   XZ=              0.0000   YZ=              0.0000

 Normal termination of Gaussian 16 at Sat Aug 27 07:33:52 2022.
