 Gaussian 16, Revision A.03,
 Gaussian 16:  ES64L-G16RevA.03 25-Dec-2016

 ------------------
 #p CCSD(T)/cc-pVTZ
 ------------------

 ------------
 H2O_H2O_3427
 ------------
 Symbolic Z-matrix:
 Charge =  0 Multiplicity = 1

                         Standard orientation:
 ---------------------------------------------------------------------
 Center     Atomic      Atomic             Coordinates (Angstroms)
 Number     Number       Type             X           Y           Z
 ---------------------------------------------------------------------
      1          8           0        0.007455   -2.624610    0.000000
      2          1           0       -0.792256   -3.195546    0.000000
      3          1           0        0.806886   -3.195937    0.000000
      4          8           0        0.007455    2.625583    0.000000
      5          1           0        0.725802    3.296019    0.000000
      6          1           0       -0.859711    3.087676    0.000000
 ---------------------------------------------------------------------

 SCF Done:  E(RHF) =  -152.106339359     A.U. after   10 cycles
 E2 =    -0.5259950439D+00 EUMP2 =    -0.15263233440296D+03
 CCSD(T)
 CCSD(T)= -0.15265957593D+03

 The electronic state is 1-A'.
 Alpha  occ. eigenvalues --  -20.54993 -20.54985  -1.32286  -1.32278  -0.69695
 Alpha  occ. eigenvalues --   -0.69687  -0.55686  -0.55671  -0.49390  -0.49382
 Alpha virt. eigenvalues --    0.14469   0.14728   0.20575   0.20664   0.54826
 Alpha virt. eigenvalues --    0.54937   0.57686   0.57729   0.67967   0.69225
 Alpha virt. eigenvalues --    0.79481   0.79500   0.80913   0.80975   0.82777

 Mulliken charges:
               1
     1  O   -0.502577
     2  H    0.251004
     3  H    0.251573
     4  O   -0.502563
     5  H    0.250906
     6  H    0.251656
 Sum of Mulliken charges =   0.00000

 Dipole moment (field-independent basis, Debye):
    X=             -0.2551    Y=             -0.0171    Z=              0.0000  Tot=              0.2557
 Quadrupole moment (field-independent basis, Debye-Ang):
   XX=             -7.8462   YY=              8.8912   ZZ=            -14.7100
   XY=             -0.4426   XZ=              0.0000   YZ=              0.0000

 021\MP4DQ=-152.6414564\MP4SDQ=-152.6445211\CCSD=-152.6439311\CCSD(T)=-
 Normal termination of Gaussian 16 at Fri Aug 26 22:14:40 2022.
