 Gaussian 16, Revision A.03,
 Gaussian 16:  ES64L-G16RevA.03 25-Dec-2016

 ------------------
 #p CCSD(T)/cc-pVTZ
 ------------------

 ------------
 H2O_H2O_3965
 ------------
 Symbolic Z-matrix:
 Charge =  0 Multiplicity = 1

                         Standard orientation:
 ---------------------------------------------------------------------
 Center     Atomic      Atomic             Coordinates (Angstroms)
 Number     Number       Type             X           Y           Z
 ---------------------------------------------------------------------
      1          8           0        0.047524   -2.876854    0.000000
      2          1           0       -0.752851   -3.446860    0.000000
      3          1           0        0.846289   -3.449112    0.000000
      4          8           0        0.047524    2.927486    0.000000
      5          1           0        0.018246    3.909651    0.000000
      6          1           0       -0.872062    2.581266    0.000000
 ---------------------------------------------------------------------

 SCF Done:  E(RHF) =  -152.107135412     A.U. after   10 cycles
 E2 =    -0.5259133144D+00 EUMP2 =    -0.15263304872614D+03
 CCSD(T)
 CCSD(T)= -0.15266027398D+03

 The electronic state is 1-A'.
 Alpha  occ. eigenvalues --  -20.55426 -20.55075  -1.32723  -1.32371  -0.70130
 Alpha  occ. eigenvalues --   -0.69770  -0.56158  -0.55805  -0.49833  -0.49482
 Alpha virt. eigenvalues --    0.14187   0.14611   0.20280   0.20672   0.54429
 Alpha virt. eigenvalues --    0.54810   0.57328   0.57680   0.67949   0.68520
 Alpha virt. eigenvalues --    0.79047   0.79392   0.80482   0.80848   0.82439

 Mulliken charges:
               1
     1  O   -0.507293
     2  H    0.252286
     3  H    0.255010
     4  O   -0.507005
     5  H    0.251234
     6  H    0.255769
 Sum of Mulliken charges =  -0.00000

 Dipole moment (field-independent basis, Debye):
    X=             -1.6309    Y=             -0.8873    Z=              0.0000  Tot=              1.8566
 Quadrupole moment (field-independent basis, Debye-Ang):
   XX=             -9.2247   YY=              7.3884   ZZ=            -14.7115
   XY=             -4.0116   XZ=              0.0000   YZ=              0.0000

 Normal termination of Gaussian 16 at Sat Aug 27 04:36:56 2022.
