 Gaussian 16, Revision A.03,
 Gaussian 16:  ES64L-G16RevA.03 25-Dec-2016

 ------------------
 #p CCSD(T)/cc-pVTZ
 ------------------

 ------------
 H2O_H2O_2801
 ------------
 Symbolic Z-matrix:
 Charge =  0 Multiplicity = 1

                         Standard orientation:
 ---------------------------------------------------------------------
 Center     Atomic      Atomic             Coordinates (Angstroms)
 Number     Number       Type             X           Y           Z
 ---------------------------------------------------------------------
      1          8           0        0.003735   -2.292608    0.000000
      2          1           0       -0.795916   -2.863628    0.000000
      3          1           0        0.803226   -2.863852    0.000000
      4          8           0        0.003735    2.292852    0.000000
      5          1           0        0.764329    2.914949    0.000000
      6          1           0       -0.831405    2.810584    0.000000
 ---------------------------------------------------------------------

 SCF Done:  E(RHF) =  -152.105802541     A.U. after   10 cycles
 E2 =    -0.5260898070D+00 EUMP2 =    -0.15263189234805D+03
 CCSD(T)
 CCSD(T)= -0.15265914129D+03

 The electronic state is 1-A'.
 Alpha  occ. eigenvalues --  -20.54796 -20.54793  -1.32087  -1.32083  -0.69499
 Alpha  occ. eigenvalues --   -0.69495  -0.55497  -0.55405  -0.49190  -0.49180
 Alpha virt. eigenvalues --    0.14370   0.15111   0.20626   0.20852   0.54810
 Alpha virt. eigenvalues --    0.55347   0.57800   0.57915   0.65993   0.71547
 Alpha virt. eigenvalues --    0.79612   0.79763   0.81126   0.81177   0.82337

 Mulliken charges:
               1
     1  O   -0.499341
     2  H    0.249464
     3  H    0.249877
     4  O   -0.499334
     5  H    0.249411
     6  H    0.249923
 Sum of Mulliken charges =   0.00000

 Dipole moment (field-independent basis, Debye):
    X=             -0.1272    Y=             -0.0043    Z=              0.0000  Tot=              0.1273
 Quadrupole moment (field-independent basis, Debye-Ang):
   XX=             -7.8300   YY=              6.2409   ZZ=            -14.7096
   XY=             -0.1791   XZ=              0.0000   YZ=              0.0000

 Normal termination of Gaussian 16 at Fri Aug 26 16:18:28 2022.
