 Gaussian 16, Revision A.03,
 Gaussian 16:  ES64L-G16RevA.03 25-Dec-2016

 ------------------
 #p CCSD(T)/cc-pVTZ
 ------------------

 ----------
 H2O_H2O_93
 ----------
 Symbolic Z-matrix:
 Charge =  0 Multiplicity = 1

                         Standard orientation:
 ---------------------------------------------------------------------
 Center     Atomic      Atomic             Coordinates (Angstroms)
 Number     Number       Type             X           Y           Z
 ---------------------------------------------------------------------
      1          8           0        0.052955   -0.805493    0.000000
      2          1           0       -0.749691   -1.372295    0.000000
      3          1           0        0.849428   -1.380938    0.000000
      4          8           0        0.052955    0.875435    0.000000
      5          1           0       -0.163541    1.833889    0.000000
      6          1           0       -0.783484    0.359803    0.000000
 ---------------------------------------------------------------------

 SCF Done:  E(RHF) =  -151.941659536     A.U. after   12 cycles
 E2 =    -0.5485360943D+00 EUMP2 =    -0.15249019563050D+03
 CCSD(T)
 CCSD(T)= -0.15251529716D+03

 The electronic state is 1-A'.
 Alpha  occ. eigenvalues --  -20.54315 -20.50142  -1.39446  -1.26405  -0.76376
 Alpha  occ. eigenvalues --   -0.71379  -0.54467  -0.54201  -0.43387  -0.41010
 Alpha virt. eigenvalues --    0.13504   0.18901   0.19825   0.24788   0.50964
 Alpha virt. eigenvalues --    0.55483   0.60618   0.66973   0.73184   0.76736
 Alpha virt. eigenvalues --    0.79349   0.81009   0.84023   0.84485   0.88859

 Mulliken charges:
               1
     1  O   -0.319155
     2  H    0.153218
     3  H    0.201752
     4  O   -0.398191
     5  H    0.114343
     6  H    0.248033
 Sum of Mulliken charges =  -0.00000

 Dipole moment (field-independent basis, Debye):
    X=             -1.3835    Y=             -1.6334    Z=              0.0000  Tot=              2.1406
 Quadrupole moment (field-independent basis, Debye-Ang):
   XX=             -9.7042   YY=             -8.5968   ZZ=            -14.5914
   XY=             -1.0865   XZ=              0.0000   YZ=              0.0000

 Normal termination of Gaussian 16 at Fri Aug 26 12:41:18 2022.
