 Gaussian 16, Revision A.03,
 Gaussian 16:  ES64L-G16RevA.03 25-Dec-2016

 ------------------
 #p CCSD(T)/cc-pVTZ
 ------------------

 ------------
 H2O_H2O_1792
 ------------
 Symbolic Z-matrix:
 Charge =  0 Multiplicity = 1

                         Standard orientation:
 ---------------------------------------------------------------------
 Center     Atomic      Atomic             Coordinates (Angstroms)
 Number     Number       Type             X           Y           Z
 ---------------------------------------------------------------------
      1          8           0        0.051304   -1.713149    0.000000
      2          1           0       -0.749708   -2.282258    0.000000
      3          1           0        0.849429   -2.286300    0.000000
      4          8           0        0.051304    1.776595    0.000000
      5          1           0       -0.104836    2.746712    0.000000
      6          1           0       -0.815742    1.314276    0.000000
 ---------------------------------------------------------------------

 SCF Done:  E(RHF) =  -152.106916838     A.U. after   10 cycles
 E2 =    -0.5265889418D+00 EUMP2 =    -0.15263350577993D+03
 CCSD(T)
 CCSD(T)= -0.15266068477D+03

 The electronic state is 1-A'.
 Alpha  occ. eigenvalues --  -20.55448 -20.54076  -1.32722  -1.31347  -0.70139
 Alpha  occ. eigenvalues --   -0.68722  -0.56132  -0.54717  -0.49835  -0.48465
 Alpha virt. eigenvalues --    0.13468   0.16397   0.20050   0.22698   0.54118
 Alpha virt. eigenvalues --    0.54473   0.57324   0.58535   0.64786   0.76296
 Alpha virt. eigenvalues --    0.78222   0.78456   0.78943   0.81015   0.84909

 Mulliken charges:
               1
     1  O   -0.494218
     2  H    0.243451
     3  H    0.254214
     4  O   -0.500309
     5  H    0.239818
     6  H    0.257044
 Sum of Mulliken charges =  -0.00000

 Dipole moment (field-independent basis, Debye):
    X=             -1.7096    Y=             -1.1873    Z=              0.0000  Tot=              2.0814
 Quadrupole moment (field-independent basis, Debye-Ang):
   XX=             -9.4707   YY=             -0.4975   ZZ=            -14.7157
   XY=             -2.5365   XZ=              0.0000   YZ=              0.0000

 Normal termination of Gaussian 16 at Sat Aug 27 06:48:51 2022.
