 Gaussian 16, Revision A.03,
 Gaussian 16:  ES64L-G16RevA.03 25-Dec-2016

 ------------------
 #p CCSD(T)/cc-pVTZ
 ------------------

 ------------
 H2O_H2O_3460
 ------------
 Symbolic Z-matrix:
 Charge =  0 Multiplicity = 1

                         Standard orientation:
 ---------------------------------------------------------------------
 Center     Atomic      Atomic             Coordinates (Angstroms)
 Number     Number       Type             X           Y           Z
 ---------------------------------------------------------------------
      1          8           0        0.034782   -2.625657    0.000000
      2          1           0       -0.765437   -3.195882    0.000000
      3          1           0        0.833704   -3.197696    0.000000
      4          8           0        0.034782    2.649183    0.000000
      5          1           0        0.322508    3.588715    0.000000
      6          1           0       -0.947282    2.616658    0.000000
 ---------------------------------------------------------------------

 SCF Done:  E(RHF) =  -152.106653746     A.U. after   10 cycles
 E2 =    -0.5259696829D+00 EUMP2 =    -0.15263262342865D+03
 CCSD(T)
 CCSD(T)= -0.15265985808D+03

 The electronic state is 1-A'.
 Alpha  occ. eigenvalues --  -20.55173 -20.54976  -1.32468  -1.32269  -0.69876
 Alpha  occ. eigenvalues --   -0.69672  -0.55879  -0.55681  -0.49574  -0.49376
 Alpha virt. eigenvalues --    0.14319   0.14748   0.20445   0.20717   0.54663
 Alpha virt. eigenvalues --    0.54926   0.57541   0.57747   0.67857   0.69114
 Alpha virt. eigenvalues --    0.79304   0.79498   0.80739   0.80971   0.82711

 Mulliken charges:
               1
     1  O   -0.504452
     2  H    0.250913
     3  H    0.253545
     4  O   -0.504186
     5  H    0.250179
     6  H    0.254001
 Sum of Mulliken charges =  -0.00000

 Dipole moment (field-independent basis, Debye):
    X=             -1.1906    Y=             -0.4139    Z=              0.0000  Tot=              1.2605
 Quadrupole moment (field-independent basis, Debye-Ang):
   XX=             -8.5682   YY=              7.6069   ZZ=            -14.7107
   XY=             -2.3264   XZ=              0.0000   YZ=              0.0000

 Normal termination of Gaussian 16 at Fri Aug 26 22:31:53 2022.
