 Gaussian 16, Revision A.03,
 Gaussian 16:  ES64L-G16RevA.03 25-Dec-2016

 ------------------
 #p CCSD(T)/cc-pVTZ
 ------------------

 ------------
 H2O_H2O_3977
 ------------
 Symbolic Z-matrix:
 Charge =  0 Multiplicity = 1

                         Standard orientation:
 ---------------------------------------------------------------------
 Center     Atomic      Atomic             Coordinates (Angstroms)
 Number     Number       Type             X           Y           Z
 ---------------------------------------------------------------------
      1          8           0        0.007455   -2.917120    0.000000
      2          1           0       -0.792242   -3.488076    0.000000
      3          1           0        0.806900   -3.488427    0.000000
      4          8           0        0.007455    2.918094    0.000000
      5          1           0        0.725785    3.588547    0.000000
      6          1           0       -0.859723    3.380165    0.000000
 ---------------------------------------------------------------------

 SCF Done:  E(RHF) =  -152.106643932     A.U. after   10 cycles
 E2 =    -0.5259526438D+00 EUMP2 =    -0.15263259657593D+03
 CCSD(T)
 CCSD(T)= -0.15265983257D+03

 The electronic state is 1-A'.
 Alpha  occ. eigenvalues --  -20.55114 -20.55108  -1.32410  -1.32403  -0.69817
 Alpha  occ. eigenvalues --   -0.69810  -0.55821  -0.55814  -0.49515  -0.49509
 Alpha virt. eigenvalues --    0.14463   0.14542   0.20522   0.20554   0.54744
 Alpha virt. eigenvalues --    0.54770   0.57600   0.57617   0.68310   0.68556
 Alpha virt. eigenvalues --    0.79363   0.79369   0.80808   0.80820   0.82738

 Mulliken charges:
               1
     1  O   -0.504361
     2  H    0.251969
     3  H    0.252392
     4  O   -0.504353
     5  H    0.251887
     6  H    0.252466
 Sum of Mulliken charges =  -0.00000

 Dipole moment (field-independent basis, Debye):
    X=             -0.2558    Y=             -0.0170    Z=              0.0000  Tot=              0.2563
 Quadrupole moment (field-independent basis, Debye-Ang):
   XX=             -7.8409   YY=             11.2367   ZZ=            -14.7104
   XY=             -0.5165   XZ=              0.0000   YZ=              0.0000

 Normal termination of Gaussian 16 at Sat Aug 27 04:41:26 2022.
