 Gaussian 16, Revision A.03,
 Gaussian 16:  ES64L-G16RevA.03 25-Dec-2016

 ------------------
 #p CCSD(T)/cc-pVTZ
 ------------------

 ------------
 H2O_H2O_1751
 ------------
 Symbolic Z-matrix:
 Charge =  0 Multiplicity = 1

                         Standard orientation:
 ---------------------------------------------------------------------
 Center     Atomic      Atomic             Coordinates (Angstroms)
 Number     Number       Type             X           Y           Z
 ---------------------------------------------------------------------
      1          8           0        0.003735   -1.734180    0.000000
      2          1           0       -0.795941   -2.305164    0.000000
      3          1           0        0.803200   -2.305461    0.000000
      4          8           0        0.003735    1.734424    0.000000
      5          1           0        0.764357    2.356487    0.000000
      6          1           0       -0.831382    2.252193    0.000000
 ---------------------------------------------------------------------

 SCF Done:  E(RHF) =  -152.103853858     A.U. after   10 cycles
 E2 =    -0.5267018408D+00 EUMP2 =    -0.15263055569838D+03
 CCSD(T)
 CCSD(T)= -0.15265781588D+03

 The electronic state is 1-A'.
 Alpha  occ. eigenvalues --  -20.54255 -20.54250  -1.31564  -1.31500  -0.68986
 Alpha  occ. eigenvalues --   -0.68931  -0.55325  -0.54217  -0.48708  -0.48538
 Alpha virt. eigenvalues --    0.14258   0.16147   0.20606   0.21452   0.53237
 Alpha virt. eigenvalues --    0.57828   0.58029   0.58434   0.61205   0.75908
 Alpha virt. eigenvalues --    0.78939   0.79343   0.80160   0.81356   0.84149

 Mulliken charges:
               1
     1  O   -0.484003
     2  H    0.241585
     3  H    0.242428
     4  O   -0.483999
     5  H    0.241537
     6  H    0.242452
 Sum of Mulliken charges =  -0.00000

 Dipole moment (field-independent basis, Debye):
    X=             -0.1246    Y=             -0.0045    Z=              0.0000  Tot=              0.1247
 Quadrupole moment (field-independent basis, Debye-Ang):
   XX=             -7.8689   YY=              1.6204   ZZ=            -14.7088
   XY=             -0.1097   XZ=              0.0000   YZ=              0.0000

 Normal termination of Gaussian 16 at Sat Aug 27 06:35:04 2022.
