 Gaussian 16, Revision A.03,
 Gaussian 16:  ES64L-G16RevA.03 25-Dec-2016

 ------------------
 #p CCSD(T)/cc-pVTZ
 ------------------

 ------------
 H2O_H2O_2811
 ------------
 Symbolic Z-matrix:
 Charge =  0 Multiplicity = 1

                         Standard orientation:
 ---------------------------------------------------------------------
 Center     Atomic      Atomic             Coordinates (Angstroms)
 Number     Number       Type             X           Y           Z
 ---------------------------------------------------------------------
      1          8           0        0.037677   -2.277403    0.000000
      2          1           0       -0.762701   -2.847403    0.000000
      3          1           0        0.836440   -2.849665    0.000000
      4          8           0        0.037677    2.305643    0.000000
      5          1           0        0.263606    3.261918    0.000000
      6          1           0       -0.940184    2.209232    0.000000
 ---------------------------------------------------------------------

 SCF Done:  E(RHF) =  -152.106366704     A.U. after   10 cycles
 E2 =    -0.5260530310D+00 EUMP2 =    -0.15263241973500D+03
 CCSD(T)
 CCSD(T)= -0.15265965519D+03

 The electronic state is 1-A'.
 Alpha  occ. eigenvalues --  -20.55084 -20.54764  -1.32376  -1.32053  -0.69786
 Alpha  occ. eigenvalues --   -0.69453  -0.55772  -0.55446  -0.49480  -0.49159
 Alpha virt. eigenvalues --    0.14073   0.15196   0.20416   0.21002   0.54487
 Alpha virt. eigenvalues --    0.55175   0.57606   0.57919   0.66254   0.71479
 Alpha virt. eigenvalues --    0.79380   0.79727   0.80719   0.81344   0.82680

 Mulliken charges:
               1
     1  O   -0.502535
     2  H    0.249213
     3  H    0.253417
     4  O   -0.502101
     5  H    0.248033
     6  H    0.253972
 Sum of Mulliken charges =   0.00000

 Dipole moment (field-independent basis, Debye):
    X=             -1.2833    Y=             -0.5026    Z=              0.0000  Tot=              1.3782
 Quadrupole moment (field-independent basis, Debye-Ang):
   XX=             -8.7046   YY=              4.8431   ZZ=            -14.7107
   XY=             -2.1362   XZ=              0.0000   YZ=              0.0000

 Normal termination of Gaussian 16 at Fri Aug 26 16:24:01 2022.
