 Gaussian 16, Revision A.03,
 Gaussian 16:  ES64L-G16RevA.03 25-Dec-2016

 ------------------
 #p CCSD(T)/cc-pVTZ
 ------------------

 ------------
 H2O_H2O_2138
 ------------
 Symbolic Z-matrix:
 Charge =  0 Multiplicity = 1

                         Standard orientation:
 ---------------------------------------------------------------------
 Center     Atomic      Atomic             Coordinates (Angstroms)
 Number     Number       Type             X           Y           Z
 ---------------------------------------------------------------------
      1          8           0        0.042977   -1.912706    0.000000
      2          1           0       -0.757685   -2.482308    0.000000
      3          1           0        0.841454   -2.485367    0.000000
      4          8           0        0.042977    1.951454    0.000000
      5          1           0        0.142642    2.928988    0.000000
      6          1           0       -0.914045    1.728707    0.000000
 ---------------------------------------------------------------------

 SCF Done:  E(RHF) =  -152.106167702     A.U. after   10 cycles
 E2 =    -0.5263141409D+00 EUMP2 =    -0.15263248184265D+03
 CCSD(T)
 CCSD(T)= -0.15265969782D+03

 The electronic state is 1-A'.
 Alpha  occ. eigenvalues --  -20.55069 -20.54419  -1.32349  -1.31695  -0.69765
 Alpha  occ. eigenvalues --   -0.69084  -0.55750  -0.55031  -0.49455  -0.48803
 Alpha virt. eigenvalues --    0.13711   0.15892   0.20296   0.21644   0.53474
 Alpha virt. eigenvalues --    0.55175   0.57635   0.58306   0.64035   0.75564
 Alpha virt. eigenvalues --    0.79104   0.79602   0.80353   0.81160   0.83653

 Mulliken charges:
               1
     1  O   -0.497554
     2  H    0.245553
     3  H    0.252929
     4  O   -0.498484
     5  H    0.243481
     6  H    0.254076
 Sum of Mulliken charges =  -0.00000

 Dipole moment (field-independent basis, Debye):
    X=             -1.4477    Y=             -0.7081    Z=              0.0000  Tot=              1.6116
 Quadrupole moment (field-independent basis, Debye-Ang):
   XX=             -8.9803   YY=              1.8183   ZZ=            -14.7119
   XY=             -2.0596   XZ=              0.0000   YZ=              0.0000

 Normal termination of Gaussian 16 at Sat Aug 27 08:48:06 2022.
