 Gaussian 16, Revision A.03,
 Gaussian 16:  ES64L-G16RevA.03 25-Dec-2016

 ------------------
 #p CCSD(T)/cc-pVTZ
 ------------------

 ------------
 H2O_H2O_4227
 ------------
 Symbolic Z-matrix:
 Charge =  0 Multiplicity = 1

                         Standard orientation:
 ---------------------------------------------------------------------
 Center     Atomic      Atomic             Coordinates (Angstroms)
 Number     Number       Type             X           Y           Z
 ---------------------------------------------------------------------
      1          8           0        0.007455   -3.050079    0.000000
      2          1           0       -0.792236   -3.621042    0.000000
      3          1           0        0.806906   -3.621379    0.000000
      4          8           0        0.007455    3.051053    0.000000
      5          1           0        0.725779    3.721513    0.000000
      6          1           0       -0.859727    3.513116    0.000000
 ---------------------------------------------------------------------

 SCF Done:  E(RHF) =  -152.106748042     A.U. after   10 cycles
 E2 =    -0.5259391800D+00 EUMP2 =    -0.15263268722225D+03
 CCSD(T)
 CCSD(T)= -0.15265992125D+03

 The electronic state is 1-A'.
 Alpha  occ. eigenvalues --  -20.55160 -20.55154  -1.32455  -1.32449  -0.69862
 Alpha  occ. eigenvalues --   -0.69856  -0.55872  -0.55866  -0.49562  -0.49556
 Alpha virt. eigenvalues --    0.14444   0.14488   0.20497   0.20517   0.54704
 Alpha virt. eigenvalues --    0.54717   0.57565   0.57576   0.68318   0.68428
 Alpha virt. eigenvalues --    0.79317   0.79323   0.80762   0.80769   0.82692

 Mulliken charges:
               1
     1  O   -0.504973
     2  H    0.252300
     3  H    0.252673
     4  O   -0.504966
     5  H    0.252224
     6  H    0.252741
 Sum of Mulliken charges =  -0.00000

 Dipole moment (field-independent basis, Debye):
    X=             -0.2560    Y=             -0.0170    Z=              0.0000  Tot=              0.2565
 Quadrupole moment (field-independent basis, Debye-Ang):
   XX=             -7.8392   YY=             12.2989   ZZ=            -14.7106
   XY=             -0.5502   XZ=              0.0000   YZ=              0.0000

 Normal termination of Gaussian 16 at Sat Aug 27 06:08:09 2022.
