 Gaussian 16, Revision A.03,
 Gaussian 16:  ES64L-G16RevA.03 25-Dec-2016

 ------------------
 #p CCSD(T)/cc-pVTZ
 ------------------

 ------------
 H2O_H2O_2190
 ------------
 Symbolic Z-matrix:
 Charge =  0 Multiplicity = 1

                         Standard orientation:
 ---------------------------------------------------------------------
 Center     Atomic      Atomic             Coordinates (Angstroms)
 Number     Number       Type             X           Y           Z
 ---------------------------------------------------------------------
      1          8           0        0.047541   -1.932879    0.000000
      2          1           0       -0.753221   -2.502340    0.000000
      3          1           0        0.845918   -2.505679    0.000000
      4          8           0        0.047541    1.983446    0.000000
      5          1           0        0.018930    2.965631    0.000000
      6          1           0       -0.872280    1.637850    0.000000
 ---------------------------------------------------------------------

 SCF Done:  E(RHF) =  -152.106624986     A.U. after   10 cycles
 E2 =    -0.5262654619D+00 EUMP2 =    -0.15263289044786D+03
 CCSD(T)
 CCSD(T)= -0.15266009712D+03

 The electronic state is 1-A'.
 Alpha  occ. eigenvalues --  -20.55257 -20.54419  -1.32537  -1.31698  -0.69951
 Alpha  occ. eigenvalues --   -0.69081  -0.55938  -0.55079  -0.49645  -0.48811
 Alpha virt. eigenvalues --    0.13570   0.15894   0.20204   0.21793   0.53625
 Alpha virt. eigenvalues --    0.54896   0.57492   0.58336   0.64584   0.75325
 Alpha virt. eigenvalues --    0.79008   0.79501   0.80259   0.81342   0.84006

 Mulliken charges:
               1
     1  O   -0.499735
     2  H    0.246566
     3  H    0.254390
     4  O   -0.501442
     5  H    0.244137
     6  H    0.256085
 Sum of Mulliken charges =  -0.00000

 Dipole moment (field-independent basis, Debye):
    X=             -1.6031    Y=             -0.9235    Z=              0.0000  Tot=              1.8501
 Quadrupole moment (field-independent basis, Debye-Ang):
   XX=             -9.2342   YY=              1.4436   ZZ=            -14.7128
   XY=             -2.4963   XZ=              0.0000   YZ=              0.0000

 Normal termination of Gaussian 16 at Sat Aug 27 09:07:17 2022.
