 Gaussian 16, Revision A.03,
 Gaussian 16:  ES64L-G16RevA.03 25-Dec-2016

 ------------------
 #p CCSD(T)/cc-pVTZ
 ------------------

 -----------
 H2O_H2O_248
 -----------
 Symbolic Z-matrix:
 Charge =  0 Multiplicity = 1

                         Standard orientation:
 ---------------------------------------------------------------------
 Center     Atomic      Atomic             Coordinates (Angstroms)
 Number     Number       Type             X           Y           Z
 ---------------------------------------------------------------------
      1          8           0        0.057275   -0.865607    0.000000
      2          1           0       -0.745334   -1.432461    0.000000
      3          1           0        0.853785   -1.441001    0.000000
      4          8           0        0.057275    0.971753    0.000000
      5          1           0       -0.455872    1.809718    0.000000
      6          1           0       -0.568981    0.214580    0.000000
 ---------------------------------------------------------------------

 SCF Done:  E(RHF) =  -151.986645522     A.U. after   11 cycles
 E2 =    -0.5437909541D+00 EUMP2 =    -0.15253043647612D+03
 CCSD(T)
 CCSD(T)= -0.15255563742D+03

 The electronic state is 1-A'.
 Alpha  occ. eigenvalues --  -20.57136 -20.47460  -1.40277  -1.25962  -0.78042
 Alpha  occ. eigenvalues --   -0.72447  -0.55005  -0.50266  -0.46747  -0.42821
 Alpha virt. eigenvalues --    0.12562   0.18109   0.20295   0.27283   0.48788
 Alpha virt. eigenvalues --    0.53566   0.63262   0.69205   0.73159   0.75046
 Alpha virt. eigenvalues --    0.78244   0.78570   0.84139   0.85537   0.88421

 Mulliken charges:
               1
     1  O   -0.317814
     2  H    0.184952
     3  H    0.229029
     4  O   -0.529589
     5  H    0.161761
     6  H    0.271661
 Sum of Mulliken charges =  -0.00000

 Dipole moment (field-independent basis, Debye):
    X=             -1.5653    Y=             -2.7736    Z=              0.0000  Tot=              3.1848
 Quadrupole moment (field-independent basis, Debye-Ang):
   XX=             -9.8198   YY=             -8.0845   ZZ=            -14.5713
   XY=             -1.9829   XZ=              0.0000   YZ=              0.0000

 Normal termination of Gaussian 16 at Fri Aug 26 14:29:34 2022.
