 Gaussian 16, Revision A.03,
 Gaussian 16:  ES64L-G16RevA.03 25-Dec-2016

 ------------------
 #p CCSD(T)/cc-pVTZ
 ------------------

 ------------
 H2O_H2O_2833
 ------------
 Symbolic Z-matrix:
 Charge =  0 Multiplicity = 1

                         Standard orientation:
 ---------------------------------------------------------------------
 Center     Atomic      Atomic             Coordinates (Angstroms)
 Number     Number       Type             X           Y           Z
 ---------------------------------------------------------------------
      1          8           0        0.028565   -2.297758    0.000000
      2          1           0       -0.771615   -2.868037    0.000000
      3          1           0        0.827526   -2.869742    0.000000
      4          8           0        0.028565    2.313001    0.000000
      5          1           0        0.436402    3.206967    0.000000
      6          1           0       -0.949349    2.408872    0.000000
 ---------------------------------------------------------------------

 SCF Done:  E(RHF) =  -152.106119978     A.U. after   10 cycles
 E2 =    -0.5260644298D+00 EUMP2 =    -0.15263218440742D+03
 CCSD(T)
 CCSD(T)= -0.15265942633D+03

 The electronic state is 1-A'.
 Alpha  occ. eigenvalues --  -20.54956 -20.54788  -1.32248  -1.32077  -0.69659
 Alpha  occ. eigenvalues --   -0.69482  -0.55637  -0.55454  -0.49350  -0.49181
 Alpha virt. eigenvalues --    0.14228   0.15131   0.20516   0.20910   0.54648
 Alpha virt. eigenvalues --    0.55242   0.57700   0.57905   0.66251   0.71333
 Alpha virt. eigenvalues --    0.79500   0.79716   0.80911   0.81229   0.82524

 Mulliken charges:
               1
     1  O   -0.501203
     2  H    0.249056
     3  H    0.252184
     4  O   -0.500873
     5  H    0.248336
     6  H    0.252500
 Sum of Mulliken charges =  -0.00000

 Dipole moment (field-independent basis, Debye):
    X=             -0.9731    Y=             -0.2708    Z=              0.0000  Tot=              1.0101
 Quadrupole moment (field-independent basis, Debye-Ang):
   XX=             -8.3285   YY=              5.6231   ZZ=            -14.7102
   XY=             -1.5162   XZ=              0.0000   YZ=              0.0000

 Normal termination of Gaussian 16 at Fri Aug 26 16:35:56 2022.
