 Gaussian 16, Revision A.03,
 Gaussian 16:  ES64L-G16RevA.03 25-Dec-2016

 ------------------
 #p CCSD(T)/cc-pVTZ
 ------------------

 ------------
 H2O_H2O_2473
 ------------
 Symbolic Z-matrix:
 Charge =  0 Multiplicity = 1

                         Standard orientation:
 ---------------------------------------------------------------------
 Center     Atomic      Atomic             Coordinates (Angstroms)
 Number     Number       Type             X           Y           Z
 ---------------------------------------------------------------------
      1          8           0        0.057115   -2.048764    0.000000
      2          1           0       -0.743786   -2.618028    0.000000
      3          1           0        0.855351   -2.621761    0.000000
      4          8           0        0.057115    2.155253    0.000000
      5          1           0       -0.458549    2.991672    0.000000
      6          1           0       -0.566862    1.396202    0.000000
 ---------------------------------------------------------------------

 SCF Done:  E(RHF) =  -152.108525017     A.U. after   10 cycles
 E2 =    -0.5260777647D+00 EUMP2 =    -0.15263460278153D+03
 CCSD(T)
 CCSD(T)= -0.15266177009D+03

 The electronic state is 1-A'.
 Alpha  occ. eigenvalues --  -20.56027 -20.54434  -1.33305  -1.31736  -0.70710
 Alpha  occ. eigenvalues --   -0.69109  -0.56782  -0.55201  -0.50425  -0.48861
 Alpha virt. eigenvalues --    0.13001   0.15860   0.19839   0.22451   0.53922
 Alpha virt. eigenvalues --    0.54853   0.56882   0.58468   0.66517   0.72446
 Alpha virt. eigenvalues --    0.78434   0.79357   0.80010   0.80954   0.82374

 Mulliken charges:
               1
     1  O   -0.507790
     2  H    0.251603
     3  H    0.258708
     4  O   -0.512803
     5  H    0.247734
     6  H    0.262548
 Sum of Mulliken charges =  -0.00000

 Dipole moment (field-independent basis, Debye):
    X=             -1.9376    Y=             -1.9389    Z=              0.0000  Tot=              2.7411
 Quadrupole moment (field-independent basis, Debye-Ang):
   XX=             -9.8520   YY=             -1.1511   ZZ=            -14.7166
   XY=             -4.2763   XZ=              0.0000   YZ=              0.0000

 Normal termination of Gaussian 16 at Sat Aug 27 10:45:06 2022.
