 Gaussian 16, Revision A.03,
 Gaussian 16:  ES64L-G16RevA.03 25-Dec-2016

 ------------------
 #p CCSD(T)/cc-pVTZ
 ------------------

 -----------
 H2O_H2O_661
 -----------
 Symbolic Z-matrix:
 Charge =  0 Multiplicity = 1

                         Standard orientation:
 ---------------------------------------------------------------------
 Center     Atomic      Atomic             Coordinates (Angstroms)
 Number     Number       Type             X           Y           Z
 ---------------------------------------------------------------------
      1          8           0        0.037697   -1.134010    0.000000
      2          1           0       -0.763483   -1.702882    0.000000
      3          1           0        0.835653   -1.707398    0.000000
      4          8           0        0.037697    1.162144    0.000000
      5          1           0        0.264973    2.118100    0.000000
      6          1           0       -0.940299    1.067111    0.000000
 ---------------------------------------------------------------------

 SCF Done:  E(RHF) =  -152.086700011     A.U. after   11 cycles
 E2 =    -0.5307735561D+00 EUMP2 =    -0.15261747356691D+03
 CCSD(T)
 CCSD(T)= -0.15264463709D+03

 The electronic state is 1-A'.
 Alpha  occ. eigenvalues --  -20.53586 -20.52636  -1.31805  -1.29728  -0.69057
 Alpha  occ. eigenvalues --   -0.67650  -0.57456  -0.49487  -0.49045  -0.46493
 Alpha virt. eigenvalues --    0.14233   0.17649   0.20296   0.23185   0.52903
 Alpha virt. eigenvalues --    0.58029   0.58269   0.62202   0.70766   0.76048
 Alpha virt. eigenvalues --    0.77991   0.80718   0.83615   0.85876   0.87553

 Mulliken charges:
               1
     1  O   -0.461704
     2  H    0.221709
     3  H    0.239582
     4  O   -0.440495
     5  H    0.200865
     6  H    0.240043
 Sum of Mulliken charges =   0.00000

 Dipole moment (field-independent basis, Debye):
    X=             -1.1477    Y=             -0.5560    Z=              0.0000  Tot=              1.2753
 Quadrupole moment (field-independent basis, Debye-Ang):
   XX=             -8.8580   YY=             -4.1039   ZZ=            -14.7288
   XY=             -0.7308   XZ=              0.0000   YZ=              0.0000

 6523\MP4DQ=-152.6257107\MP4SDQ=-152.629023\CCSD=-152.6283396\CCSD(T)=-
 Normal termination of Gaussian 16 at Fri Aug 26 18:47:26 2022.
