 Gaussian 16, Revision A.03,
 Gaussian 16:  ES64L-G16RevA.03 25-Dec-2016

 ------------------
 #p CCSD(T)/cc-pVTZ
 ------------------

 ------------
 H2O_H2O_4062
 ------------
 Symbolic Z-matrix:
 Charge =  0 Multiplicity = 1

                         Standard orientation:
 ---------------------------------------------------------------------
 Center     Atomic      Atomic             Coordinates (Angstroms)
 Number     Number       Type             X           Y           Z
 ---------------------------------------------------------------------
      1          8           0        0.040405   -2.939418    0.000000
      2          1           0       -0.759837   -3.509609    0.000000
      3          1           0        0.839304   -3.511489    0.000000
      4          8           0        0.040405    2.972779    0.000000
      5          1           0        0.203076    3.941822    0.000000
      6          1           0       -0.929019    2.812388    0.000000
 ---------------------------------------------------------------------

 SCF Done:  E(RHF) =  -152.106984007     A.U. after   10 cycles
 E2 =    -0.5259233387D+00 EUMP2 =    -0.15263290734603D+03
 CCSD(T)
 CCSD(T)= -0.15266013607D+03

 The electronic state is 1-A'.
 Alpha  occ. eigenvalues --  -20.55327 -20.55106  -1.32624  -1.32401  -0.70031
 Alpha  occ. eigenvalues --   -0.69803  -0.56052  -0.55829  -0.49732  -0.49510
 Alpha virt. eigenvalues --    0.14292   0.14555   0.20361   0.20606   0.54533
 Alpha virt. eigenvalues --    0.54776   0.57416   0.57640   0.68107   0.68462
 Alpha virt. eigenvalues --    0.79147   0.79365   0.80586   0.80826   0.82520

 Mulliken charges:
               1
     1  O   -0.506388
     2  H    0.252089
     3  H    0.254299
     4  O   -0.506185
     5  H    0.251373
     6  H    0.254812
 Sum of Mulliken charges =  -0.00000

 Dipole moment (field-independent basis, Debye):
    X=             -1.3869    Y=             -0.5839    Z=              0.0000  Tot=              1.5048
 Quadrupole moment (field-independent basis, Debye-Ang):
   XX=             -8.8311   YY=              9.1421   ZZ=            -14.7111
   XY=             -3.2649   XZ=              0.0000   YZ=              0.0000

 Normal termination of Gaussian 16 at Sat Aug 27 05:10:22 2022.
