 Gaussian 16, Revision A.03,
 Gaussian 16:  ES64L-G16RevA.03 25-Dec-2016

 ------------------
 #p CCSD(T)/cc-pVTZ
 ------------------

 -----------
 H2O_H2O_774
 -----------
 Symbolic Z-matrix:
 Charge =  0 Multiplicity = 1

                         Standard orientation:
 ---------------------------------------------------------------------
 Center     Atomic      Atomic             Coordinates (Angstroms)
 Number     Number       Type             X           Y           Z
 ---------------------------------------------------------------------
      1          8           0        0.057347   -1.140691    0.000000
      2          1           0       -0.744562   -1.708536    0.000000
      3          1           0        0.854567   -1.715101    0.000000
      4          8           0        0.057347    1.254448    0.000000
      5          1           0       -0.510497    2.056358    0.000000
      6          1           0       -0.517063    0.457228    0.000000
 ---------------------------------------------------------------------

 SCF Done:  E(RHF) =  -152.096487773     A.U. after   11 cycles
 E2 =    -0.5315498683D+00 EUMP2 =    -0.15262803764167D+03
 CCSD(T)
 CCSD(T)= -0.15265474707D+03

 The electronic state is 1-A'.
 Alpha  occ. eigenvalues --  -20.57342 -20.50994  -1.35519  -1.28696  -0.72781
 Alpha  occ. eigenvalues --   -0.69019  -0.56002  -0.52378  -0.52263  -0.45732
 Alpha virt. eigenvalues --    0.12755   0.18584   0.19122   0.27661   0.49720
 Alpha virt. eigenvalues --    0.55409   0.61128   0.63288   0.71321   0.73337
 Alpha virt. eigenvalues --    0.75410   0.82248   0.82503   0.83433   0.86581

 Mulliken charges:
               1
     1  O   -0.444390
     2  H    0.231469
     3  H    0.253223
     4  O   -0.528858
     5  H    0.217440
     6  H    0.271116
 Sum of Mulliken charges =  -0.00000

 Dipole moment (field-independent basis, Debye):
    X=             -1.7763    Y=             -2.5418    Z=              0.0000  Tot=              3.1010
 Quadrupole moment (field-independent basis, Debye-Ang):
   XX=             -9.8432   YY=             -5.9225   ZZ=            -14.7006
   XY=             -2.7093   XZ=              0.0000   YZ=              0.0000

 Normal termination of Gaussian 16 at Fri Aug 26 19:51:49 2022.
