 Gaussian 16, Revision A.03,
 Gaussian 16:  ES64L-G16RevA.03 25-Dec-2016

 ------------------
 #p CCSD(T)/cc-pVTZ
 ------------------

 ------------
 H2O_H2O_3510
 ------------
 Symbolic Z-matrix:
 Charge =  0 Multiplicity = 1

                         Standard orientation:
 ---------------------------------------------------------------------
 Center     Atomic      Atomic             Coordinates (Angstroms)
 Number     Number       Type             X           Y           Z
 ---------------------------------------------------------------------
      1          8           0        0.034782   -2.652249    0.000000
      2          1           0       -0.765431   -3.222482    0.000000
      3          1           0        0.833710   -3.224279    0.000000
      4          8           0        0.034782    2.675775    0.000000
      5          1           0        0.322497    3.615310    0.000000
      6          1           0       -0.947282    2.643240    0.000000
 ---------------------------------------------------------------------

 SCF Done:  E(RHF) =  -152.106677410     A.U. after   10 cycles
 E2 =    -0.5259654481D+00 EUMP2 =    -0.15263264285838D+03
 CCSD(T)
 CCSD(T)= -0.15265987715D+03

 The electronic state is 1-A'.
 Alpha  occ. eigenvalues --  -20.55182 -20.54989  -1.32477  -1.32282  -0.69885
 Alpha  occ. eigenvalues --   -0.69685  -0.55890  -0.55696  -0.49583  -0.49390
 Alpha virt. eigenvalues --    0.14326   0.14725   0.20443   0.20703   0.54659
 Alpha virt. eigenvalues --    0.54910   0.57535   0.57736   0.67913   0.69023
 Alpha virt. eigenvalues --    0.79295   0.79485   0.80732   0.80955   0.82699

 Mulliken charges:
               1
     1  O   -0.504590
     2  H    0.251018
     3  H    0.253577
     4  O   -0.504335
     5  H    0.250302
     6  H    0.254029
 Sum of Mulliken charges =  -0.00000

 Dipole moment (field-independent basis, Debye):
    X=             -1.1910    Y=             -0.4136    Z=              0.0000  Tot=              1.2608
 Quadrupole moment (field-independent basis, Debye-Ang):
   XX=             -8.5679   YY=              7.7993   ZZ=            -14.7107
   XY=             -2.3578   XZ=              0.0000   YZ=              0.0000

 Normal termination of Gaussian 16 at Fri Aug 26 22:55:31 2022.
