 Gaussian 16, Revision A.03,
 Gaussian 16:  ES64L-G16RevA.03 25-Dec-2016

 ------------------
 #p CCSD(T)/cc-pVTZ
 ------------------

 ------------
 H2O_H2O_1800
 ------------
 Symbolic Z-matrix:
 Charge =  0 Multiplicity = 1

                         Standard orientation:
 ---------------------------------------------------------------------
 Center     Atomic      Atomic             Coordinates (Angstroms)
 Number     Number       Type             X           Y           Z
 ---------------------------------------------------------------------
      1          8           0        0.000000   -0.000000    1.760905
      2          1           0        0.000000    0.799571    2.332037
      3          1           0       -0.000000   -0.799571    2.332037
      4          8           0        0.000000   -0.000000   -1.760905
      5          1           0       -0.000000   -0.799571   -2.332037
      6          1           0        0.000000    0.799571   -2.332037
 ---------------------------------------------------------------------

 SCF Done:  E(RHF) =  -152.104021198     A.U. after   10 cycles
 E2 =    -0.5266476248D+00 EUMP2 =    -0.15263066882293D+03
 CCSD(T)
 CCSD(T)= -0.15265792672D+03

 The electronic state is 1-AG.
 Alpha  occ. eigenvalues --  -20.54288 -20.54288  -1.31595  -1.31540  -0.69017
 Alpha  occ. eigenvalues --   -0.68969  -0.55314  -0.54315  -0.48734  -0.48584
 Alpha virt. eigenvalues --    0.14248   0.16088   0.20613   0.21409   0.53402
 Alpha virt. eigenvalues --    0.57662   0.58003   0.58404   0.61008   0.75843
 Alpha virt. eigenvalues --    0.79037   0.79559   0.80257   0.81222   0.83851

 Mulliken charges:
               1
     1  O   -0.485215
     2  H    0.242607
     3  H    0.242607
     4  O   -0.485215
     5  H    0.242607
     6  H    0.242607
 Sum of Mulliken charges =   0.00000

 Dipole moment (field-independent basis, Debye):
    X=             -0.0000    Y=              0.0000    Z=              0.0000  Tot=              0.0000
 Quadrupole moment (field-independent basis, Debye-Ang):
   XX=            -14.7088   YY=             -7.8572   ZZ=              1.8539
   XY=              0.0000   XZ=              0.0000   YZ=             -0.0000

 2\MP4DQ=-152.6396863\MP4SDQ=-152.6427929\CCSD=-152.6421844\CCSD(T)=-15
 Normal termination of Gaussian 16 at Sat Aug 27 06:51:30 2022.
