 Gaussian 16, Revision A.03,
 Gaussian 16:  ES64L-G16RevA.03 25-Dec-2016

 ------------------
 #p CCSD(T)/cc-pVTZ
 ------------------

 -----------
 H2O_H2O_313
 -----------
 Symbolic Z-matrix:
 Charge =  0 Multiplicity = 1

                         Standard orientation:
 ---------------------------------------------------------------------
 Center     Atomic      Atomic             Coordinates (Angstroms)
 Number     Number       Type             X           Y           Z
 ---------------------------------------------------------------------
      1          8           0        0.043014   -0.942191    0.000000
      2          1           0       -0.758746   -1.510245    0.000000
      3          1           0        0.840384   -1.516393    0.000000
      4          8           0        0.043014    0.980773    0.000000
      5          1           0        0.144567    1.958113    0.000000
      6          1           0       -0.914436    0.759876    0.000000
 ---------------------------------------------------------------------

 SCF Done:  E(RHF) =  -152.041880609     A.U. after   11 cycles
 E2 =    -0.5372387791D+00 EUMP2 =    -0.15257911938758D+03
 CCSD(T)
 CCSD(T)= -0.15260571350D+03

 The electronic state is 1-A'.
 Alpha  occ. eigenvalues --  -20.53087 -20.51662  -1.33715  -1.28231  -0.70751
 Alpha  occ. eigenvalues --   -0.68088  -0.58436  -0.50532  -0.44897  -0.44876
 Alpha virt. eigenvalues --    0.14141   0.18380   0.19992   0.23771   0.53242
 Alpha virt. eigenvalues --    0.57112   0.58560   0.64014   0.72079   0.76720
 Alpha virt. eigenvalues --    0.80338   0.82099   0.83119   0.84923   0.88424

 Mulliken charges:
               1
     1  O   -0.419787
     2  H    0.199157
     3  H    0.221237
     4  O   -0.398720
     5  H    0.162577
     6  H    0.235537
 Sum of Mulliken charges =  -0.00000

 Dipole moment (field-independent basis, Debye):
    X=             -1.2215    Y=             -0.8065    Z=              0.0000  Tot=              1.4638
 Quadrupole moment (field-independent basis, Debye-Ang):
   XX=             -9.1710   YY=             -6.3537   ZZ=            -14.7074
   XY=             -0.7376   XZ=              0.0000   YZ=              0.0000

 Normal termination of Gaussian 16 at Fri Aug 26 15:09:57 2022.
