 Gaussian 16, Revision A.03,
 Gaussian 16:  ES64L-G16RevA.03 25-Dec-2016

 ------------------
 #p CCSD(T)/cc-pVTZ
 ------------------

 ------------
 H2O_H2O_3138
 ------------
 Symbolic Z-matrix:
 Charge =  0 Multiplicity = 1

                         Standard orientation:
 ---------------------------------------------------------------------
 Center     Atomic      Atomic             Coordinates (Angstroms)
 Number     Number       Type             X           Y           Z
 ---------------------------------------------------------------------
      1          8           0        0.042969   -2.444524    0.000000
      2          1           0       -0.757458   -3.014456    0.000000
      3          1           0        0.841682   -3.016855    0.000000
      4          8           0        0.042969    2.483307    0.000000
      5          1           0        0.142230    3.460882    0.000000
      6          1           0       -0.913961    2.260167    0.000000
 ---------------------------------------------------------------------

 SCF Done:  E(RHF) =  -152.106738384     A.U. after   10 cycles
 E2 =    -0.5259864789D+00 EUMP2 =    -0.15263272486263D+03
 CCSD(T)
 CCSD(T)= -0.15265995555D+03

 The electronic state is 1-A'.
 Alpha  occ. eigenvalues --  -20.55246 -20.54868  -1.32540  -1.32159  -0.69949
 Alpha  occ. eigenvalues --   -0.69557  -0.55955  -0.55575  -0.49647  -0.49268
 Alpha virt. eigenvalues --    0.14096   0.14982   0.20349   0.20901   0.54515
 Alpha virt. eigenvalues --    0.55023   0.57476   0.57839   0.67208   0.69987
 Alpha virt. eigenvalues --    0.79231   0.79604   0.80602   0.81113   0.82802

 Mulliken charges:
               1
     1  O   -0.504884
     2  H    0.250500
     3  H    0.254437
     4  O   -0.504451
     5  H    0.249204
     6  H    0.255193
 Sum of Mulliken charges =  -0.00000

 Dipole moment (field-independent basis, Debye):
    X=             -1.4680    Y=             -0.6861    Z=              0.0000  Tot=              1.6204
 Quadrupole moment (field-independent basis, Debye-Ang):
   XX=             -8.9682   YY=              5.4166   ZZ=            -14.7111
   XY=             -2.8283   XZ=              0.0000   YZ=              0.0000

 Normal termination of Gaussian 16 at Fri Aug 26 19:44:31 2022.
