 Gaussian 16, Revision A.03,
 Gaussian 16:  ES64L-G16RevA.03 25-Dec-2016

 ------------------
 #p CCSD(T)/cc-pVTZ
 ------------------

 ------------
 H2O_H2O_4968
 ------------
 Symbolic Z-matrix:
 Charge =  0 Multiplicity = 1

                         Standard orientation:
 ---------------------------------------------------------------------
 Center     Atomic      Atomic             Coordinates (Angstroms)
 Number     Number       Type             X           Y           Z
 ---------------------------------------------------------------------
      1          8           0        0.052812   -3.397970    0.000000
      2          1           0       -0.747514   -3.968043    0.000000
      3          1           0        0.851627   -3.970159    0.000000
      4          8           0        0.052812    3.468344    0.000000
      5          1           0       -0.167595    4.425907    0.000000
      6          1           0       -0.781515    2.949303    0.000000
 ---------------------------------------------------------------------

 SCF Done:  E(RHF) =  -152.107392673     A.U. after   10 cycles
 E2 =    -0.5258754375D+00 EUMP2 =    -0.15263326811031D+03
 CCSD(T)
 CCSD(T)= -0.15266048886D+03

 The electronic state is 1-A'.
 Alpha  occ. eigenvalues --  -20.55576 -20.55234  -1.32875  -1.32532  -0.70281
 Alpha  occ. eigenvalues --   -0.69934  -0.56321  -0.55977  -0.49987  -0.49645
 Alpha virt. eigenvalues --    0.14099   0.14441   0.20173   0.20533   0.54281
 Alpha virt. eigenvalues --    0.54638   0.57198   0.57540   0.67869   0.68220
 Alpha virt. eigenvalues --    0.78893   0.79231   0.80325   0.80688   0.82248

 Mulliken charges:
               1
     1  O   -0.508789
     2  H    0.253483
     3  H    0.255305
     4  O   -0.508605
     5  H    0.252623
     6  H    0.255982
 Sum of Mulliken charges =  -0.00000

 Dipole moment (field-independent basis, Debye):
    X=             -1.8171    Y=             -1.2263    Z=              0.0000  Tot=              2.1922
 Quadrupole moment (field-independent basis, Debye-Ang):
   XX=             -9.5597   YY=              8.6271   ZZ=            -14.7119
   XY=             -5.7443   XZ=              0.0000   YZ=              0.0000

 Normal termination of Gaussian 16 at Sat Aug 27 10:23:36 2022.
