 Gaussian 16, Revision A.03,
 Gaussian 16:  ES64L-G16RevA.03 25-Dec-2016

 ------------------
 #p CCSD(T)/cc-pVTZ
 ------------------

 ------------
 H2O_H2O_4609
 ------------
 Symbolic Z-matrix:
 Charge =  0 Multiplicity = 1

                         Standard orientation:
 ---------------------------------------------------------------------
 Center     Atomic      Atomic             Coordinates (Angstroms)
 Number     Number       Type             X           Y           Z
 ---------------------------------------------------------------------
      1          8           0        0.031738   -3.239620    0.000000
      2          1           0       -0.768312   -3.810080    0.000000
      3          1           0        0.830829   -3.811424    0.000000
      4          8           0        0.031738    3.258817    0.000000
      5          1           0        0.380026    4.177622    0.000000
      6          1           0       -0.950358    3.290304    0.000000
 ---------------------------------------------------------------------

 SCF Done:  E(RHF) =  -152.107004478     A.U. after   10 cycles
 E2 =    -0.5259125685D+00 EUMP2 =    -0.15263291704646D+03
 CCSD(T)
 CCSD(T)= -0.15266014588D+03

 The electronic state is 1-A'.
 Alpha  occ. eigenvalues --  -20.55310 -20.55206  -1.32607  -1.32502  -0.70014
 Alpha  occ. eigenvalues --   -0.69906  -0.56036  -0.55931  -0.49716  -0.49611
 Alpha virt. eigenvalues --    0.14332   0.14439   0.20387   0.20497   0.54553
 Alpha virt. eigenvalues --    0.54666   0.57436   0.57541   0.68182   0.68295
 Alpha virt. eigenvalues --    0.79164   0.79267   0.80603   0.80718   0.82530

 Mulliken charges:
               1
     1  O   -0.506490
     2  H    0.252581
     3  H    0.253908
     4  O   -0.506402
     5  H    0.252203
     6  H    0.254199
 Sum of Mulliken charges =  -0.00000

 Dipole moment (field-independent basis, Debye):
    X=             -1.0910    Y=             -0.3348    Z=              0.0000  Tot=              1.1412
 Quadrupole moment (field-independent basis, Debye-Ang):
   XX=             -8.4363   YY=             12.3836   ZZ=            -14.7110
   XY=             -2.7399   XZ=              0.0000   YZ=              0.0000

 6496\MP4DQ=-152.6420433\MP4SDQ=-152.6451017\CCSD=-152.6445139\CCSD(T)=
 Normal termination of Gaussian 16 at Sat Aug 27 08:19:07 2022.
