 Gaussian 16, Revision A.03,
 Gaussian 16:  ES64L-G16RevA.03 25-Dec-2016

 ------------------
 #p CCSD(T)/cc-pVTZ
 ------------------

 ------------
 H2O_H2O_3399
 ------------
 Symbolic Z-matrix:
 Charge =  0 Multiplicity = 1

                         Standard orientation:
 ---------------------------------------------------------------------
 Center     Atomic      Atomic             Coordinates (Angstroms)
 Number     Number       Type             X           Y           Z
 ---------------------------------------------------------------------
      1          8           0        0.057221   -2.536630    0.000000
      2          1           0       -0.743431   -3.106245    0.000000
      3          1           0        0.855708   -3.109277    0.000000
      4          8           0        0.057221    2.650639    0.000000
      5          1           0       -0.512394    3.451293    0.000000
      6          1           0       -0.515425    1.852153    0.000000
 ---------------------------------------------------------------------

 SCF Done:  E(RHF) =  -152.108002475     A.U. after   10 cycles
 E2 =    -0.5258831246D+00 EUMP2 =    -0.15263388559966D+03
 CCSD(T)
 CCSD(T)= -0.15266108699D+03

 The electronic state is 1-A'.
 Alpha  occ. eigenvalues --  -20.55884 -20.54864  -1.33181  -1.32165  -0.70586
 Alpha  occ. eigenvalues --   -0.69556  -0.56653  -0.55625  -0.50296  -0.49284
 Alpha virt. eigenvalues --    0.13493   0.15059   0.19930   0.21161   0.53946
 Alpha virt. eigenvalues --    0.54888   0.56945   0.57841   0.66909   0.69322
 Alpha virt. eigenvalues --    0.78592   0.79574   0.79863   0.80244   0.82775

 Mulliken charges:
               1
     1  O   -0.511791
     2  H    0.253971
     3  H    0.258083
     4  O   -0.511313
     5  H    0.250941
     6  H    0.260110
 Sum of Mulliken charges =  -0.00000

 Dipole moment (field-independent basis, Debye):
    X=             -1.9593    Y=             -2.0175    Z=              0.0000  Tot=              2.8123
 Quadrupole moment (field-independent basis, Debye-Ang):
   XX=             -9.8629   YY=              0.2640   ZZ=            -14.7140
   XY=             -5.3688   XZ=              0.0000   YZ=              0.0000

 Normal termination of Gaussian 16 at Fri Aug 26 21:59:54 2022.
