 Gaussian 16, Revision A.03,
 Gaussian 16:  ES64L-G16RevA.03 25-Dec-2016

 ------------------
 #p CCSD(T)/cc-pVTZ
 ------------------

 ------------
 H2O_H2O_4181
 ------------
 Symbolic Z-matrix:
 Charge =  0 Multiplicity = 1

                         Standard orientation:
 ---------------------------------------------------------------------
 Center     Atomic      Atomic             Coordinates (Angstroms)
 Number     Number       Type             X           Y           Z
 ---------------------------------------------------------------------
      1          8           0        0.021859   -3.019308    0.000000
      2          1           0       -0.778067   -3.589943    0.000000
      3          1           0        0.821074   -3.590938    0.000000
      4          8           0        0.021859    3.027976    0.000000
      5          1           0        0.542523    3.861292    0.000000
      6          1           0       -0.935273    3.250247    0.000000
 ---------------------------------------------------------------------

 SCF Done:  E(RHF) =  -152.106795837     A.U. after   10 cycles
 E2 =    -0.5259361875D+00 EUMP2 =    -0.15263273202481D+03
 CCSD(T)
 CCSD(T)= -0.15265996498D+03

 The electronic state is 1-A'.
 Alpha  occ. eigenvalues --  -20.55196 -20.55142  -1.32492  -1.32437  -0.69899
 Alpha  occ. eigenvalues --   -0.69843  -0.55911  -0.55856  -0.49599  -0.49544
 Alpha virt. eigenvalues --    0.14417   0.14498   0.20470   0.20534   0.54669
 Alpha virt. eigenvalues --    0.54731   0.57534   0.57590   0.68280   0.68430
 Alpha virt. eigenvalues --    0.79280   0.79334   0.80724   0.80784   0.82654

 Mulliken charges:
               1
     1  O   -0.505260
     2  H    0.252068
     3  H    0.253191
     4  O   -0.505198
     5  H    0.251801
     6  H    0.253397
 Sum of Mulliken charges =  -0.00000

 Dipole moment (field-independent basis, Debye):
    X=             -0.7505    Y=             -0.1515    Z=              0.0000  Tot=              0.7656
 Quadrupole moment (field-independent basis, Debye-Ang):
   XX=             -8.1048   YY=             11.5251   ZZ=            -14.7107
   XY=             -1.6463   XZ=              0.0000   YZ=              0.0000

 4164\MP4DQ=-152.6418574\MP4SDQ=-152.6449177\CCSD=-152.6443292\CCSD(T)=
 Normal termination of Gaussian 16 at Sat Aug 27 05:50:38 2022.
