 Gaussian 16, Revision A.03,
 Gaussian 16:  ES64L-G16RevA.03 25-Dec-2016

 ------------------
 #p CCSD(T)/cc-pVTZ
 ------------------

 ------------
 H2O_H2O_1260
 ------------
 Symbolic Z-matrix:
 Charge =  0 Multiplicity = 1

                         Standard orientation:
 ---------------------------------------------------------------------
 Center     Atomic      Atomic             Coordinates (Angstroms)
 Number     Number       Type             X           Y           Z
 ---------------------------------------------------------------------
      1          8           0        0.034792   -1.455650    0.000000
      2          1           0       -0.765942   -2.025150    0.000000
      3          1           0        0.833197   -2.028412    0.000000
      4          8           0        0.034792    1.479113    0.000000
      5          1           0        0.323369    2.418383    0.000000
      6          1           0       -0.947300    1.447477    0.000000
 ---------------------------------------------------------------------

 SCF Done:  E(RHF) =  -152.102376968     A.U. after   11 cycles
 E2 =    -0.5275417241D+00 EUMP2 =    -0.15262991869242D+03
 CCSD(T)
 CCSD(T)= -0.15265717435D+03

 The electronic state is 1-A'.
 Alpha  occ. eigenvalues --  -20.54321 -20.53704  -1.31671  -1.30953  -0.69093
 Alpha  occ. eigenvalues --   -0.68387  -0.55811  -0.53202  -0.48828  -0.47972
 Alpha virt. eigenvalues --    0.14108   0.16811   0.20381   0.22344   0.52890
 Alpha virt. eigenvalues --    0.58124   0.58201   0.59072   0.67135   0.76424
 Alpha virt. eigenvalues --    0.77254   0.77779   0.80257   0.82764   0.85744

 Mulliken charges:
               1
     1  O   -0.477166
     2  H    0.233402
     3  H    0.244764
     4  O   -0.472241
     5  H    0.228245
     6  H    0.242996
 Sum of Mulliken charges =  -0.00000

 Dipole moment (field-independent basis, Debye):
    X=             -1.1301    Y=             -0.4468    Z=              0.0000  Tot=              1.2152
 Quadrupole moment (field-independent basis, Debye-Ang):
   XX=             -8.6417   YY=             -1.1606   ZZ=            -14.7142
   XY=             -0.9690   XZ=              0.0000   YZ=              0.0000

 Normal termination of Gaussian 16 at Sat Aug 27 03:26:36 2022.
