 Gaussian 16, Revision A.03,
 Gaussian 16:  ES64L-G16RevA.03 25-Dec-2016

 ------------------
 #p CCSD(T)/cc-pVTZ
 ------------------

 ------------
 H2O_H2O_3041
 ------------
 Symbolic Z-matrix:
 Charge =  0 Multiplicity = 1

                         Standard orientation:
 ---------------------------------------------------------------------
 Center     Atomic      Atomic             Coordinates (Angstroms)
 Number     Number       Type             X           Y           Z
 ---------------------------------------------------------------------
      1          8           0        0.049512   -2.381481    0.000000
      2          1           0       -0.751067   -2.951199    0.000000
      3          1           0        0.848072   -2.954024    0.000000
      4          8           0        0.049512    2.438419    0.000000
      5          1           0       -0.043589    3.416600    0.000000
      6          1           0       -0.845606    2.033116    0.000000
 ---------------------------------------------------------------------

 SCF Done:  E(RHF) =  -152.107041024     A.U. after   10 cycles
 E2 =    -0.5259794760D+00 EUMP2 =    -0.15263302049956D+03
 CCSD(T)
 CCSD(T)= -0.15266024234D+03

 The electronic state is 1-A'.
 Alpha  occ. eigenvalues --  -20.55403 -20.54812  -1.32698  -1.32104  -0.70106
 Alpha  occ. eigenvalues --   -0.69497  -0.56125  -0.55532  -0.49807  -0.49217
 Alpha virt. eigenvalues --    0.13855   0.15121   0.20224   0.21063   0.54320
 Alpha virt. eigenvalues --    0.54989   0.57351   0.57875   0.66914   0.70406
 Alpha virt. eigenvalues --    0.79074   0.79652   0.80343   0.81079   0.82836

 Mulliken charges:
               1
     1  O   -0.506389
     2  H    0.250879
     3  H    0.255674
     4  O   -0.506022
     5  H    0.248987
     6  H    0.256871
 Sum of Mulliken charges =  -0.00000

 Dipole moment (field-independent basis, Debye):
    X=             -1.6904    Y=             -1.0109    Z=              0.0000  Tot=              1.9696
 Quadrupole moment (field-independent basis, Debye-Ang):
   XX=             -9.3466   YY=              3.8849   ZZ=            -14.7119
   XY=             -3.4513   XZ=              0.0000   YZ=              0.0000

 Normal termination of Gaussian 16 at Fri Aug 26 18:47:28 2022.
