 Gaussian 16, Revision A.03,
 Gaussian 16:  ES64L-G16RevA.03 25-Dec-2016

 ------------------
 #p CCSD(T)/cc-pVTZ
 ------------------

 -----------
 H2O_H2O_432
 -----------
 Symbolic Z-matrix:
 Charge =  0 Multiplicity = 1

                         Standard orientation:
 ---------------------------------------------------------------------
 Center     Atomic      Atomic             Coordinates (Angstroms)
 Number     Number       Type             X           Y           Z
 ---------------------------------------------------------------------
      1          8           0        0.025273   -1.023288    0.000000
      2          1           0       -0.775503   -1.592729    0.000000
      3          1           0        0.823635   -1.596108    0.000000
      4          8           0        0.025273    1.034961    0.000000
      5          1           0        0.491609    1.899852    0.000000
      6          1           0       -0.944109    1.195601    0.000000
 ---------------------------------------------------------------------

 SCF Done:  E(RHF) =  -152.061384236     A.U. after   11 cycles
 E2 =    -0.5340619672D+00 EUMP2 =    -0.15259544620311D+03
 CCSD(T)
 CCSD(T)= -0.15262236687D+03

 The electronic state is 1-A'.
 Alpha  occ. eigenvalues --  -20.52392 -20.52020  -1.31965  -1.28815  -0.68822
 Alpha  occ. eigenvalues --   -0.66971  -0.59776  -0.49184  -0.45345  -0.45297
 Alpha virt. eigenvalues --    0.14520   0.18128   0.20393   0.23035   0.51730
 Alpha virt. eigenvalues --    0.58477   0.58786   0.64778   0.70170   0.77326
 Alpha virt. eigenvalues --    0.78411   0.82338   0.84027   0.86375   0.87656

 Mulliken charges:
               1
     1  O   -0.442667
     2  H    0.212679
     3  H    0.227752
     4  O   -0.419523
     5  H    0.189564
     6  H    0.232195
 Sum of Mulliken charges =  -0.00000

 Dipole moment (field-independent basis, Debye):
    X=             -0.7425    Y=             -0.2410    Z=              0.0000  Tot=              0.7807
 Quadrupole moment (field-independent basis, Debye-Ang):
   XX=             -8.4807   YY=             -5.3700   ZZ=            -14.7403
   XY=             -0.3036   XZ=              0.0000   YZ=              0.0000

 Normal termination of Gaussian 16 at Fri Aug 26 16:24:41 2022.
