 Gaussian 16, Revision A.03,
 Gaussian 16:  ES64L-G16RevA.03 25-Dec-2016

 ------------------
 #p CCSD(T)/cc-pVTZ
 ------------------

 -----------
 H2O_H2O_190
 -----------
 Symbolic Z-matrix:
 Charge =  0 Multiplicity = 1

                         Standard orientation:
 ---------------------------------------------------------------------
 Center     Atomic      Atomic             Coordinates (Angstroms)
 Number     Number       Type             X           Y           Z
 ---------------------------------------------------------------------
      1          8           0        0.047603   -0.869329    0.000000
      2          1           0       -0.754569   -1.436801    0.000000
      3          1           0        0.844556   -1.444109    0.000000
      4          8           0        0.047603    0.919660    0.000000
      5          1           0        0.021431    1.901914    0.000000
      6          1           0       -0.873072    0.576349    0.000000
 ---------------------------------------------------------------------

 SCF Done:  E(RHF) =  -152.002495094     A.U. after   11 cycles
 E2 =    -0.5420748054D+00 EUMP2 =    -0.15254456989902D+03
 CCSD(T)
 CCSD(T)= -0.15257060363D+03

 The electronic state is 1-A'.
 Alpha  occ. eigenvalues --  -20.53304 -20.51176  -1.35836  -1.27399  -0.72890
 Alpha  occ. eigenvalues --   -0.69267  -0.57341  -0.51982  -0.44167  -0.42774
 Alpha virt. eigenvalues --    0.13920   0.18818   0.19736   0.24139   0.52513
 Alpha virt. eigenvalues --    0.56722   0.59172   0.65025   0.72924   0.76869
 Alpha virt. eigenvalues --    0.81106   0.82006   0.82877   0.84167   0.88680

 Mulliken charges:
               1
     1  O   -0.379337
     2  H    0.177836
     3  H    0.210653
     4  O   -0.385190
     5  H    0.138876
     6  H    0.237163
 Sum of Mulliken charges =  -0.00000

 Dipole moment (field-independent basis, Debye):
    X=             -1.3020    Y=             -1.0986    Z=              0.0000  Tot=              1.7036
 Quadrupole moment (field-independent basis, Debye-Ang):
   XX=             -9.4155   YY=             -7.4421   ZZ=            -14.6647
   XY=             -0.8597   XZ=              0.0000   YZ=              0.0000

 Normal termination of Gaussian 16 at Fri Aug 26 13:49:09 2022.
