 Gaussian 16, Revision A.03,
 Gaussian 16:  ES64L-G16RevA.03 25-Dec-2016

 ------------------
 #p CCSD(T)/cc-pVTZ
 ------------------

 ------------
 H2O_H2O_4780
 ------------
 Symbolic Z-matrix:
 Charge =  0 Multiplicity = 1

                         Standard orientation:
 ---------------------------------------------------------------------
 Center     Atomic      Atomic             Coordinates (Angstroms)
 Number     Number       Type             X           Y           Z
 ---------------------------------------------------------------------
      1          8           0        0.018360   -3.339835    0.000000
      2          1           0       -0.781481   -3.910589    0.000000
      3          1           0        0.817661   -3.911345    0.000000
      4          8           0        0.018360    3.345880    0.000000
      5          1           0        0.592291    4.143443    0.000000
      6          1           0       -0.922228    3.630132    0.000000
 ---------------------------------------------------------------------

 SCF Done:  E(RHF) =  -152.106957715     A.U. after   10 cycles
 E2 =    -0.5259145087D+00 EUMP2 =    -0.15263287222395D+03
 CCSD(T)
 CCSD(T)= -0.15266010219D+03

 The electronic state is 1-A'.
 Alpha  occ. eigenvalues --  -20.55266 -20.55235  -1.32562  -1.32531  -0.69969
 Alpha  occ. eigenvalues --   -0.69937  -0.55989  -0.55958  -0.49671  -0.49640
 Alpha virt. eigenvalues --    0.14373   0.14406   0.20425   0.20458   0.54599
 Alpha virt. eigenvalues --    0.54632   0.57477   0.57508   0.68233   0.68269
 Alpha virt. eigenvalues --    0.79209   0.79239   0.80650   0.80684   0.82576

 Mulliken charges:
               1
     1  O   -0.506207
     2  H    0.252749
     3  H    0.253458
     4  O   -0.506180
     5  H    0.252578
     6  H    0.253602
 Sum of Mulliken charges =  -0.00000

 Dipole moment (field-independent basis, Debye):
    X=             -0.6313    Y=             -0.1053    Z=              0.0000  Tot=              0.6400
 Quadrupole moment (field-independent basis, Debye-Ang):
   XX=             -8.0135   YY=             14.2041   ZZ=            -14.7109
   XY=             -1.5674   XZ=              0.0000   YZ=              0.0000

 Normal termination of Gaussian 16 at Sat Aug 27 09:17:50 2022.
