 Gaussian 16, Revision A.03,
 Gaussian 16:  ES64L-G16RevA.03 25-Dec-2016

 ------------------
 #p CCSD(T)/cc-pVTZ
 ------------------

 ------------
 H2O_H2O_1225
 ------------
 Symbolic Z-matrix:
 Charge =  0 Multiplicity = 1

                         Standard orientation:
 ---------------------------------------------------------------------
 Center     Atomic      Atomic             Coordinates (Angstroms)
 Number     Number       Type             X           Y           Z
 ---------------------------------------------------------------------
      1          8           0        0.000000   -0.000000    1.455099
      2          1           0        0.000000    0.799571    2.026231
      3          1           0       -0.000000   -0.799571    2.026231
      4          8           0        0.000000   -0.000000   -1.455099
      5          1           0       -0.000000   -0.799571   -2.026231
      6          1           0        0.000000    0.799571   -2.026231
 ---------------------------------------------------------------------

 SCF Done:  E(RHF) =  -152.100284785     A.U. after   10 cycles
 E2 =    -0.5276080107D+00 EUMP2 =    -0.15262789279572D+03
 CCSD(T)
 CCSD(T)= -0.15265520236D+03

 The electronic state is 1-AG.
 Alpha  occ. eigenvalues --  -20.53708 -20.53707  -1.31181  -1.30889  -0.68580
 Alpha  occ. eigenvalues --   -0.68366  -0.55770  -0.52520  -0.48398  -0.47813
 Alpha virt. eigenvalues --    0.14427   0.16858   0.20568   0.21931   0.51296
 Alpha virt. eigenvalues --    0.58398   0.58713   0.60629   0.67787   0.76205
 Alpha virt. eigenvalues --    0.77496   0.77889   0.79189   0.83004   0.86207

 Mulliken charges:
               1
     1  O   -0.469577
     2  H    0.234789
     3  H    0.234789
     4  O   -0.469577
     5  H    0.234789
     6  H    0.234789
 Sum of Mulliken charges =  -0.00000

 Dipole moment (field-independent basis, Debye):
    X=             -0.0000    Y=              0.0000    Z=              0.0000  Tot=              0.0000
 Quadrupole moment (field-independent basis, Debye-Ang):
   XX=            -14.7117   YY=             -7.9107   ZZ=             -0.8532
   XY=              0.0000   XZ=             -0.0000   YZ=             -0.0000

 1\MP4DQ=-152.6367704\MP4SDQ=-152.6399331\CCSD=-152.6393069\CCSD(T)=-15
 Normal termination of Gaussian 16 at Sat Aug 27 03:09:39 2022.
