 Gaussian 16, Revision A.03,
 Gaussian 16:  ES64L-G16RevA.03 25-Dec-2016

 ------------------
 #p CCSD(T)/cc-pVTZ
 ------------------

 ------------
 H2O_H2O_1979
 ------------
 Symbolic Z-matrix:
 Charge =  0 Multiplicity = 1

                         Standard orientation:
 ---------------------------------------------------------------------
 Center     Atomic      Atomic             Coordinates (Angstroms)
 Number     Number       Type             X           Y           Z
 ---------------------------------------------------------------------
      1          8           0        0.014783   -1.851873    0.000000
      2          1           0       -0.785180   -2.422456    0.000000
      3          1           0        0.813962   -2.423553    0.000000
      4          8           0        0.014783    1.855744    0.000000
      5          1           0        0.639811    2.613931    0.000000
      6          1           0       -0.905127    2.201103    0.000000
 ---------------------------------------------------------------------

 SCF Done:  E(RHF) =  -152.104675483     A.U. after   10 cycles
 E2 =    -0.5264787500D+00 EUMP2 =    -0.15263115423312D+03
 CCSD(T)
 CCSD(T)= -0.15265840227D+03

 The electronic state is 1-A'.
 Alpha  occ. eigenvalues --  -20.54469 -20.54400  -1.31752  -1.31675  -0.69173
 Alpha  occ. eigenvalues --   -0.69093  -0.55334  -0.54663  -0.48868  -0.48749
 Alpha virt. eigenvalues --    0.14166   0.15905   0.20593   0.21314   0.53727
 Alpha virt. eigenvalues --    0.56683   0.57959   0.58300   0.61483   0.75606
 Alpha virt. eigenvalues --    0.79273   0.79974   0.80775   0.80820   0.82929

 Mulliken charges:
               1
     1  O   -0.489797
     2  H    0.243541
     3  H    0.246361
     4  O   -0.489769
     5  H    0.243154
     6  H    0.246510
 Sum of Mulliken charges =  -0.00000

 Dipole moment (field-independent basis, Debye):
    X=             -0.4965    Y=             -0.0712    Z=              0.0000  Tot=              0.5016
 Quadrupole moment (field-independent basis, Debye-Ang):
   XX=             -7.9822   YY=              2.5244   ZZ=            -14.7093
   XY=             -0.5090   XZ=              0.0000   YZ=              0.0000

 Normal termination of Gaussian 16 at Sat Aug 27 07:53:54 2022.
