 Gaussian 16, Revision A.03,
 Gaussian 16:  ES64L-G16RevA.03 25-Dec-2016

 ------------------
 #p CCSD(T)/cc-pVTZ
 ------------------

 ------------
 H2O_H2O_1292
 ------------
 Symbolic Z-matrix:
 Charge =  0 Multiplicity = 1

                         Standard orientation:
 ---------------------------------------------------------------------
 Center     Atomic      Atomic             Coordinates (Angstroms)
 Number     Number       Type             X           Y           Z
 ---------------------------------------------------------------------
      1          8           0        0.051318   -1.447255    0.000000
      2          1           0       -0.749952   -2.016001    0.000000
      3          1           0        0.849183   -2.020769    0.000000
      4          8           0        0.051318    1.510655    0.000000
      5          1           0       -0.104381    2.480842    0.000000
      6          1           0       -0.815937    1.048730    0.000000
 ---------------------------------------------------------------------

 SCF Done:  E(RHF) =  -152.105531208     A.U. after   10 cycles
 E2 =    -0.5274926160D+00 EUMP2 =    -0.15263302382398D+03
 CCSD(T)
 CCSD(T)= -0.15266019479D+03

 The electronic state is 1-A'.
 Alpha  occ. eigenvalues --  -20.55380 -20.53517  -1.32711  -1.30775  -0.70132
 Alpha  occ. eigenvalues --   -0.68229  -0.56153  -0.53955  -0.49830  -0.47873
 Alpha virt. eigenvalues --    0.13592   0.17009   0.19973   0.23463   0.53858
 Alpha virt. eigenvalues --    0.56472   0.57343   0.58324   0.68000   0.75573
 Alpha virt. eigenvalues --    0.76437   0.76985   0.80317   0.82310   0.84926

 Mulliken charges:
               1
     1  O   -0.483289
     2  H    0.237364
     3  H    0.252631
     4  O   -0.490333
     5  H    0.230094
     6  H    0.253533
 Sum of Mulliken charges =  -0.00000

 Dipole moment (field-independent basis, Debye):
    X=             -1.6671    Y=             -1.2268    Z=              0.0000  Tot=              2.0699
 Quadrupole moment (field-independent basis, Debye-Ang):
   XX=             -9.4909   YY=             -2.1951   ZZ=            -14.7205
   XY=             -2.0890   XZ=              0.0000   YZ=              0.0000

 Normal termination of Gaussian 16 at Sat Aug 27 03:40:44 2022.
