 Gaussian 16, Revision A.03,
 Gaussian 16:  ES64L-G16RevA.03 25-Dec-2016

 ------------------
 #p CCSD(T)/cc-pVTZ
 ------------------

 ------------
 H2O_H2O_3911
 ------------
 Symbolic Z-matrix:
 Charge =  0 Multiplicity = 1

                         Standard orientation:
 ---------------------------------------------------------------------
 Center     Atomic      Atomic             Coordinates (Angstroms)
 Number     Number       Type             X           Y           Z
 ---------------------------------------------------------------------
      1          8           0        0.037673   -2.862412    0.000000
      2          1           0       -0.762541   -3.432643    0.000000
      3          1           0        0.836600   -3.434445    0.000000
      4          8           0        0.037673    2.890674    0.000000
      5          1           0        0.263327    3.847013    0.000000
      6          1           0       -0.940160    2.793981    0.000000
 ---------------------------------------------------------------------

 SCF Done:  E(RHF) =  -152.106888661     A.U. after   10 cycles
 E2 =    -0.5259347469D+00 EUMP2 =    -0.15263282340814D+03
 CCSD(T)
 CCSD(T)= -0.15266005398D+03

 The electronic state is 1-A'.
 Alpha  occ. eigenvalues --  -20.55277 -20.55079  -1.32573  -1.32373  -0.69980
 Alpha  occ. eigenvalues --   -0.69776  -0.55996  -0.55797  -0.49681  -0.49482
 Alpha virt. eigenvalues --    0.14322   0.14587   0.20396   0.20622   0.54582
 Alpha virt. eigenvalues --    0.54806   0.57459   0.57661   0.68117   0.68556
 Alpha virt. eigenvalues --    0.79198   0.79394   0.80639   0.80855   0.82578

 Mulliken charges:
               1
     1  O   -0.505827
     2  H    0.251799
     3  H    0.254029
     4  O   -0.505623
     5  H    0.251122
     6  H    0.254500
 Sum of Mulliken charges =   0.00000

 Dipole moment (field-independent basis, Debye):
    X=             -1.2924    Y=             -0.4951    Z=              0.0000  Tot=              1.3840
 Quadrupole moment (field-independent basis, Debye-Ang):
   XX=             -8.6975   YY=              8.9828   ZZ=            -14.7110
   XY=             -2.8817   XZ=              0.0000   YZ=              0.0000

 Normal termination of Gaussian 16 at Sat Aug 27 04:14:35 2022.
