 Gaussian 16, Revision A.03,
 Gaussian 16:  ES64L-G16RevA.03 25-Dec-2016

 ------------------
 #p CCSD(T)/cc-pVTZ
 ------------------

 ------------
 H2O_H2O_3194
 ------------
 Symbolic Z-matrix:
 Charge =  0 Multiplicity = 1

                         Standard orientation:
 ---------------------------------------------------------------------
 Center     Atomic      Atomic             Coordinates (Angstroms)
 Number     Number       Type             X           Y           Z
 ---------------------------------------------------------------------
      1          8           0        0.054155   -2.450194    0.000000
      2          1           0       -0.746483   -3.019829    0.000000
      3          1           0        0.852656   -3.022820    0.000000
      4          8           0        0.054155    2.527501    0.000000
      5          1           0       -0.227894    3.468753    0.000000
      6          1           0       -0.744753    1.955440    0.000000
 ---------------------------------------------------------------------

 SCF Done:  E(RHF) =  -152.107434810     A.U. after   10 cycles
 E2 =    -0.5259387536D+00 EUMP2 =    -0.15263337356380D+03
 CCSD(T)
 CCSD(T)= -0.15266058710D+03

 The electronic state is 1-A'.
 Alpha  occ. eigenvalues --  -20.55596 -20.54840  -1.32891  -1.32135  -0.70299
 Alpha  occ. eigenvalues --   -0.69526  -0.56337  -0.55578  -0.50003  -0.49250
 Alpha virt. eigenvalues --    0.13718   0.15082   0.20109   0.21097   0.54186
 Alpha virt. eigenvalues --    0.54936   0.57191   0.57856   0.67022   0.69849
 Alpha virt. eigenvalues --    0.78882   0.79614   0.80138   0.80723   0.82776

 Mulliken charges:
               1
     1  O   -0.508620
     2  H    0.252051
     3  H    0.256769
     4  O   -0.508272
     5  H    0.249733
     6  H    0.258339
 Sum of Mulliken charges =  -0.00000

 Dipole moment (field-independent basis, Debye):
    X=             -1.8515    Y=             -1.3706    Z=              0.0000  Tot=              2.3036
 Quadrupole moment (field-independent basis, Debye-Ang):
   XX=             -9.6477   YY=              2.8695   ZZ=            -14.7127
   XY=             -4.2659   XZ=              0.0000   YZ=              0.0000

 Normal termination of Gaussian 16 at Fri Aug 26 20:16:10 2022.
