 Gaussian 16, Revision A.03,
 Gaussian 16:  ES64L-G16RevA.03 25-Dec-2016

 ------------------
 #p CCSD(T)/cc-pVTZ
 ------------------

 ------------
 H2O_H2O_2079
 ------------
 Symbolic Z-matrix:
 Charge =  0 Multiplicity = 1

                         Standard orientation:
 ---------------------------------------------------------------------
 Center     Atomic      Atomic             Coordinates (Angstroms)
 Number     Number       Type             X           Y           Z
 ---------------------------------------------------------------------
      1          8           0        0.014783   -1.905056    0.000000
      2          1           0       -0.785169   -2.475654    0.000000
      3          1           0        0.813973   -2.476722    0.000000
      4          8           0        0.014783    1.908929    0.000000
      5          1           0        0.639796    2.667127    0.000000
      6          1           0       -0.905133    2.254269    0.000000
 ---------------------------------------------------------------------

 SCF Done:  E(RHF) =  -152.104894399     A.U. after   10 cycles
 E2 =    -0.5264006324D+00 EUMP2 =    -0.15263129503144D+03
 CCSD(T)
 CCSD(T)= -0.15265854209D+03

 The electronic state is 1-A'.
 Alpha  occ. eigenvalues --  -20.54525 -20.54460  -1.31808  -1.31738  -0.69227
 Alpha  occ. eigenvalues --   -0.69155  -0.55343  -0.54803  -0.48919  -0.48819
 Alpha virt. eigenvalues --    0.14163   0.15798   0.20599   0.21244   0.53948
 Alpha virt. eigenvalues --    0.56445   0.57930   0.58243   0.61733   0.75306
 Alpha virt. eigenvalues --    0.79384   0.80265   0.80572   0.81021   0.82550

 Mulliken charges:
               1
     1  O   -0.491742
     2  H    0.244597
     3  H    0.247229
     4  O   -0.491681
     5  H    0.244216
     6  H    0.247382
 Sum of Mulliken charges =  -0.00000

 Dipole moment (field-independent basis, Debye):
    X=             -0.4977    Y=             -0.0708    Z=              0.0000  Tot=              0.5027
 Quadrupole moment (field-independent basis, Debye-Ang):
   XX=             -7.9778   YY=              2.9615   ZZ=            -14.7094
   XY=             -0.5351   XZ=              0.0000   YZ=              0.0000

 Normal termination of Gaussian 16 at Sat Aug 27 08:28:03 2022.
