 Gaussian 16, Revision A.03,
 Gaussian 16:  ES64L-G16RevA.03 25-Dec-2016

 ------------------
 #p CCSD(T)/cc-pVTZ
 ------------------

 ------------
 H2O_H2O_4874
 ------------
 Symbolic Z-matrix:
 Charge =  0 Multiplicity = 1

                         Standard orientation:
 ---------------------------------------------------------------------
 Center     Atomic      Atomic             Coordinates (Angstroms)
 Number     Number       Type             X           Y           Z
 ---------------------------------------------------------------------
      1          8           0        0.057196   -3.321063    0.000000
      2          1           0       -0.743205   -3.891030    0.000000
      3          1           0        0.855935   -3.893358    0.000000
      4          8           0        0.057196    3.435123    0.000000
      5          1           0       -0.512771    4.235524    0.000000
      6          1           0       -0.515099    2.636383    0.000000
 ---------------------------------------------------------------------

 SCF Done:  E(RHF) =  -152.107663636     A.U. after   10 cycles
 E2 =    -0.5258514074D+00 EUMP2 =    -0.15263351504302D+03
 CCSD(T)
 CCSD(T)= -0.15266073009D+03

 The electronic state is 1-A'.
 Alpha  occ. eigenvalues --  -20.55766 -20.55201  -1.33067  -1.32501  -0.70472
 Alpha  occ. eigenvalues --   -0.69902  -0.56525  -0.55955  -0.50180  -0.49616
 Alpha virt. eigenvalues --    0.13928   0.14497   0.20018   0.20617   0.54086
 Alpha virt. eigenvalues --    0.54667   0.57027   0.57592   0.67639   0.68233
 Alpha virt. eigenvalues --    0.78699   0.79255   0.80126   0.80718   0.82052

 Mulliken charges:
               1
     1  O   -0.510397
     2  H    0.254246
     3  H    0.256151
     4  O   -0.510091
     5  H    0.252897
     6  H    0.257193
 Sum of Mulliken charges =   0.00000

 Dipole moment (field-independent basis, Debye):
    X=             -1.9677    Y=             -1.9889    Z=              0.0000  Tot=              2.7978
 Quadrupole moment (field-independent basis, Debye-Ang):
   XX=             -9.8648   YY=              3.3931   ZZ=            -14.7126
   XY=             -6.9005   XZ=              0.0000   YZ=              0.0000

 Normal termination of Gaussian 16 at Sat Aug 27 09:49:27 2022.
