 Gaussian 16, Revision A.03,
 Gaussian 16:  ES64L-G16RevA.03 25-Dec-2016

 ------------------
 #p CCSD(T)/cc-pVTZ
 ------------------

 -----------
 H2O_H2O_752
 -----------
 Symbolic Z-matrix:
 Charge =  0 Multiplicity = 1

                         Standard orientation:
 ---------------------------------------------------------------------
 Center     Atomic      Atomic             Coordinates (Angstroms)
 Number     Number       Type             X           Y           Z
 ---------------------------------------------------------------------
      1          8           0        0.007455   -1.201950    0.000000
      2          1           0       -0.792421   -1.772655    0.000000
      3          1           0        0.806721   -1.773508    0.000000
      4          8           0        0.007455    1.202919    0.000000
      5          1           0        0.725996    1.873147    0.000000
      6          1           0       -0.859577    1.665262    0.000000
 ---------------------------------------------------------------------

 SCF Done:  E(RHF) =  -152.088382219     A.U. after   11 cycles
 E2 =    -0.5298521472D+00 EUMP2 =    -0.15261823436574D+03
 CCSD(T)
 CCSD(T)= -0.15264550698D+03

 The electronic state is 1-A'.
 Alpha  occ. eigenvalues --  -20.52880 -20.52851  -1.31040  -1.29889  -0.68259
 Alpha  occ. eigenvalues --   -0.67504  -0.57493  -0.49177  -0.48349  -0.46592
 Alpha virt. eigenvalues --    0.14528   0.17664   0.20574   0.22432   0.50346
 Alpha virt. eigenvalues --    0.58913   0.58947   0.63750   0.72850   0.76706
 Alpha virt. eigenvalues --    0.77300   0.80050   0.84137   0.86565   0.86696

 Mulliken charges:
               1
     1  O   -0.456437
     2  H    0.226270
     3  H    0.229918
     4  O   -0.454851
     5  H    0.224711
     6  H    0.230389
 Sum of Mulliken charges =  -0.00000

 Dipole moment (field-independent basis, Debye):
    X=             -0.2311    Y=             -0.0189    Z=              0.0000  Tot=              0.2318
 Quadrupole moment (field-independent basis, Debye-Ang):
   XX=             -8.0393   YY=             -3.3510   ZZ=            -14.7300
   XY=             -0.0977   XZ=              0.0000   YZ=              0.0000

 5894\MP4DQ=-152.6266869\MP4SDQ=-152.6299631\CCSD=-152.629298\CCSD(T)=-
 Normal termination of Gaussian 16 at Fri Aug 26 19:41:01 2022.
