 Gaussian 16, Revision A.03,
 Gaussian 16:  ES64L-G16RevA.03 25-Dec-2016

 ------------------
 #p CCSD(T)/cc-pVTZ
 ------------------

 ------------
 H2O_H2O_4578
 ------------
 Symbolic Z-matrix:
 Charge =  0 Multiplicity = 1

                         Standard orientation:
 ---------------------------------------------------------------------
 Center     Atomic      Atomic             Coordinates (Angstroms)
 Number     Number       Type             X           Y           Z
 ---------------------------------------------------------------------
      1          8           0        0.011143   -3.235562    0.000000
      2          1           0       -0.788598   -3.806457    0.000000
      3          1           0        0.810544   -3.806931    0.000000
      4          8           0        0.011143    3.237750    0.000000
      5          1           0        0.684140    3.953697    0.000000
      6          1           0       -0.884368    3.642185    0.000000
 ---------------------------------------------------------------------

 SCF Done:  E(RHF) =  -152.106876278     A.U. after   10 cycles
 E2 =    -0.5259234964D+00 EUMP2 =    -0.15263279977473D+03
 CCSD(T)
 CCSD(T)= -0.15266003135D+03

 The electronic state is 1-A'.
 Alpha  occ. eigenvalues --  -20.55220 -20.55208  -1.32516  -1.32504  -0.69923
 Alpha  occ. eigenvalues --   -0.69911  -0.55939  -0.55927  -0.49624  -0.49612
 Alpha virt. eigenvalues --    0.14408   0.14430   0.20459   0.20474   0.54645
 Alpha virt. eigenvalues --    0.54659   0.57516   0.57529   0.68280   0.68316
 Alpha virt. eigenvalues --    0.79255   0.79267   0.80698   0.80711   0.82625

 Mulliken charges:
               1
     1  O   -0.505726
     2  H    0.252627
     3  H    0.253099
     4  O   -0.505715
     5  H    0.252524
     6  H    0.253191
 Sum of Mulliken charges =   0.00000

 Dipole moment (field-independent basis, Debye):
    X=             -0.3830    Y=             -0.0382    Z=              0.0000  Tot=              0.3849
 Quadrupole moment (field-independent basis, Debye-Ang):
   XX=             -7.8803   YY=             13.6861   ZZ=            -14.7107
   XY=             -0.8973   XZ=              0.0000   YZ=              0.0000

 Normal termination of Gaussian 16 at Sat Aug 27 08:09:09 2022.
