 Gaussian 16, Revision A.03,
 Gaussian 16:  ES64L-G16RevA.03 25-Dec-2016

 ------------------
 #p CCSD(T)/cc-pVTZ
 ------------------

 ------------
 H2O_H2O_2507
 ------------
 Symbolic Z-matrix:
 Charge =  0 Multiplicity = 1

                         Standard orientation:
 ---------------------------------------------------------------------
 Center     Atomic      Atomic             Coordinates (Angstroms)
 Number     Number       Type             X           Y           Z
 ---------------------------------------------------------------------
      1          8           0        0.025267   -2.126820    0.000000
      2          1           0       -0.774886   -2.697136    0.000000
      3          1           0        0.824255   -2.698767    0.000000
      4          8           0        0.025267    2.138548    0.000000
      5          1           0        0.490657    3.003948    0.000000
      6          1           0       -0.944290    2.298128    0.000000
 ---------------------------------------------------------------------

 SCF Done:  E(RHF) =  -152.105740229     A.U. after   10 cycles
 E2 =    -0.5261613174D+00 EUMP2 =    -0.15263190154599D+03
 CCSD(T)
 CCSD(T)= -0.15265914495D+03

 The electronic state is 1-A'.
 Alpha  occ. eigenvalues --  -20.54815 -20.54661  -1.32102  -1.31947  -0.69516
 Alpha  occ. eigenvalues --   -0.69354  -0.55502  -0.55264  -0.49203  -0.49048
 Alpha virt. eigenvalues --    0.14149   0.15404   0.20543   0.21049   0.54431
 Alpha virt. eigenvalues --    0.55553   0.57791   0.58025   0.64464   0.73246
 Alpha virt. eigenvalues --    0.79539   0.79950   0.80975   0.81160   0.82272

 Mulliken charges:
               1
     1  O   -0.498502
     2  H    0.247591
     3  H    0.250991
     4  O   -0.498192
     5  H    0.246891
     6  H    0.251220
 Sum of Mulliken charges =  -0.00000

 Dipole moment (field-independent basis, Debye):
    X=             -0.8573    Y=             -0.2103    Z=              0.0000  Tot=              0.8828
 Quadrupole moment (field-independent basis, Debye-Ang):
   XX=             -8.2241   YY=              4.4624   ZZ=            -14.7100
   XY=             -1.1669   XZ=              0.0000   YZ=              0.0000

 Normal termination of Gaussian 16 at Fri Aug 26 13:06:25 2022.
