 Gaussian 16, Revision A.03,
 Gaussian 16:  ES64L-G16RevA.03 25-Dec-2016

 ------------------
 #p CCSD(T)/cc-pVTZ
 ------------------

 ------------
 H2O_H2O_1002
 ------------
 Symbolic Z-matrix:
 Charge =  0 Multiplicity = 1

                         Standard orientation:
 ---------------------------------------------------------------------
 Center     Atomic      Atomic             Coordinates (Angstroms)
 Number     Number       Type             X           Y           Z
 ---------------------------------------------------------------------
      1          8           0        0.007455   -1.334908    0.000000
      2          1           0       -0.792390   -1.905656    0.000000
      3          1           0        0.806752   -1.906424    0.000000
      4          8           0        0.007455    1.335878    0.000000
      5          1           0        0.725960    2.006144    0.000000
      6          1           0       -0.859602    1.798176    0.000000
 ---------------------------------------------------------------------

 SCF Done:  E(RHF) =  -152.096750669     A.U. after   11 cycles
 E2 =    -0.5283665685D+00 EUMP2 =    -0.15262511723717D+03
 CCSD(T)
 CCSD(T)= -0.15265243585D+03

 The electronic state is 1-A'.
 Alpha  occ. eigenvalues --  -20.53387 -20.53361  -1.31058  -1.30497  -0.68409
 Alpha  occ. eigenvalues --   -0.68018  -0.56338  -0.51278  -0.48321  -0.47335
 Alpha virt. eigenvalues --    0.14465   0.17219   0.20566   0.22173   0.50739
 Alpha virt. eigenvalues --    0.58631   0.58818   0.62010   0.72059   0.76557
 Alpha virt. eigenvalues --    0.76887   0.78554   0.80354   0.83634   0.86370

 Mulliken charges:
               1
     1  O   -0.464200
     2  H    0.230418
     3  H    0.233670
     4  O   -0.463168
     5  H    0.230092
     6  H    0.233187
 Sum of Mulliken charges =  -0.00000

 Dipole moment (field-independent basis, Debye):
    X=             -0.2379    Y=             -0.0185    Z=              0.0000  Tot=              0.2386
 Quadrupole moment (field-independent basis, Debye-Ang):
   XX=             -7.9811   YY=             -1.9999   ZZ=            -14.7177
   XY=             -0.1261   XZ=              0.0000   YZ=              0.0000

 Normal termination of Gaussian 16 at Sat Aug 27 01:17:38 2022.
