 Gaussian 16, Revision A.03,
 Gaussian 16:  ES64L-G16RevA.03 25-Dec-2016

 ------------------
 #p CCSD(T)/cc-pVTZ
 ------------------

 ------------
 H2O_H2O_2195
 ------------
 Symbolic Z-matrix:
 Charge =  0 Multiplicity = 1

                         Standard orientation:
 ---------------------------------------------------------------------
 Center     Atomic      Atomic             Coordinates (Angstroms)
 Number     Number       Type             X           Y           Z
 ---------------------------------------------------------------------
      1          8           0        0.055270   -1.914508    0.000000
      2          1           0       -0.745685   -2.483697    0.000000
      3          1           0        0.853452   -2.487578    0.000000
      4          8           0        0.055270    1.998902    0.000000
      5          1           0       -0.287223    2.919882    0.000000
      6          1           0       -0.704859    1.376238    0.000000
 ---------------------------------------------------------------------

 SCF Done:  E(RHF) =  -152.107920923     A.U. after   10 cycles
 E2 =    -0.5262281825D+00 EUMP2 =    -0.15263414910540D+03
 CCSD(T)
 CCSD(T)= -0.15266132244D+03

 The electronic state is 1-A'.
 Alpha  occ. eigenvalues --  -20.55781 -20.54313  -1.33056  -1.31603  -0.70465
 Alpha  occ. eigenvalues --   -0.68973  -0.56497  -0.55050  -0.50172  -0.48727
 Alpha virt. eigenvalues --    0.13183   0.16057   0.19946   0.22561   0.54166
 Alpha virt. eigenvalues --    0.54432   0.57074   0.58529   0.65615   0.74492
 Alpha virt. eigenvalues --    0.78544   0.79167   0.80258   0.80911   0.83733

 Mulliken charges:
               1
     1  O   -0.503132
     2  H    0.248663
     3  H    0.257261
     4  O   -0.508956
     5  H    0.245208
     6  H    0.260956
 Sum of Mulliken charges =  -0.00000

 Dipole moment (field-independent basis, Debye):
    X=             -1.8642    Y=             -1.5514    Z=              0.0000  Tot=              2.4253
 Quadrupole moment (field-independent basis, Debye-Ang):
   XX=             -9.7240   YY=             -0.3909   ZZ=            -14.7159
   XY=             -3.4871   XZ=              0.0000   YZ=              0.0000

 Normal termination of Gaussian 16 at Sat Aug 27 09:08:56 2022.
