 Gaussian 16, Revision A.03,
 Gaussian 16:  ES64L-G16RevA.03 25-Dec-2016

 ------------------
 #p CCSD(T)/cc-pVTZ
 ------------------

 ------------
 H2O_H2O_1525
 ------------
 Symbolic Z-matrix:
 Charge =  0 Multiplicity = 1

                         Standard orientation:
 ---------------------------------------------------------------------
 Center     Atomic      Atomic             Coordinates (Angstroms)
 Number     Number       Type             X           Y           Z
 ---------------------------------------------------------------------
      1          8           0        0.000000   -0.000000    1.614650
      2          1           0        0.000000    0.799571    2.185782
      3          1           0       -0.000000   -0.799571    2.185782
      4          8           0        0.000000   -0.000000   -1.614650
      5          1           0       -0.000000   -0.799571   -2.185782
      6          1           0        0.000000    0.799571   -2.185782
 ---------------------------------------------------------------------

 SCF Done:  E(RHF) =  -152.102787412     A.U. after   10 cycles
 E2 =    -0.5270001890D+00 EUMP2 =    -0.15262978760137D+03
 CCSD(T)
 CCSD(T)= -0.15265706557D+03

 The electronic state is 1-AG.
 Alpha  occ. eigenvalues --  -20.54055 -20.54054  -1.31404  -1.31281  -0.68823
 Alpha  occ. eigenvalues --   -0.68725  -0.55417  -0.53648  -0.48572  -0.48282
 Alpha virt. eigenvalues --    0.14334   0.16427   0.20587   0.21644   0.52431
 Alpha virt. eigenvalues --    0.58156   0.58558   0.58923   0.62860   0.76033
 Alpha virt. eigenvalues --    0.78403   0.78450   0.79670   0.82036   0.85726

 Mulliken charges:
               1
     1  O   -0.477892
     2  H    0.238946
     3  H    0.238946
     4  O   -0.477892
     5  H    0.238946
     6  H    0.238946
 Sum of Mulliken charges =  -0.00000

 Dipole moment (field-independent basis, Debye):
    X=             -0.0000    Y=              0.0000    Z=              0.0000  Tot=              0.0000
 Quadrupole moment (field-independent basis, Debye-Ang):
   XX=            -14.7089   YY=             -7.8774   ZZ=              0.5868
   XY=              0.0000   XZ=              0.0000   YZ=             -0.0000

 \MP4DQ=-152.6387538\MP4SDQ=-152.6418823\CCSD=-152.6412664\CCSD(T)=-152
 Normal termination of Gaussian 16 at Sat Aug 27 05:16:44 2022.
