 Gaussian 16, Revision A.03,
 Gaussian 16:  ES64L-G16RevA.03 25-Dec-2016

 ------------------
 #p CCSD(T)/cc-pVTZ
 ------------------

 ------------
 H2O_H2O_2751
 ------------
 Symbolic Z-matrix:
 Charge =  0 Multiplicity = 1

                         Standard orientation:
 ---------------------------------------------------------------------
 Center     Atomic      Atomic             Coordinates (Angstroms)
 Number     Number       Type             X           Y           Z
 ---------------------------------------------------------------------
      1          8           0        0.003735   -2.266017    0.000000
      2          1           0       -0.795917   -2.837035    0.000000
      3          1           0        0.803225   -2.837262    0.000000
      4          8           0        0.003735    2.266260    0.000000
      5          1           0        0.764330    2.888356    0.000000
      6          1           0       -0.831404    2.783994    0.000000
 ---------------------------------------------------------------------

 SCF Done:  E(RHF) =  -152.105750219     A.U. after   10 cycles
 E2 =    -0.5261016248D+00 EUMP2 =    -0.15263185184381D+03
 CCSD(T)
 CCSD(T)= -0.15265910118D+03

 The electronic state is 1-A'.
 Alpha  occ. eigenvalues --  -20.54777 -20.54775  -1.32068  -1.32064  -0.69481
 Alpha  occ. eigenvalues --   -0.69476  -0.55482  -0.55377  -0.49172  -0.49160
 Alpha virt. eigenvalues --    0.14356   0.15151   0.20629   0.20871   0.54795
 Alpha virt. eigenvalues --    0.55400   0.57809   0.57934   0.65715   0.71826
 Alpha virt. eigenvalues --    0.79618   0.79795   0.81160   0.81183   0.82263

 Mulliken charges:
               1
     1  O   -0.499002
     2  H    0.249288
     3  H    0.249714
     4  O   -0.498994
     5  H    0.249234
     6  H    0.249759
 Sum of Mulliken charges =  -0.00000

 Dipole moment (field-independent basis, Debye):
    X=             -0.1271    Y=             -0.0043    Z=              0.0000  Tot=              0.1272
 Quadrupole moment (field-independent basis, Debye-Ang):
   XX=             -7.8310   YY=              6.0245   ZZ=            -14.7096
   XY=             -0.1758   XZ=              0.0000   YZ=              0.0000

 Normal termination of Gaussian 16 at Fri Aug 26 15:45:50 2022.
