 Gaussian 16, Revision A.03,
 Gaussian 16:  ES64L-G16RevA.03 25-Dec-2016

 ------------------
 #p CCSD(T)/cc-pVTZ
 ------------------

 ------------
 H2O_H2O_2467
 ------------
 Symbolic Z-matrix:
 Charge =  0 Multiplicity = 1

                         Standard orientation:
 ---------------------------------------------------------------------
 Center     Atomic      Atomic             Coordinates (Angstroms)
 Number     Number       Type             X           Y           Z
 ---------------------------------------------------------------------
      1          8           0        0.051290   -2.072115    0.000000
      2          1           0       -0.749476   -2.641570    0.000000
      3          1           0        0.849662   -2.644922    0.000000
      4          8           0        0.051290    2.135606    0.000000
      5          1           0       -0.105268    3.105655    0.000000
      6          1           0       -0.815556    1.672913    0.000000
 ---------------------------------------------------------------------

 SCF Done:  E(RHF) =  -152.107127244     A.U. after   10 cycles
 E2 =    -0.5261145176D+00 EUMP2 =    -0.15263324176173D+03
 CCSD(T)
 CCSD(T)= -0.15266044695D+03

 The electronic state is 1-A'.
 Alpha  occ. eigenvalues --  -20.55454 -20.54546  -1.32739  -1.31833  -0.70150
 Alpha  occ. eigenvalues --   -0.69215  -0.56159  -0.55255  -0.49849  -0.48949
 Alpha virt. eigenvalues --    0.13478   0.15669   0.20132   0.21662   0.53962
 Alpha virt. eigenvalues --    0.54783   0.57336   0.58186   0.65634   0.73706
 Alpha virt. eigenvalues --    0.78982   0.79827   0.79962   0.82043   0.83007

 Mulliken charges:
               1
     1  O   -0.504144
     2  H    0.249062
     3  H    0.256060
     4  O   -0.505507
     5  H    0.246497
     6  H    0.258031
 Sum of Mulliken charges =   0.00000

 Dipole moment (field-independent basis, Debye):
    X=             -1.7390    Y=             -1.1481    Z=              0.0000  Tot=              2.0837
 Quadrupole moment (field-independent basis, Debye-Ang):
   XX=             -9.4604   YY=              1.6486   ZZ=            -14.7132
   XY=             -3.1522   XZ=              0.0000   YZ=              0.0000

 6498822\MP4DQ=-152.642316\MP4SDQ=-152.6453846\CCSD=-152.64479\CCSD(T)=
 Normal termination of Gaussian 16 at Sat Aug 27 10:43:10 2022.
