 Gaussian 16, Revision A.03,
 Gaussian 16:  ES64L-G16RevA.03 25-Dec-2016

 ------------------
 #p CCSD(T)/cc-pVTZ
 ------------------

 ------------
 H2O_H2O_3199
 ------------
 Symbolic Z-matrix:
 Charge =  0 Multiplicity = 1

                         Standard orientation:
 ---------------------------------------------------------------------
 Center     Atomic      Atomic             Coordinates (Angstroms)
 Number     Number       Type             X           Y           Z
 ---------------------------------------------------------------------
      1          8           0        0.057226   -2.430268    0.000000
      2          1           0       -0.743472   -2.999818    0.000000
      3          1           0        0.855666   -3.002979    0.000000
      4          8           0        0.057226    2.544268    0.000000
      5          1           0       -0.512324    3.344966    0.000000
      6          1           0       -0.515485    1.745827    0.000000
 ---------------------------------------------------------------------

 SCF Done:  E(RHF) =  -152.108111633     A.U. after   10 cycles
 E2 =    -0.5259029928D+00 EUMP2 =    -0.15263401462549D+03
 CCSD(T)
 CCSD(T)= -0.15266121018D+03

 The electronic state is 1-A'.
 Alpha  occ. eigenvalues --  -20.55918 -20.54790  -1.33213  -1.32092  -0.70618
 Alpha  occ. eigenvalues --   -0.69480  -0.56688  -0.55553  -0.50329  -0.49213
 Alpha virt. eigenvalues --    0.13350   0.15208   0.19906   0.21335   0.53910
 Alpha virt. eigenvalues --    0.54881   0.56928   0.57899   0.66766   0.69735
 Alpha virt. eigenvalues --    0.78563   0.79643   0.79682   0.80189   0.82813

 Mulliken charges:
               1
     1  O   -0.511733
     2  H    0.253808
     3  H    0.258417
     4  O   -0.511648
     5  H    0.250482
     6  H    0.260674
 Sum of Mulliken charges =  -0.00000

 Dipole moment (field-independent basis, Debye):
    X=             -1.9569    Y=             -2.0261    Z=              0.0000  Tot=              2.8168
 Quadrupole moment (field-independent basis, Debye-Ang):
   XX=             -9.8626   YY=             -0.1593   ZZ=            -14.7145
   XY=             -5.1623   XZ=              0.0000   YZ=              0.0000

 Normal termination of Gaussian 16 at Fri Aug 26 20:18:29 2022.
