 Gaussian 16, Revision A.03,
 Gaussian 16:  ES64L-G16RevA.03 25-Dec-2016

 ------------------
 #p CCSD(T)/cc-pVTZ
 ------------------

 ------------
 H2O_H2O_4202
 ------------
 Symbolic Z-matrix:
 Charge =  0 Multiplicity = 1

                         Standard orientation:
 ---------------------------------------------------------------------
 Center     Atomic      Atomic             Coordinates (Angstroms)
 Number     Number       Type             X           Y           Z
 ---------------------------------------------------------------------
      1          8           0        0.007455   -3.036783    0.000000
      2          1           0       -0.792237   -3.607746    0.000000
      3          1           0        0.806905   -3.608083    0.000000
      4          8           0        0.007455    3.037757    0.000000
      5          1           0        0.725780    3.708216    0.000000
      6          1           0       -0.859727    3.499821    0.000000
 ---------------------------------------------------------------------

 SCF Done:  E(RHF) =  -152.106738407     A.U. after   10 cycles
 E2 =    -0.5259404076D+00 EUMP2 =    -0.15263267881468D+03
 CCSD(T)
 CCSD(T)= -0.15265991303D+03

 The electronic state is 1-A'.
 Alpha  occ. eigenvalues --  -20.55155 -20.55149  -1.32451  -1.32445  -0.69858
 Alpha  occ. eigenvalues --   -0.69852  -0.55867  -0.55861  -0.49557  -0.49551
 Alpha virt. eigenvalues --    0.14446   0.14492   0.20499   0.20520   0.54708
 Alpha virt. eigenvalues --    0.54722   0.57569   0.57580   0.68319   0.68438
 Alpha virt. eigenvalues --    0.79321   0.79327   0.80767   0.80774   0.82697

 Mulliken charges:
               1
     1  O   -0.504916
     2  H    0.252269
     3  H    0.252647
     4  O   -0.504909
     5  H    0.252193
     6  H    0.252716
 Sum of Mulliken charges =   0.00000

 Dipole moment (field-independent basis, Debye):
    X=             -0.2559    Y=             -0.0170    Z=              0.0000  Tot=              0.2565
 Quadrupole moment (field-independent basis, Debye-Ang):
   XX=             -7.8393   YY=             12.1928   ZZ=            -14.7105
   XY=             -0.5468   XZ=              0.0000   YZ=              0.0000

 Normal termination of Gaussian 16 at Sat Aug 27 05:57:54 2022.
