 Gaussian 16, Revision A.03,
 Gaussian 16:  ES64L-G16RevA.03 25-Dec-2016

 ------------------
 #p CCSD(T)/cc-pVTZ
 ------------------

 ------------
 H2O_H2O_1062
 ------------
 Symbolic Z-matrix:
 Charge =  0 Multiplicity = 1

                         Standard orientation:
 ---------------------------------------------------------------------
 Center     Atomic      Atomic             Coordinates (Angstroms)
 Number     Number       Type             X           Y           Z
 ---------------------------------------------------------------------
      1          8           0        0.040428   -1.343967    0.000000
      2          1           0       -0.760600   -1.913054    0.000000
      3          1           0        0.838537   -1.917140    0.000000
      4          8           0        0.040428    1.377216    0.000000
      5          1           0        0.204435    2.346034    0.000000
      6          1           0       -0.929216    1.218162    0.000000
 ---------------------------------------------------------------------

 SCF Done:  E(RHF) =  -152.100807875     A.U. after   11 cycles
 E2 =    -0.5281847670D+00 EUMP2 =    -0.15262899264182D+03
 CCSD(T)
 CCSD(T)= -0.15265623246D+03

 The electronic state is 1-A'.
 Alpha  occ. eigenvalues --  -20.54382 -20.53388  -1.31828  -1.30623  -0.69238
 Alpha  occ. eigenvalues --   -0.68121  -0.56139  -0.52606  -0.49001  -0.47611
 Alpha virt. eigenvalues --    0.14044   0.17096   0.20273   0.22839   0.53269
 Alpha virt. eigenvalues --    0.58006   0.58280   0.59438   0.69339   0.76407
 Alpha virt. eigenvalues --    0.76716   0.77007   0.82207   0.83145   0.85635

 Mulliken charges:
               1
     1  O   -0.474521
     2  H    0.230873
     3  H    0.245582
     4  O   -0.467040
     5  H    0.221509
     6  H    0.243598
 Sum of Mulliken charges =  -0.00000

 Dipole moment (field-independent basis, Debye):
    X=             -1.2912    Y=             -0.6422    Z=              0.0000  Tot=              1.4421
 Quadrupole moment (field-independent basis, Debye-Ang):
   XX=             -8.9190   YY=             -2.2501   ZZ=            -14.7192
   XY=             -1.1101   XZ=              0.0000   YZ=              0.0000

 Normal termination of Gaussian 16 at Sat Aug 27 01:46:31 2022.
