 Gaussian 16, Revision A.03,
 Gaussian 16:  ES64L-G16RevA.03 25-Dec-2016

 ------------------
 #p CCSD(T)/cc-pVTZ
 ------------------

 -----------
 H2O_H2O_221
 -----------
 Symbolic Z-matrix:
 Charge =  0 Multiplicity = 1

                         Standard orientation:
 ---------------------------------------------------------------------
 Center     Atomic      Atomic             Coordinates (Angstroms)
 Number     Number       Type             X           Y           Z
 ---------------------------------------------------------------------
      1          8           0        0.056260   -0.860350    0.000000
      2          1           0       -0.746340   -1.427218    0.000000
      3          1           0        0.852780   -1.435729    0.000000
      4          8           0        0.056260    0.951694    0.000000
      5          1           0       -0.343137    1.849462    0.000000
      6          1           0       -0.663458    0.282729    0.000000
 ---------------------------------------------------------------------

 SCF Done:  E(RHF) =  -151.988471679     A.U. after   11 cycles
 E2 =    -0.5438743239D+00 EUMP2 =    -0.15253234600327D+03
 CCSD(T)
 CCSD(T)= -0.15255783102D+03

 The electronic state is 1-A'.
 Alpha  occ. eigenvalues --  -20.55815 -20.48889  -1.38835  -1.26542  -0.76521
 Alpha  occ. eigenvalues --   -0.71459  -0.53938  -0.51764  -0.46060  -0.43483
 Alpha virt. eigenvalues --    0.13052   0.18621   0.19889   0.26108   0.49868
 Alpha virt. eigenvalues --    0.54433   0.62323   0.67658   0.72958   0.75947
 Alpha virt. eigenvalues --    0.79057   0.79682   0.84117   0.85174   0.88359

 Mulliken charges:
               1
     1  O   -0.334506
     2  H    0.176911
     3  H    0.220931
     4  O   -0.476837
     5  H    0.152923
     6  H    0.260578
 Sum of Mulliken charges =  -0.00000

 Dipole moment (field-independent basis, Debye):
    X=             -1.5336    Y=             -2.2244    Z=              0.0000  Tot=              2.7018
 Quadrupole moment (field-independent basis, Debye-Ang):
   XX=             -9.8100   YY=             -7.8764   ZZ=            -14.5957
   XY=             -1.6542   XZ=              0.0000   YZ=              0.0000

 Normal termination of Gaussian 16 at Fri Aug 26 14:12:22 2022.
