 Gaussian 16, Revision A.03,
 Gaussian 16:  ES64L-G16RevA.03 25-Dec-2016

 ------------------
 #p CCSD(T)/cc-pVTZ
 ------------------

 ------------
 H2O_H2O_1238
 ------------
 Symbolic Z-matrix:
 Charge =  0 Multiplicity = 1

                         Standard orientation:
 ---------------------------------------------------------------------
 Center     Atomic      Atomic             Coordinates (Angstroms)
 Number     Number       Type             X           Y           Z
 ---------------------------------------------------------------------
      1          8           0        0.042989   -1.434082    0.000000
      2          1           0       -0.758032   -2.003178    0.000000
      3          1           0        0.841105   -2.007245    0.000000
      4          8           0        0.042989    1.472775    0.000000
      5          1           0        0.143270    2.450246    0.000000
      6          1           0       -0.914173    1.250632    0.000000
 ---------------------------------------------------------------------

 SCF Done:  E(RHF) =  -152.103303947     A.U. after   10 cycles
 E2 =    -0.5276080158D+00 EUMP2 =    -0.15263091196317D+03
 CCSD(T)
 CCSD(T)= -0.15265813654D+03

 The electronic state is 1-A'.
 Alpha  occ. eigenvalues --  -20.54692 -20.53611  -1.32039  -1.30857  -0.69463
 Alpha  occ. eigenvalues --   -0.68296  -0.55916  -0.53445  -0.49178  -0.47910
 Alpha virt. eigenvalues --    0.13927   0.16900   0.20224   0.22756   0.53612
 Alpha virt. eigenvalues --    0.57704   0.57845   0.58552   0.67610   0.76059
 Alpha virt. eigenvalues --    0.76882   0.77055   0.80702   0.82686   0.85450

 Mulliken charges:
               1
     1  O   -0.478933
     2  H    0.234077
     3  H    0.247707
     4  O   -0.476629
     5  H    0.226973
     6  H    0.246805
 Sum of Mulliken charges =  -0.00000

 Dipole moment (field-independent basis, Debye):
    X=             -1.3922    Y=             -0.7421    Z=              0.0000  Tot=              1.5777
 Quadrupole moment (field-independent basis, Debye-Ang):
   XX=             -9.0277   YY=             -1.6329   ZZ=            -14.7169
   XY=             -1.3810   XZ=              0.0000   YZ=              0.0000

 Normal termination of Gaussian 16 at Sat Aug 27 03:15:25 2022.
