 Gaussian 16, Revision A.03,
 Gaussian 16:  ES64L-G16RevA.03 25-Dec-2016

 ------------------
 #p CCSD(T)/cc-pVTZ
 ------------------

 ------------
 H2O_H2O_1606
 ------------
 Symbolic Z-matrix:
 Charge =  0 Multiplicity = 1

                         Standard orientation:
 ---------------------------------------------------------------------
 Center     Atomic      Atomic             Coordinates (Angstroms)
 Number     Number       Type             X           Y           Z
 ---------------------------------------------------------------------
      1          8           0        0.021861   -1.649841    0.000000
      2          1           0       -0.778359   -2.220064    0.000000
      3          1           0        0.820782   -2.221883    0.000000
      4          8           0        0.021861    1.658487    0.000000
      5          1           0        0.542954    2.491535    0.000000
      6          1           0       -0.935156    1.881249    0.000000
 ---------------------------------------------------------------------

 SCF Done:  E(RHF) =  -152.103647746     A.U. after   10 cycles
 E2 =    -0.5268811448D+00 EUMP2 =    -0.15263052889040D+03
 CCSD(T)
 CCSD(T)= -0.15265778675D+03

 The electronic state is 1-A'.
 Alpha  occ. eigenvalues --  -20.54296 -20.54110  -1.31591  -1.31374  -0.69016
 Alpha  occ. eigenvalues --   -0.68797  -0.55429  -0.53998  -0.48729  -0.48419
 Alpha virt. eigenvalues --    0.14189   0.16348   0.20524   0.21685   0.52760
 Alpha virt. eigenvalues --    0.57525   0.58122   0.58575   0.63094   0.76615
 Alpha virt. eigenvalues --    0.78514   0.78678   0.79816   0.81750   0.85060

 Mulliken charges:
               1
     1  O   -0.481794
     2  H    0.238268
     3  H    0.243900
     4  O   -0.481317
     5  H    0.237356
     6  H    0.243586
 Sum of Mulliken charges =  -0.00000

 Dipole moment (field-independent basis, Debye):
    X=             -0.7250    Y=             -0.1617    Z=              0.0000  Tot=              0.7429
 Quadrupole moment (field-independent basis, Debye-Ang):
   XX=             -8.1637   YY=              0.7344   ZZ=            -14.7096
   XY=             -0.6413   XZ=              0.0000   YZ=              0.0000

 Normal termination of Gaussian 16 at Sat Aug 27 05:44:12 2022.
