 Gaussian 16, Revision A.03,
 Gaussian 16:  ES64L-G16RevA.03 25-Dec-2016

 ------------------
 #p CCSD(T)/cc-pVTZ
 ------------------

 ------------
 H2O_H2O_4023
 ------------
 Symbolic Z-matrix:
 Charge =  0 Multiplicity = 1

                         Standard orientation:
 ---------------------------------------------------------------------
 Center     Atomic      Atomic             Coordinates (Angstroms)
 Number     Number       Type             X           Y           Z
 ---------------------------------------------------------------------
      1          8           0        0.057080   -2.873071    0.000000
      2          1           0       -0.743447   -3.442862    0.000000
      3          1           0        0.855693   -3.445543    0.000000
      4          8           0        0.057080    2.979636    0.000000
      5          1           0       -0.459134    3.815715    0.000000
      6          1           0       -0.566398    2.220174    0.000000
 ---------------------------------------------------------------------

 SCF Done:  E(RHF) =  -152.107717607     A.U. after   10 cycles
 E2 =    -0.5258633896D+00 EUMP2 =    -0.15263358099675D+03
 CCSD(T)
 CCSD(T)= -0.15266079359D+03

 The electronic state is 1-A'.
 Alpha  occ. eigenvalues --  -20.55771 -20.55047  -1.33071  -1.32347  -0.70476
 Alpha  occ. eigenvalues --   -0.69743  -0.56533  -0.55801  -0.50185  -0.49463
 Alpha virt. eigenvalues --    0.13849   0.14704   0.20015   0.20817   0.54076
 Alpha virt. eigenvalues --    0.54817   0.57026   0.57735   0.67472   0.68544
 Alpha virt. eigenvalues --    0.78697   0.79405   0.80117   0.80724   0.82303

 Mulliken charges:
               1
     1  O   -0.510723
     2  H    0.253892
     3  H    0.256851
     4  O   -0.510214
     5  H    0.251891
     6  H    0.258302
 Sum of Mulliken charges =  -0.00000

 Dipole moment (field-independent basis, Debye):
    X=             -1.9597    Y=             -1.8691    Z=              0.0000  Tot=              2.7082
 Quadrupole moment (field-independent basis, Debye-Ang):
   XX=             -9.8545   YY=              2.3583   ZZ=            -14.7129
   XY=             -5.8697   XZ=              0.0000   YZ=              0.0000

 Normal termination of Gaussian 16 at Sat Aug 27 04:56:19 2022.
