 Gaussian 16, Revision A.03,
 Gaussian 16:  ES64L-G16RevA.03 25-Dec-2016

 ------------------
 #p CCSD(T)/cc-pVTZ
 ------------------

 ------------
 H2O_H2O_2671
 ------------
 Symbolic Z-matrix:
 Charge =  0 Multiplicity = 1

                         Standard orientation:
 ---------------------------------------------------------------------
 Center     Atomic      Atomic             Coordinates (Angstroms)
 Number     Number       Type             X           Y           Z
 ---------------------------------------------------------------------
      1          8           0        0.056116   -2.163165    0.000000
      2          1           0       -0.744700   -2.732550    0.000000
      3          1           0        0.854438   -2.736041    0.000000
      4          8           0        0.056116    2.254862    0.000000
      5          1           0       -0.346097    3.151372    0.000000
      6          1           0       -0.661498    1.583642    0.000000
 ---------------------------------------------------------------------

 SCF Done:  E(RHF) =  -152.107911595     A.U. after   10 cycles
 E2 =    -0.5260230242D+00 EUMP2 =    -0.15263393461877D+03
 CCSD(T)
 CCSD(T)= -0.15266112436D+03

 The electronic state is 1-A'.
 Alpha  occ. eigenvalues --  -20.55791 -20.54590  -1.33078  -1.31886  -0.70485
 Alpha  occ. eigenvalues --   -0.69265  -0.56534  -0.55338  -0.50193  -0.49006
 Alpha virt. eigenvalues --    0.13239   0.15591   0.19965   0.21796   0.54019
 Alpha virt. eigenvalues --    0.54742   0.57064   0.58177   0.66382   0.71987
 Alpha virt. eigenvalues --    0.78690   0.79586   0.79857   0.80994   0.82586

 Mulliken charges:
               1
     1  O   -0.508129
     2  H    0.251442
     3  H    0.257932
     4  O   -0.510102
     5  H    0.248200
     6  H    0.260657
 Sum of Mulliken charges =  -0.00000

 Dipole moment (field-independent basis, Debye):
    X=             -1.9087    Y=             -1.6525    Z=              0.0000  Tot=              2.5247
 Quadrupole moment (field-independent basis, Debye-Ang):
   XX=             -9.7823   YY=              0.3914   ZZ=            -14.7147
   XY=             -4.1438   XZ=              0.0000   YZ=              0.0000

 Normal termination of Gaussian 16 at Fri Aug 26 14:55:22 2022.
