 Gaussian 16, Revision A.03,
 Gaussian 16:  ES64L-G16RevA.03 25-Dec-2016

 ------------------
 #p CCSD(T)/cc-pVTZ
 ------------------

 ------------
 H2O_H2O_3215
 ------------
 Symbolic Z-matrix:
 Charge =  0 Multiplicity = 1

                         Standard orientation:
 ---------------------------------------------------------------------
 Center     Atomic      Atomic             Coordinates (Angstroms)
 Number     Number       Type             X           Y           Z
 ---------------------------------------------------------------------
      1          8           0        0.047529   -2.477988    0.000000
      2          1           0       -0.752973   -3.047814    0.000000
      3          1           0        0.846167   -3.050425    0.000000
      4          8           0        0.047529    2.528599    0.000000
      5          1           0        0.018472    3.510771    0.000000
      6          1           0       -0.872134    2.182585    0.000000
 ---------------------------------------------------------------------

 SCF Done:  E(RHF) =  -152.106966497     A.U. after   10 cycles
 E2 =    -0.5259644345D+00 EUMP2 =    -0.15263293093100D+03
 CCSD(T)
 CCSD(T)= -0.15266015671D+03

 The electronic state is 1-A'.
 Alpha  occ. eigenvalues --  -20.55360 -20.54880  -1.32656  -1.32172  -0.70064
 Alpha  occ. eigenvalues --   -0.69568  -0.56081  -0.55598  -0.49764  -0.49283
 Alpha virt. eigenvalues --    0.14007   0.14971   0.20274   0.20928   0.54421
 Alpha virt. eigenvalues --    0.54985   0.57382   0.57831   0.67275   0.69747
 Alpha virt. eigenvalues --    0.79116   0.79587   0.80476   0.81009   0.82768

 Mulliken charges:
               1
     1  O   -0.506197
     2  H    0.251055
     3  H    0.255213
     4  O   -0.505756
     5  H    0.249491
     6  H    0.256196
 Sum of Mulliken charges =  -0.00000

 Dipole moment (field-independent basis, Debye):
    X=             -1.6249    Y=             -0.8950    Z=              0.0000  Tot=              1.8551
 Quadrupole moment (field-independent basis, Debye-Ang):
   XX=             -9.2259   YY=              4.8912   ZZ=            -14.7116
   XY=             -3.3685   XZ=              0.0000   YZ=              0.0000

 Normal termination of Gaussian 16 at Fri Aug 26 20:26:15 2022.
