 Gaussian 16, Revision A.03,
 Gaussian 16:  ES64L-G16RevA.03 25-Dec-2016

 ------------------
 #p CCSD(T)/cc-pVTZ
 ------------------

 ------------
 H2O_H2O_3576
 ------------
 Symbolic Z-matrix:
 Charge =  0 Multiplicity = 1

                         Standard orientation:
 ---------------------------------------------------------------------
 Center     Atomic      Atomic             Coordinates (Angstroms)
 Number     Number       Type             X           Y           Z
 ---------------------------------------------------------------------
      1          8           0        0.003735   -2.704782    0.000000
      2          1           0       -0.795904   -3.275819    0.000000
      3          1           0        0.803238   -3.276009    0.000000
      4          8           0        0.003735    2.705025    0.000000
      5          1           0        0.764315    3.327138    0.000000
      6          1           0       -0.831416    3.222739    0.000000
 ---------------------------------------------------------------------

 SCF Done:  E(RHF) =  -152.106425879     A.U. after   10 cycles
 E2 =    -0.5259818612D+00 EUMP2 =    -0.15263240774017D+03
 CCSD(T)
 CCSD(T)= -0.15265964777D+03

 The electronic state is 1-A'.
 Alpha  occ. eigenvalues --  -20.55024 -20.55022  -1.32318  -1.32316  -0.69727
 Alpha  occ. eigenvalues --   -0.69725  -0.55722  -0.55714  -0.49423  -0.49421
 Alpha virt. eigenvalues --    0.14478   0.14666   0.20564   0.20629   0.54810
 Alpha virt. eigenvalues --    0.54883   0.57664   0.57695   0.68138   0.68963
 Alpha virt. eigenvalues --    0.79451   0.79460   0.80886   0.80928   0.82786

 Mulliken charges:
               1
     1  O   -0.503082
     2  H    0.251410
     3  H    0.251672
     4  O   -0.503079
     5  H    0.251365
     6  H    0.251714
 Sum of Mulliken charges =  -0.00000

 Dipole moment (field-independent basis, Debye):
    X=             -0.1279    Y=             -0.0043    Z=              0.0000  Tot=              0.1280
 Quadrupole moment (field-independent basis, Debye-Ang):
   XX=             -7.8185   YY=              9.5763   ZZ=            -14.7101
   XY=             -0.2310   XZ=              0.0000   YZ=              0.0000

 Normal termination of Gaussian 16 at Sat Aug 27 01:37:43 2022.
