 Gaussian 16, Revision A.03,
 Gaussian 16:  ES64L-G16RevA.03 25-Dec-2016

 ------------------
 #p CCSD(T)/cc-pVTZ
 ------------------

 ------------
 H2O_H2O_2296
 ------------
 Symbolic Z-matrix:
 Charge =  0 Multiplicity = 1

                         Standard orientation:
 ---------------------------------------------------------------------
 Center     Atomic      Atomic             Coordinates (Angstroms)
 Number     Number       Type             X           Y           Z
 ---------------------------------------------------------------------
      1          8           0        0.056126   -1.963739    0.000000
      2          1           0       -0.744813   -2.532951    0.000000
      3          1           0        0.854324   -2.536788    0.000000
      4          8           0        0.056126    2.055412    0.000000
      5          1           0       -0.345893    2.952009    0.000000
      6          1           0       -0.661633    1.384346    0.000000
 ---------------------------------------------------------------------

 SCF Done:  E(RHF) =  -152.108147873     A.U. after   10 cycles
 E2 =    -0.5261667197D+00 EUMP2 =    -0.15263431459292D+03
 CCSD(T)
 CCSD(T)= -0.15266148602D+03

 The electronic state is 1-A'.
 Alpha  occ. eigenvalues --  -20.55870 -20.54360  -1.33146  -1.31655  -0.70554
 Alpha  occ. eigenvalues --   -0.69025  -0.56601  -0.55109  -0.50264  -0.48779
 Alpha virt. eigenvalues --    0.13115   0.15982   0.19909   0.22528   0.54086
 Alpha virt. eigenvalues --    0.54597   0.57005   0.58510   0.65968   0.73806
 Alpha virt. eigenvalues --    0.78524   0.79280   0.80149   0.81289   0.82855

 Mulliken charges:
               1
     1  O   -0.504932
     2  H    0.249775
     3  H    0.257847
     4  O   -0.510551
     5  H    0.246208
     6  H    0.261652
 Sum of Mulliken charges =   0.00000

 Dipole moment (field-independent basis, Debye):
    X=             -1.8974    Y=             -1.6791    Z=              0.0000  Tot=              2.5337
 Quadrupole moment (field-independent basis, Debye-Ang):
   XX=             -9.7826   YY=             -0.5725   ZZ=            -14.7161
   XY=             -3.7685   XZ=              0.0000   YZ=              0.0000

 Normal termination of Gaussian 16 at Sat Aug 27 09:43:03 2022.
