 Gaussian 16, Revision A.03,
 Gaussian 16:  ES64L-G16RevA.03 25-Dec-2016

 ------------------
 #p CCSD(T)/cc-pVTZ
 ------------------

 ------------
 H2O_H2O_1871
 ------------
 Symbolic Z-matrix:
 Charge =  0 Multiplicity = 1

                         Standard orientation:
 ---------------------------------------------------------------------
 Center     Atomic      Atomic             Coordinates (Angstroms)
 Number     Number       Type             X           Y           Z
 ---------------------------------------------------------------------
      1          8           0        0.056140   -1.737726    0.000000
      2          1           0       -0.744972   -2.306694    0.000000
      3          1           0        0.854164   -2.311018    0.000000
      4          8           0        0.056140    1.829365    0.000000
      5          1           0       -0.345606    2.726084    0.000000
      6          1           0       -0.661823    1.158518    0.000000
 ---------------------------------------------------------------------

 SCF Done:  E(RHF) =  -152.108446212     A.U. after   10 cycles
 E2 =    -0.5264842992D+00 EUMP2 =    -0.15263493051146D+03
 CCSD(T)
 CCSD(T)= -0.15266207612D+03

 The electronic state is 1-A'.
 Alpha  occ. eigenvalues --  -20.55993 -20.54003  -1.33262  -1.31294  -0.70671
 Alpha  occ. eigenvalues --   -0.68664  -0.56707  -0.54754  -0.50381  -0.48424
 Alpha virt. eigenvalues --    0.13125   0.16483   0.19824   0.23567   0.53595
 Alpha virt. eigenvalues --    0.55102   0.56847   0.58383   0.65959   0.75116
 Alpha virt. eigenvalues --    0.77853   0.78388   0.79034   0.80796   0.84485

 Mulliken charges:
               1
     1  O   -0.498667
     2  H    0.246816
     3  H    0.257345
     4  O   -0.510194
     5  H    0.242553
     6  H    0.262145
 Sum of Mulliken charges =  -0.00000

 Dipole moment (field-independent basis, Debye):
    X=             -1.8772    Y=             -1.7214    Z=              0.0000  Tot=              2.5470
 Quadrupole moment (field-independent basis, Debye-Ang):
   XX=             -9.7845   YY=             -1.6899   ZZ=            -14.7188
   XY=             -3.3459   XZ=              0.0000   YZ=              0.0000

 Normal termination of Gaussian 16 at Sat Aug 27 07:16:53 2022.
