 Gaussian 16, Revision A.03,
 Gaussian 16:  ES64L-G16RevA.03 25-Dec-2016

 ------------------
 #p CCSD(T)/cc-pVTZ
 ------------------

 ------------
 H2O_H2O_2937
 ------------
 Symbolic Z-matrix:
 Charge =  0 Multiplicity = 1

                         Standard orientation:
 ---------------------------------------------------------------------
 Center     Atomic      Atomic             Coordinates (Angstroms)
 Number     Number       Type             X           Y           Z
 ---------------------------------------------------------------------
      1          8           0        0.040410   -2.341115    0.000000
      2          1           0       -0.760002   -2.911067    0.000000
      3          1           0        0.839138   -2.913425    0.000000
      4          8           0        0.040410    2.374452    0.000000
      5          1           0        0.203370    3.343445    0.000000
      6          1           0       -0.929061    2.214350    0.000000
 ---------------------------------------------------------------------

 SCF Done:  E(RHF) =  -152.106543299     A.U. after   10 cycles
 E2 =    -0.5260224502D+00 EUMP2 =    -0.15263256574927D+03
 CCSD(T)
 CCSD(T)= -0.15265979888D+03

 The electronic state is 1-A'.
 Alpha  occ. eigenvalues --  -20.55161 -20.54805  -1.32454  -1.32095  -0.69864
 Alpha  occ. eigenvalues --   -0.69493  -0.55859  -0.55499  -0.49559  -0.49203
 Alpha virt. eigenvalues --    0.14070   0.15112   0.20382   0.20968   0.54504
 Alpha virt. eigenvalues --    0.55099   0.57545   0.57885   0.66705   0.70830
 Alpha virt. eigenvalues --    0.79312   0.79674   0.80653   0.81278   0.82785

 Mulliken charges:
               1
     1  O   -0.503648
     2  H    0.249776
     3  H    0.253954
     4  O   -0.503209
     5  H    0.248510
     6  H    0.254617
 Sum of Mulliken charges =  -0.00000

 Dipole moment (field-independent basis, Debye):
    X=             -1.3782    Y=             -0.5918    Z=              0.0000  Tot=              1.4999
 Quadrupole moment (field-independent basis, Debye-Ang):
   XX=             -8.8363   YY=              5.0233   ZZ=            -14.7109
   XY=             -2.4460   XZ=              0.0000   YZ=              0.0000

 Normal termination of Gaussian 16 at Fri Aug 26 17:37:21 2022.
