 Gaussian 16, Revision A.03,
 Gaussian 16:  ES64L-G16RevA.03 25-Dec-2016

 ------------------
 #p CCSD(T)/cc-pVTZ
 ------------------

 -----------
 H2O_H2O_501
 -----------
 Symbolic Z-matrix:
 Charge =  0 Multiplicity = 1

                         Standard orientation:
 ---------------------------------------------------------------------
 Center     Atomic      Atomic             Coordinates (Angstroms)
 Number     Number       Type             X           Y           Z
 ---------------------------------------------------------------------
      1          8           0        0.003735   -1.069385    0.000000
      2          1           0       -0.796007   -1.640277    0.000000
      3          1           0        0.803135   -1.640758    0.000000
      4          8           0        0.003735    1.069628    0.000000
      5          1           0        0.764428    1.691603    0.000000
      6          1           0       -0.831322    1.587494    0.000000
 ---------------------------------------------------------------------

 SCF Done:  E(RHF) =  -152.068536354     A.U. after   10 cycles
 E2 =    -0.5327777245D+00 EUMP2 =    -0.15260131407829D+03
 CCSD(T)
 CCSD(T)= -0.15262837637D+03

 The electronic state is 1-A'.
 Alpha  occ. eigenvalues --  -20.52171 -20.52164  -1.31393  -1.29028  -0.68279
 Alpha  occ. eigenvalues --   -0.66811  -0.59586  -0.48690  -0.45830  -0.45551
 Alpha virt. eigenvalues --    0.14627   0.18180   0.20542   0.22676   0.50162
 Alpha virt. eigenvalues --    0.59094   0.59195   0.65536   0.71070   0.77402
 Alpha virt. eigenvalues --    0.78587   0.81966   0.84434   0.86694   0.87040

 Mulliken charges:
               1
     1  O   -0.441368
     2  H    0.219621
     3  H    0.221665
     4  O   -0.440769
     5  H    0.217628
     6  H    0.223223
 Sum of Mulliken charges =  -0.00000

 Dipole moment (field-independent basis, Debye):
    X=             -0.1116    Y=             -0.0050    Z=              0.0000  Tot=              0.1117
 Quadrupole moment (field-independent basis, Debye-Ang):
   XX=             -8.1022   YY=             -4.8686   ZZ=            -14.7461
   XY=             -0.0370   XZ=              0.0000   YZ=              0.0000

 Normal termination of Gaussian 16 at Fri Aug 26 17:06:00 2022.
