 Gaussian 16, Revision A.03,
 Gaussian 16:  ES64L-G16RevA.03 25-Dec-2016

 ------------------
 #p CCSD(T)/cc-pVTZ
 ------------------

 -----------
 H2O_H2O_506
 -----------
 Symbolic Z-matrix:
 Charge =  0 Multiplicity = 1

                         Standard orientation:
 ---------------------------------------------------------------------
 Center     Atomic      Atomic             Coordinates (Angstroms)
 Number     Number       Type             X           Y           Z
 ---------------------------------------------------------------------
      1          8           0        0.021864   -1.064836    0.000000
      2          1           0       -0.778711   -1.634560    0.000000
      3          1           0        0.820429   -1.637374    0.000000
      4          8           0        0.021864    1.073454    0.000000
      5          1           0        0.543475    1.906176    0.000000
      6          1           0       -0.935015    1.296812    0.000000
 ---------------------------------------------------------------------

 SCF Done:  E(RHF) =  -152.070534057     A.U. after   11 cycles
 E2 =    -0.5327253895D+00 EUMP2 =    -0.15260325944684D+03
 CCSD(T)
 CCSD(T)= -0.15263030931D+03

 The electronic state is 1-A'.
 Alpha  occ. eigenvalues --  -20.52496 -20.52223  -1.31598  -1.29111  -0.68563
 Alpha  occ. eigenvalues --   -0.67033  -0.59219  -0.48874  -0.46372  -0.45676
 Alpha virt. eigenvalues --    0.14539   0.18014   0.20463   0.22879   0.51275
 Alpha virt. eigenvalues --    0.58774   0.58857   0.64678   0.70402   0.77123
 Alpha virt. eigenvalues --    0.78054   0.82022   0.84137   0.86498   0.87366

 Mulliken charges:
               1
     1  O   -0.447391
     2  H    0.216494
     3  H    0.229001
     4  O   -0.430433
     5  H    0.200000
     6  H    0.232329
 Sum of Mulliken charges =  -0.00000

 Dipole moment (field-independent basis, Debye):
    X=             -0.6514    Y=             -0.1752    Z=              0.0000  Tot=              0.6746
 Quadrupole moment (field-independent basis, Debye-Ang):
   XX=             -8.3631   YY=             -4.8714   ZZ=            -14.7404
   XY=             -0.2622   XZ=              0.0000   YZ=              0.0000

 Normal termination of Gaussian 16 at Fri Aug 26 17:08:55 2022.
