 Gaussian 16, Revision A.03,
 Gaussian 16:  ES64L-G16RevA.03 25-Dec-2016

 ------------------
 #p CCSD(T)/cc-pVTZ
 ------------------

 ------------
 H2O_H2O_4866
 ------------
 Symbolic Z-matrix:
 Charge =  0 Multiplicity = 1

                         Standard orientation:
 ---------------------------------------------------------------------
 Center     Atomic      Atomic             Coordinates (Angstroms)
 Number     Number       Type             X           Y           Z
 ---------------------------------------------------------------------
      1          8           0        0.049497   -3.352055    0.000000
      2          1           0       -0.750792   -3.922180    0.000000
      3          1           0        0.848348   -3.924194    0.000000
      4          8           0        0.049497    3.409044    0.000000
      5          1           0       -0.044100    4.387178    0.000000
      6          1           0       -0.845414    3.003288    0.000000
 ---------------------------------------------------------------------

 SCF Done:  E(RHF) =  -152.107302061     A.U. after   10 cycles
 E2 =    -0.5258843950D+00 EUMP2 =    -0.15263318645645D+03
 CCSD(T)
 CCSD(T)= -0.15266040908D+03

 The electronic state is 1-A'.
 Alpha  occ. eigenvalues --  -20.55513 -20.55226  -1.32811  -1.32523  -0.70217
 Alpha  occ. eigenvalues --   -0.69925  -0.56253  -0.55965  -0.49922  -0.49635
 Alpha virt. eigenvalues --    0.14155   0.14442   0.20224   0.20526   0.54346
 Alpha virt. eigenvalues --    0.54648   0.57255   0.57542   0.67944   0.68238
 Alpha virt. eigenvalues --    0.78958   0.79241   0.80391   0.80698   0.82315

 Mulliken charges:
               1
     1  O   -0.508253
     2  H    0.253221
     3  H    0.255032
     4  O   -0.508087
     5  H    0.252463
     6  H    0.255624
 Sum of Mulliken charges =  -0.00000

 Dipole moment (field-independent basis, Debye):
    X=             -1.7026    Y=             -0.9934    Z=              0.0000  Tot=              1.9712
 Quadrupole moment (field-independent basis, Debye-Ang):
   XX=             -9.3455   YY=              9.7270   ZZ=            -14.7117
   XY=             -5.0856   XZ=              0.0000   YZ=              0.0000

 Normal termination of Gaussian 16 at Sat Aug 27 09:46:45 2022.
