 Gaussian 16, Revision A.03,
 Gaussian 16:  ES64L-G16RevA.03 25-Dec-2016

 ------------------
 #p CCSD(T)/cc-pVTZ
 ------------------

 ------------
 H2O_H2O_2658
 ------------
 Symbolic Z-matrix:
 Charge =  0 Multiplicity = 1

                         Standard orientation:
 ---------------------------------------------------------------------
 Center     Atomic      Atomic             Coordinates (Angstroms)
 Number     Number       Type             X           Y           Z
 ---------------------------------------------------------------------
      1          8           0        0.028565   -2.204688    0.000000
      2          1           0       -0.771640   -2.774931    0.000000
      3          1           0        0.827501   -2.776708    0.000000
      4          8           0        0.028565    2.219928    0.000000
      5          1           0        0.436443    3.113876    0.000000
      6          1           0       -0.949344    2.315845    0.000000
 ---------------------------------------------------------------------

 SCF Done:  E(RHF) =  -152.105969947     A.U. after   10 cycles
 E2 =    -0.5261074843D+00 EUMP2 =    -0.15263207743096D+03
 CCSD(T)
 CCSD(T)= -0.15265931946D+03

 The electronic state is 1-A'.
 Alpha  occ. eigenvalues --  -20.54904 -20.54720  -1.32194  -1.32008  -0.69607
 Alpha  occ. eigenvalues --   -0.69413  -0.55584  -0.55365  -0.49296  -0.49111
 Alpha virt. eigenvalues --    0.14162   0.15279   0.20515   0.20994   0.54529
 Alpha virt. eigenvalues --    0.55373   0.57734   0.57965   0.65400   0.72336
 Alpha virt. eigenvalues --    0.79517   0.79820   0.80940   0.81230   0.82406

 Mulliken charges:
               1
     1  O   -0.500130
     2  H    0.248352
     3  H    0.251845
     4  O   -0.499771
     5  H    0.247564
     6  H    0.252140
 Sum of Mulliken charges =  -0.00000

 Dipole moment (field-independent basis, Debye):
    X=             -0.9712    Y=             -0.2720    Z=              0.0000  Tot=              1.0086
 Quadrupole moment (field-independent basis, Debye-Ang):
   XX=             -8.3313   YY=              4.9160   ZZ=            -14.7101
   XY=             -1.4269   XZ=              0.0000   YZ=              0.0000

 Normal termination of Gaussian 16 at Fri Aug 26 14:48:07 2022.
