 Gaussian 16, Revision A.03,
 Gaussian 16:  ES64L-G16RevA.03 25-Dec-2016

 ------------------
 #p CCSD(T)/cc-pVTZ
 ------------------

 ------------
 H2O_H2O_1546
 ------------
 Symbolic Z-matrix:
 Charge =  0 Multiplicity = 1

                         Standard orientation:
 ---------------------------------------------------------------------
 Center     Atomic      Atomic             Coordinates (Angstroms)
 Number     Number       Type             X           Y           Z
 ---------------------------------------------------------------------
      1          8           0        0.056153   -1.564896    0.000000
      2          1           0       -0.745124   -2.133632    0.000000
      3          1           0        0.854011   -2.138419    0.000000
      4          8           0        0.056153    1.656502    0.000000
      5          1           0       -0.345333    2.553338    0.000000
      6          1           0       -0.662005    0.985864    0.000000
 ---------------------------------------------------------------------

 SCF Done:  E(RHF) =  -152.108446465     A.U. after   10 cycles
 E2 =    -0.5269558008D+00 EUMP2 =    -0.15263540226587D+03
 CCSD(T)
 CCSD(T)= -0.15266252642D+03

 The electronic state is 1-A'.
 Alpha  occ. eigenvalues --  -20.56104 -20.53624  -1.33389  -1.30916  -0.70797
 Alpha  occ. eigenvalues --   -0.68332  -0.56791  -0.54381  -0.50507  -0.48046
 Alpha virt. eigenvalues --    0.13172   0.16914   0.19748   0.24305   0.53225
 Alpha virt. eigenvalues --    0.55328   0.56827   0.58288   0.67226   0.75723
 Alpha virt. eigenvalues --    0.76547   0.76683   0.79868   0.81526   0.84403

 Mulliken charges:
               1
     1  O   -0.492801
     2  H    0.244034
     3  H    0.257600
     4  O   -0.508670
     5  H    0.238233
     6  H    0.261604
 Sum of Mulliken charges =  -0.00000

 Dipole moment (field-independent basis, Debye):
    X=             -1.8532    Y=             -1.7645    Z=              0.0000  Tot=              2.5589
 Quadrupole moment (field-independent basis, Debye-Ang):
   XX=             -9.7883   YY=             -2.5826   ZZ=            -14.7223
   XY=             -3.0263   XZ=              0.0000   YZ=              0.0000

 Normal termination of Gaussian 16 at Sat Aug 27 05:23:47 2022.
