 Gaussian 16, Revision A.03,
 Gaussian 16:  ES64L-G16RevA.03 25-Dec-2016

 ------------------
 #p CCSD(T)/cc-pVTZ
 ------------------

 -----------
 H2O_H2O_857
 -----------
 Symbolic Z-matrix:
 Charge =  0 Multiplicity = 1

                         Standard orientation:
 ---------------------------------------------------------------------
 Center     Atomic      Atomic             Coordinates (Angstroms)
 Number     Number       Type             X           Y           Z
 ---------------------------------------------------------------------
      1          8           0        0.025271   -1.249309    0.000000
      2          1           0       -0.775289   -1.819055    0.000000
      3          1           0        0.823851   -1.821825    0.000000
      4          8           0        0.025271    1.261001    0.000000
      5          1           0        0.491278    2.126069    0.000000
      6          1           0       -0.944172    1.421272    0.000000
 ---------------------------------------------------------------------

 SCF Done:  E(RHF) =  -152.093952600     A.U. after   11 cycles
 E2 =    -0.5291491786D+00 EUMP2 =    -0.15262310177853D+03
 CCSD(T)
 CCSD(T)= -0.15265037713D+03

 The electronic state is 1-A'.
 Alpha  occ. eigenvalues --  -20.53439 -20.53089  -1.31232  -1.30242  -0.68548
 Alpha  occ. eigenvalues --   -0.67823  -0.56851  -0.50570  -0.48511  -0.47041
 Alpha virt. eigenvalues --    0.14379   0.17378   0.20489   0.22554   0.51611
 Alpha virt. eigenvalues --    0.58586   0.58773   0.62162   0.71183   0.76494
 Alpha virt. eigenvalues --    0.76849   0.79414   0.83805   0.85067   0.86251

 Mulliken charges:
               1
     1  O   -0.465115
     2  H    0.226275
     3  H    0.237637
     4  O   -0.453512
     5  H    0.218742
     6  H    0.235973
 Sum of Mulliken charges =  -0.00000

 Dipole moment (field-independent basis, Debye):
    X=             -0.7920    Y=             -0.2266    Z=              0.0000  Tot=              0.8238
 Quadrupole moment (field-independent basis, Debye-Ang):
   XX=             -8.3598   YY=             -2.8819   ZZ=            -14.7237
   XY=             -0.4467   XZ=              0.0000   YZ=              0.0000

 Normal termination of Gaussian 16 at Fri Aug 26 20:37:18 2022.
