 Gaussian 16, Revision A.03,
 Gaussian 16:  ES64L-G16RevA.03 25-Dec-2016

 ------------------
 #p CCSD(T)/cc-pVTZ
 ------------------

 -----------
 H2O_H2O_647
 -----------
 Symbolic Z-matrix:
 Charge =  0 Multiplicity = 1

                         Standard orientation:
 ---------------------------------------------------------------------
 Center     Atomic      Atomic             Coordinates (Angstroms)
 Number     Number       Type             X           Y           Z
 ---------------------------------------------------------------------
      1          8           0        0.056838   -1.082318    0.000000
      2          1           0       -0.745186   -1.650001    0.000000
      3          1           0        0.853942   -1.656889    0.000000
      4          8           0        0.056838    1.181147    0.000000
      5          1           0       -0.401303    2.050406    0.000000
      6          1           0       -0.616860    0.465858    0.000000
 ---------------------------------------------------------------------

 SCF Done:  E(RHF) =  -152.086644451     A.U. after   11 cycles
 E2 =    -0.5327754388D+00 EUMP2 =    -0.15261941988948D+03
 CCSD(T)
 CCSD(T)= -0.15264613033D+03

 The electronic state is 1-A'.
 Alpha  occ. eigenvalues --  -20.56552 -20.51028  -1.35112  -1.28629  -0.72467
 Alpha  occ. eigenvalues --   -0.69135  -0.54652  -0.52304  -0.51900  -0.45632
 Alpha virt. eigenvalues --    0.13040   0.18601   0.19303   0.26497   0.50278
 Alpha virt. eigenvalues --    0.55695   0.61321   0.63606   0.71797   0.73864
 Alpha virt. eigenvalues --    0.77194   0.82155   0.83645   0.84293   0.87112

 Mulliken charges:
               1
     1  O   -0.431398
     2  H    0.221441
     3  H    0.246307
     4  O   -0.504504
     5  H    0.206103
     6  H    0.262050
 Sum of Mulliken charges =  -0.00000

 Dipole moment (field-independent basis, Debye):
    X=             -1.7249    Y=             -2.1880    Z=              0.0000  Tot=              2.7862
 Quadrupole moment (field-independent basis, Debye-Ang):
   XX=             -9.8300   YY=             -5.8174   ZZ=            -14.6952
   XY=             -2.2965   XZ=              0.0000   YZ=              0.0000

 Normal termination of Gaussian 16 at Fri Aug 26 18:39:07 2022.
