 Gaussian 16, Revision A.03,
 Gaussian 16:  ES64L-G16RevA.03 25-Dec-2016

 ------------------
 #p CCSD(T)/cc-pVTZ
 ------------------

 ------------
 H2O_H2O_4391
 ------------
 Symbolic Z-matrix:
 Charge =  0 Multiplicity = 1

                         Standard orientation:
 ---------------------------------------------------------------------
 Center     Atomic      Atomic             Coordinates (Angstroms)
 Number     Number       Type             X           Y           Z
 ---------------------------------------------------------------------
      1          8           0        0.049500   -3.099439    0.000000
      2          1           0       -0.750847   -3.669482    0.000000
      3          1           0        0.848293   -3.671659    0.000000
      4          8           0        0.049500    3.156417    0.000000
      5          1           0       -0.043997    4.134560    0.000000
      6          1           0       -0.845453    2.750752    0.000000
 ---------------------------------------------------------------------

 SCF Done:  E(RHF) =  -152.107255742     A.U. after   10 cycles
 E2 =    -0.5258943655D+00 EUMP2 =    -0.15263315010734D+03
 CCSD(T)
 CCSD(T)= -0.15266037334D+03

 The electronic state is 1-A'.
 Alpha  occ. eigenvalues --  -20.55490 -20.55153  -1.32788  -1.32449  -0.70195
 Alpha  occ. eigenvalues --   -0.69850  -0.56228  -0.55889  -0.49899  -0.49561
 Alpha virt. eigenvalues --    0.14164   0.14518   0.20239   0.20600   0.54368
 Alpha virt. eigenvalues --    0.54727   0.57274   0.57612   0.67954   0.68336
 Alpha virt. eigenvalues --    0.78981   0.79314   0.80415   0.80776   0.82345

 Mulliken charges:
               1
     1  O   -0.507991
     2  H    0.252859
     3  H    0.255132
     4  O   -0.507764
     5  H    0.251918
     6  H    0.255846
 Sum of Mulliken charges =  -0.00000

 Dipole moment (field-independent basis, Debye):
    X=             -1.7010    Y=             -0.9957    Z=              0.0000  Tot=              1.9710
 Quadrupole moment (field-independent basis, Debye-Ang):
   XX=             -9.3454   YY=              8.2133   ZZ=            -14.7117
   XY=             -4.6584   XZ=              0.0000   YZ=              0.0000

 Normal termination of Gaussian 16 at Sat Aug 27 07:03:55 2022.
