 Gaussian 16, Revision A.03,
 Gaussian 16:  ES64L-G16RevA.03 25-Dec-2016

 ------------------
 #p CCSD(T)/cc-pVTZ
 ------------------

 ------------
 H2O_H2O_2126
 ------------
 Symbolic Z-matrix:
 Charge =  0 Multiplicity = 1

                         Standard orientation:
 ---------------------------------------------------------------------
 Center     Atomic      Atomic             Coordinates (Angstroms)
 Number     Number       Type             X           Y           Z
 ---------------------------------------------------------------------
      1          8           0        0.003735   -1.933619    0.000000
      2          1           0       -0.795931   -2.504618    0.000000
      3          1           0        0.803211   -2.504884    0.000000
      4          8           0        0.003735    1.933862    0.000000
      5          1           0        0.764345    2.555940    0.000000
      6          1           0       -0.831392    2.451616    0.000000
 ---------------------------------------------------------------------

 SCF Done:  E(RHF) =  -152.104872813     A.U. after   10 cycles
 E2 =    -0.5263704003D+00 EUMP2 =    -0.15263124321308D+03
 CCSD(T)
 CCSD(T)= -0.15265849339D+03

 The electronic state is 1-A'.
 Alpha  occ. eigenvalues --  -20.54498 -20.54494  -1.31788  -1.31767  -0.69208
 Alpha  occ. eigenvalues --   -0.69186  -0.55325  -0.54832  -0.48907  -0.48840
 Alpha virt. eigenvalues --    0.14212   0.15733   0.20633   0.21182   0.54187
 Alpha virt. eigenvalues --    0.56540   0.57920   0.58222   0.61595   0.75126
 Alpha virt. eigenvalues --    0.79455   0.80501   0.80603   0.80993   0.82327

 Mulliken charges:
               1
     1  O   -0.492070
     2  H    0.245716
     3  H    0.246358
     4  O   -0.492064
     5  H    0.245650
     6  H    0.246410
 Sum of Mulliken charges =  -0.00000

 Dipole moment (field-independent basis, Debye):
    X=             -0.1259    Y=             -0.0044    Z=              0.0000  Tot=              0.1260
 Quadrupole moment (field-independent basis, Debye-Ang):
   XX=             -7.8496   YY=              3.2992   ZZ=            -14.7092
   XY=             -0.1343   XZ=              0.0000   YZ=              0.0000

 Normal termination of Gaussian 16 at Sat Aug 27 08:44:10 2022.
