 Gaussian 16, Revision A.03,
 Gaussian 16:  ES64L-G16RevA.03 25-Dec-2016

 ------------------
 #p CCSD(T)/cc-pVTZ
 ------------------

 ------------
 H2O_H2O_3232
 ------------
 Symbolic Z-matrix:
 Charge =  0 Multiplicity = 1

                         Standard orientation:
 ---------------------------------------------------------------------
 Center     Atomic      Atomic             Coordinates (Angstroms)
 Number     Number       Type             X           Y           Z
 ---------------------------------------------------------------------
      1          8           0        0.025266   -2.512397    0.000000
      2          1           0       -0.774798   -3.082839    0.000000
      3          1           0        0.824343   -3.084220    0.000000
      4          8           0        0.025266    2.524134    0.000000
      5          1           0        0.490521    3.389606    0.000000
      6          1           0       -0.944316    2.683562    0.000000
 ---------------------------------------------------------------------

 SCF Done:  E(RHF) =  -152.106356597     A.U. after   10 cycles
 E2 =    -0.5260052284D+00 EUMP2 =    -0.15263236182554D+03
 CCSD(T)
 CCSD(T)= -0.15265960217D+03

 The electronic state is 1-A'.
 Alpha  occ. eigenvalues --  -20.55029 -20.54922  -1.32323  -1.32215  -0.69733
 Alpha  occ. eigenvalues --   -0.69621  -0.55721  -0.55611  -0.49427  -0.49319
 Alpha virt. eigenvalues --    0.14372   0.14844   0.20529   0.20744   0.54765
 Alpha virt. eigenvalues --    0.55016   0.57655   0.57786   0.67558   0.69682
 Alpha virt. eigenvalues --    0.79447   0.79558   0.80875   0.81050   0.82730

 Mulliken charges:
               1
     1  O   -0.502694
     2  H    0.250265
     3  H    0.252435
     4  O   -0.502501
     5  H    0.249774
     6  H    0.252722
 Sum of Mulliken charges =  -0.00000

 Dipole moment (field-independent basis, Debye):
    X=             -0.8636    Y=             -0.2069    Z=              0.0000  Tot=              0.8880
 Quadrupole moment (field-independent basis, Debye-Ang):
   XX=             -8.2128   YY=              7.4364   ZZ=            -14.7102
   XY=             -1.4944   XZ=              0.0000   YZ=              0.0000

 Normal termination of Gaussian 16 at Fri Aug 26 20:34:28 2022.
