 Gaussian 16, Revision A.03,
 Gaussian 16:  ES64L-G16RevA.03 25-Dec-2016

 ------------------
 #p CCSD(T)/cc-pVTZ
 ------------------

 ------------
 H2O_H2O_2626
 ------------
 Symbolic Z-matrix:
 Charge =  0 Multiplicity = 1

                         Standard orientation:
 ---------------------------------------------------------------------
 Center     Atomic      Atomic             Coordinates (Angstroms)
 Number     Number       Type             X           Y           Z
 ---------------------------------------------------------------------
      1          8           0        0.003735   -2.199537    0.000000
      2          1           0       -0.795919   -2.770552    0.000000
      3          1           0        0.803223   -2.770786    0.000000
      4          8           0        0.003735    2.199781    0.000000
      5          1           0        0.764332    2.821873    0.000000
      6          1           0       -0.831402    2.717517    0.000000
 ---------------------------------------------------------------------

 SCF Done:  E(RHF) =  -152.105611565     A.U. after   10 cycles
 E2 =    -0.5261357254D+00 EUMP2 =    -0.15263174728997D+03
 CCSD(T)
 CCSD(T)= -0.15265899733D+03

 The electronic state is 1-A'.
 Alpha  occ. eigenvalues --  -20.54730 -20.54727  -1.32020  -1.32015  -0.69434
 Alpha  occ. eigenvalues --   -0.69427  -0.55444  -0.55297  -0.49125  -0.49108
 Alpha virt. eigenvalues --    0.14320   0.15255   0.20634   0.20922   0.54741
 Alpha virt. eigenvalues --    0.55551   0.57831   0.57983   0.64940   0.72561
 Alpha virt. eigenvalues --    0.79624   0.79885   0.81177   0.81267   0.82053

 Mulliken charges:
               1
     1  O   -0.498062
     2  H    0.248800
     3  H    0.249262
     4  O   -0.498054
     5  H    0.248745
     6  H    0.249307
 Sum of Mulliken charges =   0.00000

 Dipole moment (field-independent basis, Debye):
    X=             -0.1270    Y=             -0.0043    Z=              0.0000  Tot=              0.1270
 Quadrupole moment (field-independent basis, Debye-Ang):
   XX=             -7.8338   YY=              5.4829   ZZ=            -14.7095
   XY=             -0.1675   XZ=              0.0000   YZ=              0.0000

 Normal termination of Gaussian 16 at Fri Aug 26 14:28:45 2022.
