 Gaussian 16, Revision A.03,
 Gaussian 16:  ES64L-G16RevA.03 25-Dec-2016

 ------------------
 #p CCSD(T)/cc-pVTZ
 ------------------

 -----------
 H2O_H2O_588
 -----------
 Symbolic Z-matrix:
 Charge =  0 Multiplicity = 1

                         Standard orientation:
 ---------------------------------------------------------------------
 Center     Atomic      Atomic             Coordinates (Angstroms)
 Number     Number       Type             X           Y           Z
 ---------------------------------------------------------------------
      1          8           0        0.043005   -1.088424    0.000000
      2          1           0       -0.758468   -1.656884    0.000000
      3          1           0        0.840665   -1.662221    0.000000
      4          8           0        0.043005    1.127049    0.000000
      5          1           0        0.144061    2.104440    0.000000
      6          1           0       -0.914333    0.905666    0.000000
 ---------------------------------------------------------------------

 SCF Done:  E(RHF) =  -152.082288381     A.U. after   11 cycles
 E2 =    -0.5317293187D+00 EUMP2 =    -0.15261401769963D+03
 CCSD(T)
 CCSD(T)= -0.15264110239D+03

 The electronic state is 1-A'.
 Alpha  occ. eigenvalues --  -20.53798 -20.52402  -1.32293  -1.29459  -0.69542
 Alpha  occ. eigenvalues --   -0.67770  -0.57366  -0.49461  -0.49248  -0.46239
 Alpha virt. eigenvalues --    0.14099   0.17820   0.20156   0.23539   0.53149
 Alpha virt. eigenvalues --    0.57722   0.58296   0.62197   0.71187   0.75758
 Alpha virt. eigenvalues --    0.78955   0.81377   0.83390   0.85476   0.87828

 Mulliken charges:
               1
     1  O   -0.456023
     2  H    0.219076
     3  H    0.238219
     4  O   -0.436570
     5  H    0.193347
     6  H    0.241952
 Sum of Mulliken charges =  -0.00000

 Dipole moment (field-independent basis, Debye):
    X=             -1.2924    Y=             -0.7711    Z=              0.0000  Tot=              1.5050
 Quadrupole moment (field-independent basis, Debye-Ang):
   XX=             -9.1143   YY=             -4.6324   ZZ=            -14.7260
   XY=             -0.9147   XZ=              0.0000   YZ=              0.0000

 Normal termination of Gaussian 16 at Fri Aug 26 17:54:27 2022.
