 Gaussian 16, Revision A.03,
 Gaussian 16:  ES64L-G16RevA.03 25-Dec-2016

 ------------------
 #p CCSD(T)/cc-pVTZ
 ------------------

 ------------
 H2O_H2O_3747
 ------------
 Symbolic Z-matrix:
 Charge =  0 Multiplicity = 1

                         Standard orientation:
 ---------------------------------------------------------------------
 Center     Atomic      Atomic             Coordinates (Angstroms)
 Number     Number       Type             X           Y           Z
 ---------------------------------------------------------------------
      1          8           0        0.056712   -2.730860    0.000000
      2          1           0       -0.743859   -3.300589    0.000000
      3          1           0        0.855280   -3.303393    0.000000
      4          8           0        0.056712    2.829978    0.000000
      5          1           0       -0.403648    3.698065    0.000000
      6          1           0       -0.615157    2.112972    0.000000
 ---------------------------------------------------------------------

 SCF Done:  E(RHF) =  -152.107684822     A.U. after   10 cycles
 E2 =    -0.5258778026D+00 EUMP2 =    -0.15263356262458D+03
 CCSD(T)
 CCSD(T)= -0.15266077480D+03

 The electronic state is 1-A'.
 Alpha  occ. eigenvalues --  -20.55741 -20.54985  -1.33040  -1.32284  -0.70446
 Alpha  occ. eigenvalues --   -0.69678  -0.56500  -0.55736  -0.50153  -0.49400
 Alpha virt. eigenvalues --    0.13805   0.14808   0.20033   0.20900   0.54099
 Alpha virt. eigenvalues --    0.54867   0.57055   0.57775   0.67360   0.68786
 Alpha virt. eigenvalues --    0.78729   0.79466   0.80135   0.80635   0.82547

 Mulliken charges:
               1
     1  O   -0.510478
     2  H    0.253527
     3  H    0.257003
     4  O   -0.509936
     5  H    0.251340
     6  H    0.258545
 Sum of Mulliken charges =  -0.00000

 Dipole moment (field-independent basis, Debye):
    X=             -1.9451    Y=             -1.7435    Z=              0.0000  Tot=              2.6121
 Quadrupole moment (field-independent basis, Debye-Ang):
   XX=             -9.8272   YY=              2.4447   ZZ=            -14.7129
   XY=             -5.4170   XZ=              0.0000   YZ=              0.0000

 Normal termination of Gaussian 16 at Sat Aug 27 02:57:43 2022.
