 Gaussian 16, Revision A.03,
 Gaussian 16:  ES64L-G16RevA.03 25-Dec-2016

 ------------------
 #p CCSD(T)/cc-pVTZ
 ------------------

 -----------
 H2O_H2O_181
 -----------
 Symbolic Z-matrix:
 Charge =  0 Multiplicity = 1

                         Standard orientation:
 ---------------------------------------------------------------------
 Center     Atomic      Atomic             Coordinates (Angstroms)
 Number     Number       Type             X           Y           Z
 ---------------------------------------------------------------------
      1          8           0        0.021865   -0.891996    0.000000
      2          1           0       -0.778903   -1.461449    0.000000
      3          1           0        0.820236   -1.464806    0.000000
      4          8           0        0.021865    0.900600    0.000000
      5          1           0        0.543759    1.733146    0.000000
      6          1           0       -0.934937    1.124283    0.000000
 ---------------------------------------------------------------------

 SCF Done:  E(RHF) =  -151.999478762     A.U. after   11 cycles
 E2 =    -0.5418521465D+00 EUMP2 =    -0.15254133090827D+03
 CCSD(T)
 CCSD(T)= -0.15256728852D+03

 The electronic state is 1-A'.
 Alpha  occ. eigenvalues --  -20.51593 -20.51339  -1.34000  -1.27546  -0.69932
 Alpha  occ. eigenvalues --   -0.66955  -0.62858  -0.50774  -0.43900  -0.38992
 Alpha virt. eigenvalues --    0.14519   0.18885   0.20128   0.23216   0.51771
 Alpha virt. eigenvalues --    0.58040   0.58992   0.66004   0.69560   0.78658
 Alpha virt. eigenvalues --    0.79622   0.83411   0.83930   0.86076   0.88148

 Mulliken charges:
               1
     1  O   -0.400757
     2  H    0.191625
     3  H    0.208248
     4  O   -0.379561
     5  H    0.158936
     6  H    0.221510
 Sum of Mulliken charges =   0.00000

 Dipole moment (field-independent basis, Debye):
    X=             -0.6184    Y=             -0.2032    Z=              0.0000  Tot=              0.6509
 Quadrupole moment (field-independent basis, Debye-Ang):
   XX=             -8.5376   YY=             -7.3737   ZZ=            -14.7429
   XY=             -0.2434   XZ=              0.0000   YZ=              0.0000

 Normal termination of Gaussian 16 at Fri Aug 26 13:42:48 2022.
