 Gaussian 16, Revision A.03,
 Gaussian 16:  ES64L-G16RevA.03 25-Dec-2016

 ------------------
 #p CCSD(T)/cc-pVTZ
 ------------------

 ------------
 H2O_H2O_2325
 ------------
 Symbolic Z-matrix:
 Charge =  0 Multiplicity = 1

                         Standard orientation:
 ---------------------------------------------------------------------
 Center     Atomic      Atomic             Coordinates (Angstroms)
 Number     Number       Type             X           Y           Z
 ---------------------------------------------------------------------
      1          8           0        0.000000   -0.000000    2.040119
      2          1           0        0.000000    0.799571    2.611251
      3          1           0       -0.000000   -0.799571    2.611251
      4          8           0        0.000000   -0.000000   -2.040119
      5          1           0       -0.000000   -0.799571   -2.611251
      6          1           0        0.000000    0.799571   -2.611251
 ---------------------------------------------------------------------

 SCF Done:  E(RHF) =  -152.105210148     A.U. after   10 cycles
 E2 =    -0.5262539927D+00 EUMP2 =    -0.15263146414045D+03
 CCSD(T)
 CCSD(T)= -0.15265871443D+03

 The electronic state is 1-AG.
 Alpha  occ. eigenvalues --  -20.54597 -20.54597  -1.31887  -1.31876  -0.69304
 Alpha  occ. eigenvalues --   -0.69292  -0.55362  -0.55051  -0.48998  -0.48959
 Alpha virt. eigenvalues --    0.14243   0.15531   0.20641   0.21064   0.54496
 Alpha virt. eigenvalues --    0.56066   0.57885   0.58119   0.62813   0.74278
 Alpha virt. eigenvalues --    0.79574   0.80196   0.80983   0.81425   0.81750

 Mulliken charges:
               1
     1  O   -0.494987
     2  H    0.247493
     3  H    0.247493
     4  O   -0.494987
     5  H    0.247493
     6  H    0.247493
 Sum of Mulliken charges =   0.00000

 Dipole moment (field-independent basis, Debye):
    X=             -0.0000    Y=              0.0000    Z=              0.0000  Tot=              0.0000
 Quadrupole moment (field-independent basis, Debye-Ang):
   XX=            -14.7094   YY=             -7.8336   ZZ=              4.1861
   XY=              0.0000   XZ=              0.0000   YZ=             -0.0000

 5\MP4DQ=-152.6405487\MP4SDQ=-152.6436299\CCSD=-152.6430322\CCSD(T)=-15
 Normal termination of Gaussian 16 at Sat Aug 27 09:52:51 2022.
