 Gaussian 16, Revision A.03,
 Gaussian 16:  ES64L-G16RevA.03 25-Dec-2016

 ------------------
 #p CCSD(T)/cc-pVTZ
 ------------------

 ------------
 H2O_H2O_3154
 ------------
 Symbolic Z-matrix:
 Charge =  0 Multiplicity = 1

                         Standard orientation:
 ---------------------------------------------------------------------
 Center     Atomic      Atomic             Coordinates (Angstroms)
 Number     Number       Type             X           Y           Z
 ---------------------------------------------------------------------
      1          8           0        0.014783   -2.476778    0.000000
      2          1           0       -0.785081   -3.047499    0.000000
      3          1           0        0.814061   -3.048320    0.000000
      4          8           0        0.014783    2.480655    0.000000
      5          1           0        0.639679    3.238949    0.000000
      6          1           0       -0.905187    2.825854    0.000000
 ---------------------------------------------------------------------

 SCF Done:  E(RHF) =  -152.106181326     A.U. after   10 cycles
 E2 =    -0.5260237492D+00 EUMP2 =    -0.15263220507539D+03
 CCSD(T)
 CCSD(T)= -0.15265944892D+03

 The electronic state is 1-A'.
 Alpha  occ. eigenvalues --  -20.54942 -20.54906  -1.32235  -1.32198  -0.69645
 Alpha  occ. eigenvalues --   -0.69607  -0.55628  -0.55581  -0.49338  -0.49301
 Alpha virt. eigenvalues --    0.14419   0.14875   0.20582   0.20743   0.54824
 Alpha virt. eigenvalues --    0.55066   0.57718   0.57800   0.67402   0.69954
 Alpha virt. eigenvalues --    0.79527   0.79585   0.80957   0.81073   0.82691

 Mulliken charges:
               1
     1  O   -0.501653
     2  H    0.250166
     3  H    0.251489
     4  O   -0.501576
     5  H    0.249924
     6  H    0.251650
 Sum of Mulliken charges =  -0.00000

 Dipole moment (field-independent basis, Debye):
    X=             -0.5050    Y=             -0.0684    Z=              0.0000  Tot=              0.5096
 Quadrupole moment (field-independent basis, Debye-Ang):
   XX=             -7.9515   YY=              7.5593   ZZ=            -14.7099
   XY=             -0.8181   XZ=              0.0000   YZ=              0.0000

 Normal termination of Gaussian 16 at Fri Aug 26 19:52:21 2022.
