 Gaussian 16, Revision A.03,
 Gaussian 16:  ES64L-G16RevA.03 25-Dec-2016

 ------------------
 #p CCSD(T)/cc-pVTZ
 ------------------

 ------------
 H2O_H2O_1776
 ------------
 Symbolic Z-matrix:
 Charge =  0 Multiplicity = 1

                         Standard orientation:
 ---------------------------------------------------------------------
 Center     Atomic      Atomic             Coordinates (Angstroms)
 Number     Number       Type             X           Y           Z
 ---------------------------------------------------------------------
      1          8           0        0.003735   -1.747476    0.000000
      2          1           0       -0.795941   -2.318461    0.000000
      3          1           0        0.803201   -2.318756    0.000000
      4          8           0        0.003735    1.747720    0.000000
      5          1           0        0.764356    2.369783    0.000000
      6          1           0       -0.831382    2.265488    0.000000
 ---------------------------------------------------------------------

 SCF Done:  E(RHF) =  -152.103944857     A.U. after   10 cycles
 E2 =    -0.5266741388D+00 EUMP2 =    -0.15263061899616D+03
 CCSD(T)
 CCSD(T)= -0.15265787782D+03

 The electronic state is 1-A'.
 Alpha  occ. eigenvalues --  -20.54274 -20.54269  -1.31581  -1.31521  -0.69002
 Alpha  occ. eigenvalues --   -0.68951  -0.55320  -0.54268  -0.48722  -0.48562
 Alpha virt. eigenvalues --    0.14251   0.16117   0.20609   0.21431   0.53316
 Alpha virt. eigenvalues --    0.57725   0.58017   0.58420   0.61117   0.75881
 Alpha virt. eigenvalues --    0.78988   0.79445   0.80215   0.81287   0.83995

 Mulliken charges:
               1
     1  O   -0.484635
     2  H    0.241909
     3  H    0.242735
     4  O   -0.484632
     5  H    0.241858
     6  H    0.242765
 Sum of Mulliken charges =  -0.00000

 Dipole moment (field-independent basis, Debye):
    X=             -0.1248    Y=             -0.0045    Z=              0.0000  Tot=              0.1248
 Quadrupole moment (field-independent basis, Debye-Ang):
   XX=             -7.8673   YY=              1.7341   ZZ=            -14.7088
   XY=             -0.1113   XZ=              0.0000   YZ=              0.0000

 Normal termination of Gaussian 16 at Sat Aug 27 06:43:30 2022.
