 Gaussian 16, Revision A.03,
 Gaussian 16:  ES64L-G16RevA.03 25-Dec-2016

 ------------------
 #p CCSD(T)/cc-pVTZ
 ------------------

 -----------
 H2O_H2O_711
 -----------
 Symbolic Z-matrix:
 Charge =  0 Multiplicity = 1

                         Standard orientation:
 ---------------------------------------------------------------------
 Center     Atomic      Atomic             Coordinates (Angstroms)
 Number     Number       Type             X           Y           Z
 ---------------------------------------------------------------------
      1          8           0        0.037696   -1.160600    0.000000
      2          1           0       -0.763448   -1.729523    0.000000
      3          1           0        0.835688   -1.733936    0.000000
      4          8           0        0.037696    1.188738    0.000000
      5          1           0        0.264911    2.144708    0.000000
      6          1           0       -0.940294    1.093642    0.000000
 ---------------------------------------------------------------------

 SCF Done:  E(RHF) =  -152.089626388     A.U. after   11 cycles
 E2 =    -0.5302866296D+00 EUMP2 =    -0.15261991301752D+03
 CCSD(T)
 CCSD(T)= -0.15264710343D+03

 The electronic state is 1-A'.
 Alpha  occ. eigenvalues --  -20.53691 -20.52751  -1.31742  -1.29878  -0.69026
 Alpha  occ. eigenvalues --   -0.67705  -0.57230  -0.49991  -0.48984  -0.46672
 Alpha virt. eigenvalues --    0.14217   0.17571   0.20305   0.23130   0.52889
 Alpha virt. eigenvalues --    0.58089   0.58257   0.61899   0.70705   0.76010
 Alpha virt. eigenvalues --    0.77743   0.80362   0.83606   0.85877   0.87447

 Mulliken charges:
               1
     1  O   -0.463978
     2  H    0.223184
     3  H    0.240653
     4  O   -0.444769
     5  H    0.204573
     6  H    0.240336
 Sum of Mulliken charges =  -0.00000

 Dipole moment (field-independent basis, Debye):
    X=             -1.1564    Y=             -0.5538    Z=              0.0000  Tot=              1.2821
 Quadrupole moment (field-independent basis, Debye-Ang):
   XX=             -8.8481   YY=             -3.8384   ZZ=            -14.7278
   XY=             -0.7601   XZ=              0.0000   YZ=              0.0000

 Normal termination of Gaussian 16 at Fri Aug 26 19:19:44 2022.
