 Gaussian 16, Revision A.03,
 Gaussian 16:  ES64L-G16RevA.03 25-Dec-2016

 ------------------
 #p CCSD(T)/cc-pVTZ
 ------------------

 ------------
 H2O_H2O_2517
 ------------
 Symbolic Z-matrix:
 Charge =  0 Multiplicity = 1

                         Standard orientation:
 ---------------------------------------------------------------------
 Center     Atomic      Atomic             Coordinates (Angstroms)
 Number     Number       Type             X           Y           Z
 ---------------------------------------------------------------------
      1          8           0        0.051289   -2.098706    0.000000
      2          1           0       -0.749462   -2.668182    0.000000
      3          1           0        0.849676   -2.671492    0.000000
      4          8           0        0.051289    2.162199    0.000000
      5          1           0       -0.105295    3.132244    0.000000
      6          1           0       -0.815544    1.699483    0.000000
 ---------------------------------------------------------------------

 SCF Done:  E(RHF) =  -152.107130492     A.U. after   10 cycles
 E2 =    -0.5260959315D+00 EUMP2 =    -0.15263322642380D+03
 CCSD(T)
 CCSD(T)= -0.15266043330D+03

 The electronic state is 1-A'.
 Alpha  occ. eigenvalues --  -20.55455 -20.54573  -1.32741  -1.31860  -0.70151
 Alpha  occ. eigenvalues --   -0.69243  -0.56162  -0.55284  -0.49851  -0.48976
 Alpha virt. eigenvalues --    0.13497   0.15619   0.20137   0.21600   0.53992
 Alpha virt. eigenvalues --    0.54811   0.57334   0.58146   0.65757   0.73395
 Alpha virt. eigenvalues --    0.78994   0.79889   0.79924   0.82031   0.82864

 Mulliken charges:
               1
     1  O   -0.504549
     2  H    0.249317
     3  H    0.256103
     4  O   -0.505664
     5  H    0.246792
     6  H    0.258000
 Sum of Mulliken charges =  -0.00000

 Dipole moment (field-independent basis, Debye):
    X=             -1.7403    Y=             -1.1459    Z=              0.0000  Tot=              2.0837
 Quadrupole moment (field-independent basis, Debye-Ang):
   XX=             -9.4601   YY=              1.8046   ZZ=            -14.7131
   XY=             -3.1980   XZ=              0.0000   YZ=              0.0000

 Normal termination of Gaussian 16 at Fri Aug 26 13:14:18 2022.
