 Gaussian 16, Revision A.03,
 Gaussian 16:  ES64L-G16RevA.03 25-Dec-2016

 ------------------
 #p CCSD(T)/cc-pVTZ
 ------------------

 ------------
 H2O_H2O_4719
 ------------
 Symbolic Z-matrix:
 Charge =  0 Multiplicity = 1

                         Standard orientation:
 ---------------------------------------------------------------------
 Center     Atomic      Atomic             Coordinates (Angstroms)
 Number     Number       Type             X           Y           Z
 ---------------------------------------------------------------------
      1          8           0        0.054137   -3.261218    0.000000
      2          1           0       -0.746239   -3.831222    0.000000
      3          1           0        0.852901   -3.833478    0.000000
      4          8           0        0.054137    3.338575    0.000000
      5          1           0       -0.228345    4.279698    0.000000
      6          1           0       -0.744508    2.766147    0.000000
 ---------------------------------------------------------------------

 SCF Done:  E(RHF) =  -152.107430819     A.U. after   10 cycles
 E2 =    -0.5258746324D+00 EUMP2 =    -0.15263330545129D+03
 CCSD(T)
 CCSD(T)= -0.15266052523D+03

 The electronic state is 1-A'.
 Alpha  occ. eigenvalues --  -20.55604 -20.55195  -1.32903  -1.32493  -0.70309
 Alpha  occ. eigenvalues --   -0.69894  -0.56351  -0.55940  -0.50015  -0.49606
 Alpha virt. eigenvalues --    0.14072   0.14485   0.20150   0.20583   0.54252
 Alpha virt. eigenvalues --    0.54679   0.57173   0.57582   0.67831   0.68261
 Alpha virt. eigenvalues --    0.78865   0.79268   0.80296   0.80730   0.82221

 Mulliken charges:
               1
     1  O   -0.509021
     2  H    0.253471
     3  H    0.255551
     4  O   -0.508790
     5  H    0.252427
     6  H    0.256363
 Sum of Mulliken charges =  -0.00000

 Dipole moment (field-independent basis, Debye):
    X=             -1.8618    Y=             -1.3497    Z=              0.0000  Tot=              2.2996
 Quadrupole moment (field-independent basis, Debye-Ang):
   XX=             -9.6489   YY=              7.1634   ZZ=            -14.7121
   XY=             -5.7607   XZ=              0.0000   YZ=              0.0000

 Normal termination of Gaussian 16 at Sat Aug 27 08:56:21 2022.
