 Gaussian 16, Revision A.03,
 Gaussian 16:  ES64L-G16RevA.03 25-Dec-2016

 ------------------
 #p CCSD(T)/cc-pVTZ
 ------------------

 ------------
 H2O_H2O_3316
 ------------
 Symbolic Z-matrix:
 Charge =  0 Multiplicity = 1

                         Standard orientation:
 ---------------------------------------------------------------------
 Center     Atomic      Atomic             Coordinates (Angstroms)
 Number     Number       Type             X           Y           Z
 ---------------------------------------------------------------------
      1          8           0        0.049509   -2.527730    0.000000
      2          1           0       -0.751012   -3.097529    0.000000
      3          1           0        0.848127   -3.100193    0.000000
      4          8           0        0.049509    2.584678    0.000000
      5          1           0       -0.043691    3.562850    0.000000
      6          1           0       -0.845568    2.179286    0.000000
 ---------------------------------------------------------------------

 SCF Done:  E(RHF) =  -152.107093662     A.U. after   10 cycles
 E2 =    -0.5259473948D+00 EUMP2 =    -0.15263304105730D+03
 CCSD(T)
 CCSD(T)= -0.15266026457D+03

 The electronic state is 1-A'.
 Alpha  occ. eigenvalues --  -20.55423 -20.54904  -1.32719  -1.32198  -0.70127
 Alpha  occ. eigenvalues --   -0.69593  -0.56151  -0.55629  -0.49828  -0.49310
 Alpha virt. eigenvalues --    0.13987   0.14926   0.20239   0.20913   0.54379
 Alpha virt. eigenvalues --    0.54959   0.57329   0.57816   0.67375   0.69467
 Alpha virt. eigenvalues --    0.79053   0.79559   0.80426   0.80921   0.82715

 Mulliken charges:
               1
     1  O   -0.506964
     2  H    0.251477
     3  H    0.255550
     4  O   -0.506520
     5  H    0.249830
     6  H    0.256626
 Sum of Mulliken charges =  -0.00000

 Dipole moment (field-independent basis, Debye):
    X=             -1.6938    Y=             -1.0058    Z=              0.0000  Tot=              1.9700
 Quadrupole moment (field-independent basis, Debye-Ang):
   XX=             -9.3460   YY=              4.7701   ZZ=            -14.7118
   XY=             -3.6961   XZ=              0.0000   YZ=              0.0000

 Normal termination of Gaussian 16 at Fri Aug 26 21:18:40 2022.
