 Gaussian 16, Revision A.03,
 Gaussian 16:  ES64L-G16RevA.03 25-Dec-2016

 ------------------
 #p CCSD(T)/cc-pVTZ
 ------------------

 ------------
 H2O_H2O_1146
 ------------
 Symbolic Z-matrix:
 Charge =  0 Multiplicity = 1

                         Standard orientation:
 ---------------------------------------------------------------------
 Center     Atomic      Atomic             Coordinates (Angstroms)
 Number     Number       Type             X           Y           Z
 ---------------------------------------------------------------------
      1          8           0        0.056174   -1.352188    0.000000
      2          1           0       -0.745362   -1.920559    0.000000
      3          1           0        0.853770   -1.926075    0.000000
      4          8           0        0.056174    1.443743    0.000000
      5          1           0       -0.344903    2.340762    0.000000
      6          1           0       -0.662289    0.773432    0.000000
 ---------------------------------------------------------------------

 SCF Done:  E(RHF) =  -152.106607132     A.U. after   10 cycles
 E2 =    -0.5281767536D+00 EUMP2 =    -0.15263478388538D+03
 CCSD(T)
 CCSD(T)= -0.15266186147D+03

 The electronic state is 1-A'.
 Alpha  occ. eigenvalues --  -20.56226 -20.52935  -1.33648  -1.30257  -0.71043
 Alpha  occ. eigenvalues --   -0.68011  -0.56708  -0.53734  -0.50747  -0.47364
 Alpha virt. eigenvalues --    0.13197   0.17527   0.19655   0.25073   0.52171
 Alpha virt. eigenvalues --    0.56607   0.57446   0.59364   0.70118   0.74725
 Alpha virt. eigenvalues --    0.74956   0.79376   0.82419   0.82687   0.84227

 Mulliken charges:
               1
     1  O   -0.482925
     2  H    0.240077
     3  H    0.256983
     4  O   -0.505382
     5  H    0.229441
     6  H    0.261807
 Sum of Mulliken charges =  -0.00000

 Dipole moment (field-independent basis, Debye):
    X=             -1.8071    Y=             -1.8359    Z=              0.0000  Tot=              2.5761
 Quadrupole moment (field-independent basis, Debye-Ang):
   XX=             -9.7950   YY=             -3.7705   ZZ=            -14.7260
   XY=             -2.6385   XZ=              0.0000   YZ=              0.0000

 Normal termination of Gaussian 16 at Sat Aug 27 02:29:23 2022.
