 Gaussian 16, Revision A.03,
 Gaussian 16:  ES64L-G16RevA.03 25-Dec-2016

 ------------------
 #p CCSD(T)/cc-pVTZ
 ------------------

 ------------
 H2O_H2O_1592
 ------------
 Symbolic Z-matrix:
 Charge =  0 Multiplicity = 1

                         Standard orientation:
 ---------------------------------------------------------------------
 Center     Atomic      Atomic             Coordinates (Angstroms)
 Number     Number       Type             X           Y           Z
 ---------------------------------------------------------------------
      1          8           0        0.051309   -1.606790    0.000000
      2          1           0       -0.749796   -2.175768    0.000000
      3          1           0        0.849340   -2.180072    0.000000
      4          8           0        0.051309    1.670220    0.000000
      5          1           0       -0.104672    2.640362    0.000000
      6          1           0       -0.815812    1.208044    0.000000
 ---------------------------------------------------------------------

 SCF Done:  E(RHF) =  -152.106637958     A.U. after   10 cycles
 E2 =    -0.5268598516D+00 EUMP2 =    -0.15263349781008D+03
 CCSD(T)
 CCSD(T)= -0.15266067226D+03

 The electronic state is 1-A'.
 Alpha  occ. eigenvalues --  -20.55434 -20.53882  -1.32716  -1.31146  -0.70135
 Alpha  occ. eigenvalues --   -0.68532  -0.56133  -0.54471  -0.49830  -0.48262
 Alpha virt. eigenvalues --    0.13524   0.16632   0.20017   0.23016   0.54345
 Alpha virt. eigenvalues --    0.54772   0.57317   0.58407   0.65509   0.76268
 Alpha virt. eigenvalues --    0.77587   0.77640   0.78783   0.81533   0.84916

 Mulliken charges:
               1
     1  O   -0.489889
     2  H    0.241095
     3  H    0.253415
     4  O   -0.497070
     5  H    0.236573
     6  H    0.255876
 Sum of Mulliken charges =  -0.00000

 Dipole moment (field-independent basis, Debye):
    X=             -1.6955    Y=             -1.2022    Z=              0.0000  Tot=              2.0785
 Quadrupole moment (field-independent basis, Debye-Ang):
   XX=             -9.4771   YY=             -1.1601   ZZ=            -14.7172
   XY=             -2.3562   XZ=              0.0000   YZ=              0.0000

 Normal termination of Gaussian 16 at Sat Aug 27 05:39:23 2022.
