 Gaussian 16, Revision A.03,
 Gaussian 16:  ES64L-G16RevA.03 25-Dec-2016

 ------------------
 #p CCSD(T)/cc-pVTZ
 ------------------

 ------------
 H2O_H2O_3268
 ------------
 Symbolic Z-matrix:
 Charge =  0 Multiplicity = 1

                         Standard orientation:
 ---------------------------------------------------------------------
 Center     Atomic      Atomic             Coordinates (Angstroms)
 Number     Number       Type             X           Y           Z
 ---------------------------------------------------------------------
      1          8           0        0.052829   -2.493874    0.000000
      2          1           0       -0.747767   -3.063569    0.000000
      3          1           0        0.851373   -3.066441    0.000000
      4          8           0        0.052829    2.564198    0.000000
      5          1           0       -0.167125    3.521866    0.000000
      6          1           0       -0.781744    2.045551    0.000000
 ---------------------------------------------------------------------

 SCF Done:  E(RHF) =  -152.107309518     A.U. after   10 cycles
 E2 =    -0.5259380296D+00 EUMP2 =    -0.15263324754736D+03
 CCSD(T)
 CCSD(T)= -0.15266046521D+03

 The electronic state is 1-A'.
 Alpha  occ. eigenvalues --  -20.55534 -20.54874  -1.32831  -1.32168  -0.70238
 Alpha  occ. eigenvalues --   -0.69561  -0.56272  -0.55607  -0.49941  -0.49282
 Alpha virt. eigenvalues --    0.13832   0.15004   0.20156   0.21009   0.54258
 Alpha virt. eigenvalues --    0.54947   0.57238   0.57835   0.67183   0.69622
 Alpha virt. eigenvalues --    0.78942   0.79584   0.80262   0.80798   0.82750

 Mulliken charges:
               1
     1  O   -0.508090
     2  H    0.251889
     3  H    0.256325
     4  O   -0.507663
     5  H    0.249842
     6  H    0.257697
 Sum of Mulliken charges =  -0.00000

 Dipole moment (field-independent basis, Debye):
    X=             -1.8070    Y=             -1.2443    Z=              0.0000  Tot=              2.1940
 Quadrupole moment (field-independent basis, Debye-Ang):
   XX=             -9.5589   YY=              3.6202   ZZ=            -14.7123
   XY=             -4.1175   XZ=              0.0000   YZ=              0.0000

 Normal termination of Gaussian 16 at Fri Aug 26 20:52:57 2022.
