 Gaussian 16, Revision A.03,
 Gaussian 16:  ES64L-G16RevA.03 25-Dec-2016

 ------------------
 #p CCSD(T)/cc-pVTZ
 ------------------

 ------------
 H2O_H2O_1466
 ------------
 Symbolic Z-matrix:
 Charge =  0 Multiplicity = 1

                         Standard orientation:
 ---------------------------------------------------------------------
 Center     Atomic      Atomic             Coordinates (Angstroms)
 Number     Number       Type             X           Y           Z
 ---------------------------------------------------------------------
      1          8           0        0.049539   -1.543887    0.000000
      2          1           0       -0.751576   -2.112851    0.000000
      3          1           0        0.847560   -2.117182    0.000000
      4          8           0        0.049539    1.600732    0.000000
      5          1           0       -0.042641    2.579000    0.000000
      6          1           0       -0.845960    1.196271    0.000000
 ---------------------------------------------------------------------

 SCF Done:  E(RHF) =  -152.105880411     A.U. after   10 cycles
 E2 =    -0.5270827541D+00 EUMP2 =    -0.15263296316520D+03
 CCSD(T)
 CCSD(T)= -0.15266014784D+03

 The electronic state is 1-A'.
 Alpha  occ. eigenvalues --  -20.55259 -20.53784  -1.32553  -1.31040  -0.69976
 Alpha  occ. eigenvalues --   -0.68440  -0.56020  -0.54246  -0.49670  -0.48146
 Alpha virt. eigenvalues --    0.13640   0.16738   0.20061   0.22983   0.54194
 Alpha virt. eigenvalues --    0.55547   0.57448   0.58376   0.66058   0.76122
 Alpha virt. eigenvalues --    0.77238   0.77334   0.79281   0.81917   0.85044

 Mulliken charges:
               1
     1  O   -0.486227
     2  H    0.238872
     3  H    0.251946
     4  O   -0.491654
     5  H    0.233599
     6  H    0.253464
 Sum of Mulliken charges =  -0.00000

 Dipole moment (field-independent basis, Debye):
    X=             -1.6265    Y=             -1.0836    Z=              0.0000  Tot=              1.9544
 Quadrupole moment (field-independent basis, Debye-Ang):
   XX=             -9.3751   YY=             -1.3383   ZZ=            -14.7173
   XY=             -2.0646   XZ=              0.0000   YZ=              0.0000

 Normal termination of Gaussian 16 at Sat Aug 27 04:55:18 2022.
