 Gaussian 16, Revision A.03,
 Gaussian 16:  ES64L-G16RevA.03 25-Dec-2016

 ------------------
 #p CCSD(T)/cc-pVTZ
 ------------------

 ------------
 H2O_H2O_2622
 ------------
 Symbolic Z-matrix:
 Charge =  0 Multiplicity = 1

                         Standard orientation:
 ---------------------------------------------------------------------
 Center     Atomic      Atomic             Coordinates (Angstroms)
 Number     Number       Type             X           Y           Z
 ---------------------------------------------------------------------
      1          8           0        0.056735   -2.132572    0.000000
      2          1           0       -0.744109   -2.701917    0.000000
      3          1           0        0.855029   -2.705489    0.000000
      4          8           0        0.056735    2.231636    0.000000
      5          1           0       -0.403207    3.099944    0.000000
      6          1           0       -0.615478    1.514953    0.000000
 ---------------------------------------------------------------------

 SCF Done:  E(RHF) =  -152.108156192     A.U. after   10 cycles
 E2 =    -0.5260316934D+00 EUMP2 =    -0.15263418788560D+03
 CCSD(T)
 CCSD(T)= -0.15266136948D+03

 The electronic state is 1-A'.
 Alpha  occ. eigenvalues --  -20.55890 -20.54545  -1.33174  -1.31844  -0.70581
 Alpha  occ. eigenvalues --   -0.69221  -0.56640  -0.55302  -0.50291  -0.48966
 Alpha virt. eigenvalues --    0.13135   0.15672   0.19911   0.21994   0.53990
 Alpha virt. eigenvalues --    0.54749   0.56988   0.58271   0.66432   0.72033
 Alpha virt. eigenvalues --    0.78590   0.79473   0.79896   0.80884   0.82534

 Mulliken charges:
               1
     1  O   -0.508404
     2  H    0.251695
     3  H    0.258328
     4  O   -0.511238
     5  H    0.248191
     6  H    0.261427
 Sum of Mulliken charges =  -0.00000

 Dipole moment (field-independent basis, Debye):
    X=             -1.9286    Y=             -1.7904    Z=              0.0000  Tot=              2.6316
 Quadrupole moment (field-independent basis, Debye-Ang):
   XX=             -9.8257   YY=             -0.2619   ZZ=            -14.7154
   XY=             -4.2689   XZ=              0.0000   YZ=              0.0000

 Normal termination of Gaussian 16 at Fri Aug 26 14:26:18 2022.
