 Gaussian 16, Revision A.03,
 Gaussian 16:  ES64L-G16RevA.03 25-Dec-2016

 ------------------
 #p CCSD(T)/cc-pVTZ
 ------------------

 -----------
 H2O_H2O_335
 -----------
 Symbolic Z-matrix:
 Charge =  0 Multiplicity = 1

                         Standard orientation:
 ---------------------------------------------------------------------
 Center     Atomic      Atomic             Coordinates (Angstroms)
 Number     Number       Type             X           Y           Z
 ---------------------------------------------------------------------
      1          8           0        0.034804   -0.963739    0.000000
      2          1           0       -0.766515   -1.532415    0.000000
      3          1           0        0.832619   -1.537322    0.000000
      4          8           0        0.034804    0.987130    0.000000
      5          1           0        0.324347    1.926103    0.000000
      6          1           0       -0.947320    0.956505    0.000000
 ---------------------------------------------------------------------

 SCF Done:  E(RHF) =  -152.046020489     A.U. after   11 cycles
 E2 =    -0.5363713751D+00 EUMP2 =    -0.15258239186440D+03
 CCSD(T)
 CCSD(T)= -0.15260906778D+03

 The electronic state is 1-A'.
 Alpha  occ. eigenvalues --  -20.52558 -20.51782  -1.32930  -1.28383  -0.69751
 Alpha  occ. eigenvalues --   -0.67390  -0.59755  -0.49951  -0.44937  -0.44203
 Alpha virt. eigenvalues --    0.14366   0.18278   0.20184   0.23403   0.53035
 Alpha virt. eigenvalues --    0.57387   0.58549   0.64345   0.71061   0.77255
 Alpha virt. eigenvalues --    0.79274   0.82199   0.83595   0.85737   0.88231

 Mulliken charges:
               1
     1  O   -0.431949
     2  H    0.205178
     3  H    0.224366
     4  O   -0.400388
     5  H    0.169747
     6  H    0.233045
 Sum of Mulliken charges =  -0.00000

 Dipole moment (field-independent basis, Debye):
    X=             -0.9988    Y=             -0.4903    Z=              0.0000  Tot=              1.1127
 Quadrupole moment (field-independent basis, Debye-Ang):
   XX=             -8.8264   YY=             -6.0973   ZZ=            -14.7273
   XY=             -0.4826   XZ=              0.0000   YZ=              0.0000

 Normal termination of Gaussian 16 at Fri Aug 26 15:24:00 2022.
