 Gaussian 16, Revision A.03,
 Gaussian 16:  ES64L-G16RevA.03 25-Dec-2016

 ------------------
 #p CCSD(T)/cc-pVTZ
 ------------------

 ------------
 H2O_H2O_4604
 ------------
 Symbolic Z-matrix:
 Charge =  0 Multiplicity = 1

                         Standard orientation:
 ---------------------------------------------------------------------
 Center     Atomic      Atomic             Coordinates (Angstroms)
 Number     Number       Type             X           Y           Z
 ---------------------------------------------------------------------
      1          8           0        0.014783   -3.247939    0.000000
      2          1           0       -0.785012   -3.818758    0.000000
      3          1           0        0.814130   -3.819384    0.000000
      4          8           0        0.014783    3.251820    0.000000
      5          1           0        0.639587    4.010190    0.000000
      6          1           0       -0.905229    3.596906    0.000000
 ---------------------------------------------------------------------

 SCF Done:  E(RHF) =  -152.106895552     A.U. after   10 cycles
 E2 =    -0.5259216219D+00 EUMP2 =    -0.15263281717409D+03
 CCSD(T)
 CCSD(T)= -0.15266004835D+03

 The electronic state is 1-A'.
 Alpha  occ. eigenvalues --  -20.55232 -20.55211  -1.32529  -1.32507  -0.69936
 Alpha  occ. eigenvalues --   -0.69914  -0.55952  -0.55931  -0.49636  -0.49615
 Alpha virt. eigenvalues --    0.14399   0.14427   0.20450   0.20473   0.54633
 Alpha virt. eigenvalues --    0.54656   0.57505   0.57527   0.68269   0.68307
 Alpha virt. eigenvalues --    0.79243   0.79264   0.80685   0.80708   0.82612

 Mulliken charges:
               1
     1  O   -0.505841
     2  H    0.252611
     3  H    0.253230
     4  O   -0.505821
     5  H    0.252470
     6  H    0.253351
 Sum of Mulliken charges =   0.00000

 Dipole moment (field-independent basis, Debye):
    X=             -0.5081    Y=             -0.0677    Z=              0.0000  Tot=              0.5126
 Quadrupole moment (field-independent basis, Debye-Ang):
   XX=             -7.9396   YY=             13.6554   ZZ=            -14.7108
   XY=             -1.2050   XZ=              0.0000   YZ=              0.0000

 Normal termination of Gaussian 16 at Sat Aug 27 08:17:29 2022.
