 Gaussian 16, Revision A.03,
 Gaussian 16:  ES64L-G16RevA.03 25-Dec-2016

 ------------------
 #p CCSD(T)/cc-pVTZ
 ------------------

 -----------
 H2O_H2O_553
 -----------
 Symbolic Z-matrix:
 Charge =  0 Multiplicity = 1

                         Standard orientation:
 ---------------------------------------------------------------------
 Center     Atomic      Atomic             Coordinates (Angstroms)
 Number     Number       Type             X           Y           Z
 ---------------------------------------------------------------------
      1          8           0        0.011143   -1.094927    0.000000
      2          1           0       -0.788927   -1.665359    0.000000
      3          1           0        0.810214   -1.666759    0.000000
      4          8           0        0.011143    1.097103    0.000000
      5          1           0        0.684555    1.812660    0.000000
      6          1           0       -0.884133    1.502055    0.000000
 ---------------------------------------------------------------------

 SCF Done:  E(RHF) =  -152.074420309     A.U. after   11 cycles
 E2 =    -0.5320043342D+00 EUMP2 =    -0.15260642464308D+03
 CCSD(T)
 CCSD(T)= -0.15263354857D+03

 The electronic state is 1-A'.
 Alpha  occ. eigenvalues --  -20.52396 -20.52329  -1.31309  -1.29244  -0.68303
 Alpha  occ. eigenvalues --   -0.67007  -0.59006  -0.48617  -0.46741  -0.45814
 Alpha virt. eigenvalues --    0.14590   0.18029   0.20542   0.22669   0.50419
 Alpha virt. eigenvalues --    0.59009   0.59097   0.65015   0.71234   0.77137
 Alpha virt. eigenvalues --    0.78106   0.81674   0.84330   0.86658   0.87018

 Mulliken charges:
               1
     1  O   -0.446716
     2  H    0.220016
     3  H    0.226039
     4  O   -0.441988
     5  H    0.213947
     6  H    0.228701
 Sum of Mulliken charges =  -0.00000

 Dipole moment (field-independent basis, Debye):
    X=             -0.3353    Y=             -0.0440    Z=              0.0000  Tot=              0.3382
 Quadrupole moment (field-independent basis, Debye-Ang):
   XX=             -8.1442   YY=             -4.5465   ZZ=            -14.7418
   XY=             -0.1213   XZ=              0.0000   YZ=              0.0000

 Normal termination of Gaussian 16 at Fri Aug 26 17:35:15 2022.
