 Gaussian 16, Revision A.03,
 Gaussian 16:  ES64L-G16RevA.03 25-Dec-2016

 ------------------
 #p CCSD(T)/cc-pVTZ
 ------------------

 ------------
 H2O_H2O_4329
 ------------
 Symbolic Z-matrix:
 Charge =  0 Multiplicity = 1

                         Standard orientation:
 ---------------------------------------------------------------------
 Center     Atomic      Atomic             Coordinates (Angstroms)
 Number     Number       Type             X           Y           Z
 ---------------------------------------------------------------------
      1          8           0        0.014783   -3.101684    0.000000
      2          1           0       -0.785022   -3.672488    0.000000
      3          1           0        0.814120   -3.673144    0.000000
      4          8           0        0.014783    3.105564    0.000000
      5          1           0        0.639601    3.863924    0.000000
      6          1           0       -0.905223    3.450668    0.000000
 ---------------------------------------------------------------------

 SCF Done:  E(RHF) =  -152.106808388     A.U. after   10 cycles
 E2 =    -0.5259326168D+00 EUMP2 =    -0.15263274100471D+03
 CCSD(T)
 CCSD(T)= -0.15265997383D+03

 The electronic state is 1-A'.
 Alpha  occ. eigenvalues --  -20.55192 -20.55169  -1.32488  -1.32465  -0.69895
 Alpha  occ. eigenvalues --   -0.69871  -0.55908  -0.55884  -0.49595  -0.49572
 Alpha virt. eigenvalues --    0.14425   0.14468   0.20476   0.20506   0.54673
 Alpha virt. eigenvalues --    0.54700   0.57539   0.57563   0.68299   0.68383
 Alpha virt. eigenvalues --    0.79284   0.79307   0.80728   0.80753   0.82656

 Mulliken charges:
               1
     1  O   -0.505330
     2  H    0.252312
     3  H    0.253017
     4  O   -0.505305
     5  H    0.252157
     6  H    0.253148
 Sum of Mulliken charges =  -0.00000

 Dipole moment (field-independent basis, Debye):
    X=             -0.5077    Y=             -0.0677    Z=              0.0000  Tot=              0.5122
 Quadrupole moment (field-independent basis, Debye-Ang):
   XX=             -7.9410   YY=             12.5051   ZZ=            -14.7107
   XY=             -1.1313   XZ=              0.0000   YZ=              0.0000

 Normal termination of Gaussian 16 at Sat Aug 27 06:42:10 2022.
