 Gaussian 16, Revision A.03,
 Gaussian 16:  ES64L-G16RevA.03 25-Dec-2016

 ------------------
 #p CCSD(T)/cc-pVTZ
 ------------------

 ------------
 H2O_H2O_3342
 ------------
 Symbolic Z-matrix:
 Charge =  0 Multiplicity = 1

                         Standard orientation:
 ---------------------------------------------------------------------
 Center     Atomic      Atomic             Coordinates (Angstroms)
 Number     Number       Type             X           Y           Z
 ---------------------------------------------------------------------
      1          8           0        0.051278   -2.537452    0.000000
      2          1           0       -0.749272   -3.107211    0.000000
      3          1           0        0.849867   -3.109955    0.000000
      4          8           0        0.051278    2.600982    0.000000
      5          1           0       -0.105649    3.570971    0.000000
      6          1           0       -0.815392    2.137959    0.000000
 ---------------------------------------------------------------------

 SCF Done:  E(RHF) =  -152.107202616     A.U. after   10 cycles
 E2 =    -0.5259381454D+00 EUMP2 =    -0.15263314076122D+03
 CCSD(T)
 CCSD(T)= -0.15266036180D+03

 The electronic state is 1-A'.
 Alpha  occ. eigenvalues --  -20.55479 -20.54905  -1.32776  -1.32199  -0.70183
 Alpha  occ. eigenvalues --   -0.69593  -0.56212  -0.55635  -0.49885  -0.49312
 Alpha virt. eigenvalues --    0.13935   0.14932   0.20201   0.20933   0.54326
 Alpha virt. eigenvalues --    0.54948   0.57282   0.57816   0.67346   0.69413
 Alpha virt. eigenvalues --    0.78996   0.79556   0.80362   0.80858   0.82709

 Mulliken charges:
               1
     1  O   -0.507582
     2  H    0.251757
     3  H    0.255900
     4  O   -0.507133
     5  H    0.249964
     6  H    0.257095
 Sum of Mulliken charges =  -0.00000

 Dipole moment (field-independent basis, Debye):
    X=             -1.7547    Y=             -1.1221    Z=              0.0000  Tot=              2.0828
 Quadrupole moment (field-independent basis, Debye-Ang):
   XX=             -9.4577   YY=              4.3615   ZZ=            -14.7120
   XY=             -3.9569   XZ=              0.0000   YZ=              0.0000

 Normal termination of Gaussian 16 at Fri Aug 26 21:31:35 2022.
