 Gaussian 16, Revision A.03,
 Gaussian 16:  ES64L-G16RevA.03 25-Dec-2016

 ------------------
 #p CCSD(T)/cc-pVTZ
 ------------------

 ------------
 H2O_H2O_4319
 ------------
 Symbolic Z-matrix:
 Charge =  0 Multiplicity = 1

                         Standard orientation:
 ---------------------------------------------------------------------
 Center     Atomic      Atomic             Coordinates (Angstroms)
 Number     Number       Type             X           Y           Z
 ---------------------------------------------------------------------
      1          8           0        0.054141   -3.048489    0.000000
      2          1           0       -0.746291   -3.618415    0.000000
      3          1           0        0.852849   -3.620826    0.000000
      4          8           0        0.054141    3.125836    0.000000
      5          1           0       -0.228249    4.066986    0.000000
      6          1           0       -0.744559    2.553485    0.000000
 ---------------------------------------------------------------------

 SCF Done:  E(RHF) =  -152.107423212     A.U. after   10 cycles
 E2 =    -0.5258812490D+00 EUMP2 =    -0.15263330446137D+03
 CCSD(T)
 CCSD(T)= -0.15266052401D+03

 The electronic state is 1-A'.
 Alpha  occ. eigenvalues --  -20.55599 -20.55128  -1.32898  -1.32426  -0.70304
 Alpha  occ. eigenvalues --   -0.69825  -0.56346  -0.55871  -0.50009  -0.49539
 Alpha virt. eigenvalues --    0.14059   0.14563   0.20151   0.20660   0.54256
 Alpha virt. eigenvalues --    0.54750   0.57177   0.57648   0.67805   0.68363
 Alpha virt. eigenvalues --    0.78871   0.79334   0.80301   0.80792   0.82248

 Mulliken charges:
               1
     1  O   -0.508989
     2  H    0.253230
     3  H    0.255761
     4  O   -0.508687
     5  H    0.251960
     6  H    0.256725
 Sum of Mulliken charges =  -0.00000

 Dipole moment (field-independent basis, Debye):
    X=             -1.8603    Y=             -1.3527    Z=              0.0000  Tot=              2.3001
 Quadrupole moment (field-independent basis, Debye-Ang):
   XX=             -9.6486   YY=              6.0404   ZZ=            -14.7121
   XY=             -5.3672   XZ=              0.0000   YZ=              0.0000

 Normal termination of Gaussian 16 at Sat Aug 27 06:38:49 2022.
