 Gaussian 16, Revision A.03,
 Gaussian 16:  ES64L-G16RevA.03 25-Dec-2016

 ------------------
 #p CCSD(T)/cc-pVTZ
 ------------------

 ------------
 H2O_H2O_2894
 ------------
 Symbolic Z-matrix:
 Charge =  0 Multiplicity = 1

                         Standard orientation:
 ---------------------------------------------------------------------
 Center     Atomic      Atomic             Coordinates (Angstroms)
 Number     Number       Type             X           Y           Z
 ---------------------------------------------------------------------
      1          8           0        0.054160   -2.290651    0.000000
      2          1           0       -0.746551   -2.860183    0.000000
      3          1           0        0.852587   -2.863379    0.000000
      4          8           0        0.054160    2.367944    0.000000
      5          1           0       -0.227769    3.309231    0.000000
      6          1           0       -0.744821    1.795986    0.000000
 ---------------------------------------------------------------------

 SCF Done:  E(RHF) =  -152.107469045     A.U. after   10 cycles
 E2 =    -0.5259834339D+00 EUMP2 =    -0.15263345247907D+03
 CCSD(T)
 CCSD(T)= -0.15266066006D+03

 The electronic state is 1-A'.
 Alpha  occ. eigenvalues --  -20.55606 -20.54724  -1.32898  -1.32018  -0.70306
 Alpha  occ. eigenvalues --   -0.69404  -0.56342  -0.55459  -0.50010  -0.49134
 Alpha virt. eigenvalues --    0.13532   0.15324   0.20081   0.21343   0.54108
 Alpha virt. eigenvalues --    0.54884   0.57198   0.57957   0.66601   0.71054
 Alpha virt. eigenvalues --    0.78875   0.79729   0.79949   0.80936   0.82773

 Mulliken charges:
               1
     1  O   -0.507911
     2  H    0.251387
     3  H    0.257019
     4  O   -0.508144
     5  H    0.248760
     6  H    0.258890
 Sum of Mulliken charges =  -0.00000

 Dipole moment (field-independent basis, Debye):
    X=             -1.8468    Y=             -1.3804    Z=              0.0000  Tot=              2.3057
 Quadrupole moment (field-independent basis, Debye-Ang):
   XX=             -9.6478   YY=              2.0213   ZZ=            -14.7132
   XY=             -3.9742   XZ=              0.0000   YZ=              0.0000

 Normal termination of Gaussian 16 at Fri Aug 26 17:13:44 2022.
