 Gaussian 16, Revision A.03,
 Gaussian 16:  ES64L-G16RevA.03 25-Dec-2016

 ------------------
 #p CCSD(T)/cc-pVTZ
 ------------------

 ------------
 H2O_H2O_2996
 ------------
 Symbolic Z-matrix:
 Charge =  0 Multiplicity = 1

                         Standard orientation:
 ---------------------------------------------------------------------
 Center     Atomic      Atomic             Coordinates (Angstroms)
 Number     Number       Type             X           Y           Z
 ---------------------------------------------------------------------
      1          8           0        0.056109   -2.336002    0.000000
      2          1           0       -0.744617   -2.905514    0.000000
      3          1           0        0.854522   -2.908752    0.000000
      4          8           0        0.056109    2.427717    0.000000
      5          1           0       -0.346246    3.324164    0.000000
      6          1           0       -0.661399    1.756383    0.000000
 ---------------------------------------------------------------------

 SCF Done:  E(RHF) =  -152.107765719     A.U. after   10 cycles
 E2 =    -0.5259521520D+00 EUMP2 =    -0.15263371787126D+03
 CCSD(T)
 CCSD(T)= -0.15266091921D+03

 The electronic state is 1-A'.
 Alpha  occ. eigenvalues --  -20.55745 -20.54743  -1.33037  -1.32040  -0.70444
 Alpha  occ. eigenvalues --   -0.69425  -0.56495  -0.55491  -0.50151  -0.49158
 Alpha virt. eigenvalues --    0.13435   0.15294   0.20005   0.21371   0.54034
 Alpha virt. eigenvalues --    0.54872   0.57082   0.57944   0.66702   0.70501
 Alpha virt. eigenvalues --    0.78738   0.79701   0.79799   0.80574   0.82787

 Mulliken charges:
               1
     1  O   -0.509524
     2  H    0.252347
     3  H    0.257720
     4  O   -0.509772
     5  H    0.249399
     6  H    0.259830
 Sum of Mulliken charges =  -0.00000

 Dipole moment (field-independent basis, Debye):
    X=             -1.9153    Y=             -1.6358    Z=              0.0000  Tot=              2.5188
 Quadrupole moment (field-independent basis, Debye-Ang):
   XX=             -9.7824   YY=              1.2207   ZZ=            -14.7138
   XY=             -4.4704   XZ=              0.0000   YZ=              0.0000

 Normal termination of Gaussian 16 at Fri Aug 26 18:15:57 2022.
