 Gaussian 16, Revision A.03,
 Gaussian 16:  ES64L-G16RevA.03 25-Dec-2016

 ------------------
 #p CCSD(T)/cc-pVTZ
 ------------------

 ------------
 H2O_H2O_1315
 ------------
 Symbolic Z-matrix:
 Charge =  0 Multiplicity = 1

                         Standard orientation:
 ---------------------------------------------------------------------
 Center     Atomic      Atomic             Coordinates (Angstroms)
 Number     Number       Type             X           Y           Z
 ---------------------------------------------------------------------
      1          8           0        0.047557   -1.467554    0.000000
      2          1           0       -0.753575   -2.036494    0.000000
      3          1           0        0.845561   -2.040873    0.000000
      4          8           0        0.047557    1.518059    0.000000
      5          1           0        0.019586    2.500263    0.000000
      6          1           0       -0.872488    1.173062    0.000000
 ---------------------------------------------------------------------

 SCF Done:  E(RHF) =  -152.104728822     A.U. after   10 cycles
 E2 =    -0.5274134267D+00 EUMP2 =    -0.15263214224911D+03
 CCSD(T)
 CCSD(T)= -0.15265934052D+03

 The electronic state is 1-A'.
 Alpha  occ. eigenvalues --  -20.55046 -20.53642  -1.32369  -1.30892  -0.69793
 Alpha  occ. eigenvalues --   -0.68319  -0.55968  -0.53866  -0.49493  -0.47977
 Alpha virt. eigenvalues --    0.13757   0.16878   0.20107   0.22995   0.53968
 Alpha virt. eigenvalues --    0.56720   0.57592   0.58342   0.67192   0.75873
 Alpha virt. eigenvalues --    0.76896   0.76957   0.80159   0.82374   0.85189

 Mulliken charges:
               1
     1  O   -0.482066
     2  H    0.236236
     3  H    0.250276
     4  O   -0.484583
     5  H    0.229580
     6  H    0.250557
 Sum of Mulliken charges =  -0.00000

 Dipole moment (field-independent basis, Debye):
    X=             -1.5476    Y=             -0.9694    Z=              0.0000  Tot=              1.8261
 Quadrupole moment (field-independent basis, Debye-Ang):
   XX=             -9.2688   YY=             -1.6758   ZZ=            -14.7179
   XY=             -1.7642   XZ=              0.0000   YZ=              0.0000

 Normal termination of Gaussian 16 at Sat Aug 27 03:51:02 2022.
