 Gaussian 16, Revision A.03,
 Gaussian 16:  ES64L-G16RevA.03 25-Dec-2016

 ------------------
 #p CCSD(T)/cc-pVTZ
 ------------------

 ------------
 H2O_H2O_4566
 ------------
 Symbolic Z-matrix:
 Charge =  0 Multiplicity = 1

                         Standard orientation:
 ---------------------------------------------------------------------
 Center     Atomic      Atomic             Coordinates (Angstroms)
 Number     Number       Type             X           Y           Z
 ---------------------------------------------------------------------
      1          8           0        0.049499   -3.192508    0.000000
      2          1           0       -0.750826   -3.762583    0.000000
      3          1           0        0.848314   -3.764697    0.000000
      4          8           0        0.049499    3.249491    0.000000
      5          1           0       -0.044037    4.227630    0.000000
      6          1           0       -0.845438    2.843789    0.000000
 ---------------------------------------------------------------------

 SCF Done:  E(RHF) =  -152.107274270     A.U. after   10 cycles
 E2 =    -0.5258902281D+00 EUMP2 =    -0.15263316449822D+03
 CCSD(T)
 CCSD(T)= -0.15266038749D+03

 The electronic state is 1-A'.
 Alpha  occ. eigenvalues --  -20.55499 -20.55182  -1.32797  -1.32479  -0.70203
 Alpha  occ. eigenvalues --   -0.69880  -0.56238  -0.55919  -0.49908  -0.49590
 Alpha virt. eigenvalues --    0.14162   0.14487   0.20233   0.20570   0.54360
 Alpha virt. eigenvalues --    0.54695   0.57267   0.57585   0.67954   0.68293
 Alpha virt. eigenvalues --    0.78972   0.79285   0.80406   0.80746   0.82332

 Mulliken charges:
               1
     1  O   -0.508096
     2  H    0.253005
     3  H    0.255091
     4  O   -0.507894
     5  H    0.252137
     6  H    0.255757
 Sum of Mulliken charges =   0.00000

 Dipole moment (field-independent basis, Debye):
    X=             -1.7017    Y=             -0.9947    Z=              0.0000  Tot=              1.9711
 Quadrupole moment (field-independent basis, Debye-Ang):
   XX=             -9.3454   YY=              8.7715   ZZ=            -14.7117
   XY=             -4.8157   XZ=              0.0000   YZ=              0.0000

 Normal termination of Gaussian 16 at Sat Aug 27 08:05:16 2022.
