 Gaussian 16, Revision A.03,
 Gaussian 16:  ES64L-G16RevA.03 25-Dec-2016

 ------------------
 #p CCSD(T)/cc-pVTZ
 ------------------

 -----------
 H2O_H2O_409
 -----------
 Symbolic Z-matrix:
 Charge =  0 Multiplicity = 1

                         Standard orientation:
 ---------------------------------------------------------------------
 Center     Atomic      Atomic             Coordinates (Angstroms)
 Number     Number       Type             X           Y           Z
 ---------------------------------------------------------------------
      1          8           0        0.031756   -1.005969    0.000000
      2          1           0       -0.769348   -1.574948    0.000000
      3          1           0        0.829788   -1.579249    0.000000
      4          8           0        0.031756    1.025049    0.000000
      5          1           0        0.381742    1.943208    0.000000
      6          1           0       -0.950281    1.058350    0.000000
 ---------------------------------------------------------------------

 SCF Done:  E(RHF) =  -152.059093220     A.U. after   11 cycles
 E2 =    -0.5345555340D+00 EUMP2 =    -0.15259364875352D+03
 CCSD(T)
 CCSD(T)= -0.15262051495D+03

 The electronic state is 1-A'.
 Alpha  occ. eigenvalues --  -20.52606 -20.51981  -1.32308  -1.28740  -0.69208
 Alpha  occ. eigenvalues --   -0.67200  -0.59509  -0.49465  -0.45370  -0.45302
 Alpha virt. eigenvalues --    0.14424   0.18118   0.20295   0.23233   0.52554
 Alpha virt. eigenvalues --    0.57890   0.58590   0.64237   0.70599   0.77117
 Alpha virt. eigenvalues --    0.78732   0.82130   0.83780   0.86062   0.87950

 Mulliken charges:
               1
     1  O   -0.442240
     2  H    0.210881
     3  H    0.228847
     4  O   -0.412421
     5  H    0.180956
     6  H    0.233977
 Sum of Mulliken charges =  -0.00000

 Dipole moment (field-independent basis, Debye):
    X=             -0.9265    Y=             -0.3932    Z=              0.0000  Tot=              1.0064
 Quadrupole moment (field-independent basis, Debye-Ang):
   XX=             -8.6919   YY=             -5.5538   ZZ=            -14.7343
   XY=             -0.4310   XZ=              0.0000   YZ=              0.0000

 Normal termination of Gaussian 16 at Fri Aug 26 16:11:44 2022.
