 Gaussian 16, Revision A.03,
 Gaussian 16:  ES64L-G16RevA.03 25-Dec-2016

 ------------------
 #p CCSD(T)/cc-pVTZ
 ------------------

 ------------
 H2O_H2O_4113
 ------------
 Symbolic Z-matrix:
 Charge =  0 Multiplicity = 1

                         Standard orientation:
 ---------------------------------------------------------------------
 Center     Atomic      Atomic             Coordinates (Angstroms)
 Number     Number       Type             X           Y           Z
 ---------------------------------------------------------------------
      1          8           0        0.042964   -2.963053    0.000000
      2          1           0       -0.757314   -3.533194    0.000000
      3          1           0        0.841827   -3.535176    0.000000
      4          8           0        0.042964    3.001858    0.000000
      5          1           0        0.141970    3.979459    0.000000
      6          1           0       -0.913908    2.778467    0.000000
 ---------------------------------------------------------------------

 SCF Done:  E(RHF) =  -152.107048527     A.U. after   10 cycles
 E2 =    -0.5259169131D+00 EUMP2 =    -0.15263296544046D+03
 CCSD(T)
 CCSD(T)= -0.15266019283D+03

 The electronic state is 1-A'.
 Alpha  occ. eigenvalues --  -20.55366 -20.55113  -1.32663  -1.32408  -0.70070
 Alpha  occ. eigenvalues --   -0.69810  -0.56093  -0.55839  -0.49772  -0.49518
 Alpha virt. eigenvalues --    0.14261   0.14551   0.20332   0.20609   0.54494
 Alpha virt. eigenvalues --    0.54770   0.57382   0.57638   0.68071   0.68436
 Alpha virt. eigenvalues --    0.79108   0.79358   0.80545   0.80819   0.82480

 Mulliken charges:
               1
     1  O   -0.506770
     2  H    0.252242
     3  H    0.254529
     4  O   -0.506555
     5  H    0.251455
     6  H    0.255099
 Sum of Mulliken charges =  -0.00000

 Dipole moment (field-independent basis, Debye):
    X=             -1.4750    Y=             -0.6790    Z=              0.0000  Tot=              1.6238
 Quadrupole moment (field-independent basis, Debye-Ang):
   XX=             -8.9651   YY=              8.8811   ZZ=            -14.7113
   XY=             -3.5840   XZ=              0.0000   YZ=              0.0000

 Normal termination of Gaussian 16 at Sat Aug 27 05:27:05 2022.
