 Gaussian 16, Revision A.03,
 Gaussian 16:  ES64L-G16RevA.03 25-Dec-2016

 ------------------
 #p CCSD(T)/cc-pVTZ
 ------------------

 ------------
 H2O_H2O_4001
 ------------
 Symbolic Z-matrix:
 Charge =  0 Multiplicity = 1

                         Standard orientation:
 ---------------------------------------------------------------------
 Center     Atomic      Atomic             Coordinates (Angstroms)
 Number     Number       Type             X           Y           Z
 ---------------------------------------------------------------------
      1          8           0        0.003735   -2.930812    0.000000
      2          1           0       -0.795898   -3.501856    0.000000
      3          1           0        0.803244   -3.502032    0.000000
      4          8           0        0.003735    2.931056    0.000000
      5          1           0        0.764310    3.553176    0.000000
      6          1           0       -0.831421    3.448762    0.000000
 ---------------------------------------------------------------------

 SCF Done:  E(RHF) =  -152.106648199     A.U. after   10 cycles
 E2 =    -0.5259517382D+00 EUMP2 =    -0.15263259993753D+03
 CCSD(T)
 CCSD(T)= -0.15265983587D+03

 The electronic state is 1-A'.
 Alpha  occ. eigenvalues --  -20.55115 -20.55113  -1.32410  -1.32408  -0.69817
 Alpha  occ. eigenvalues --   -0.69816  -0.55822  -0.55820  -0.49516  -0.49514
 Alpha virt. eigenvalues --    0.14464   0.14537   0.20521   0.20550   0.54743
 Alpha virt. eigenvalues --    0.54765   0.57599   0.57613   0.68316   0.68542
 Alpha virt. eigenvalues --    0.79362   0.79365   0.80806   0.80815   0.82736

 Mulliken charges:
               1
     1  O   -0.504386
     2  H    0.252088
     3  H    0.252298
     4  O   -0.504384
     5  H    0.252049
     6  H    0.252335
 Sum of Mulliken charges =   0.00000

 Dipole moment (field-independent basis, Debye):
    X=             -0.1282    Y=             -0.0043    Z=              0.0000  Tot=              0.1282
 Quadrupole moment (field-independent basis, Debye-Ang):
   XX=             -7.8146   YY=             11.3930   ZZ=            -14.7104
   XY=             -0.2596   XZ=              0.0000   YZ=              0.0000

 Normal termination of Gaussian 16 at Sat Aug 27 04:49:20 2022.
