 Gaussian 16, Revision A.03,
 Gaussian 16:  ES64L-G16RevA.03 25-Dec-2016

 ------------------
 #p CCSD(T)/cc-pVTZ
 ------------------

 ------------
 H2O_H2O_1784
 ------------
 Symbolic Z-matrix:
 Charge =  0 Multiplicity = 1

                         Standard orientation:
 ---------------------------------------------------------------------
 Center     Atomic      Atomic             Coordinates (Angstroms)
 Number     Number       Type             X           Y           Z
 ---------------------------------------------------------------------
      1          8           0        0.031745   -1.737206    0.000000
      2          1           0       -0.768718   -2.307087    0.000000
      3          1           0        0.830422   -2.309588    0.000000
      4          8           0        0.031745    1.756358    0.000000
      5          1           0        0.380697    2.674910    0.000000
      6          1           0       -0.950328    1.788555    0.000000
 ---------------------------------------------------------------------

 SCF Done:  E(RHF) =  -152.104785918     A.U. after   10 cycles
 E2 =    -0.5266501685D+00 EUMP2 =    -0.15263143608621D+03
 CCSD(T)
 CCSD(T)= -0.15265867094D+03

 The electronic state is 1-A'.
 Alpha  occ. eigenvalues --  -20.54613 -20.54231  -1.31893  -1.31498  -0.69317
 Alpha  occ. eigenvalues --   -0.68904  -0.55470  -0.54498  -0.49004  -0.48586
 Alpha virt. eigenvalues --    0.13998   0.16182   0.20443   0.21675   0.53080
 Alpha virt. eigenvalues --    0.56215   0.57952   0.58478   0.62983   0.76638
 Alpha virt. eigenvalues --    0.78809   0.78987   0.80295   0.81183   0.84203

 Mulliken charges:
               1
     1  O   -0.487866
     2  H    0.240785
     3  H    0.247838
     4  O   -0.488104
     5  H    0.239210
     6  H    0.248137
 Sum of Mulliken charges =  -0.00000

 Dipole moment (field-independent basis, Debye):
    X=             -1.0591    Y=             -0.3556    Z=              0.0000  Tot=              1.1172
 Quadrupole moment (field-independent basis, Debye-Ang):
   XX=             -8.4773   YY=              1.1941   ZZ=            -14.7105
   XY=             -1.1312   XZ=              0.0000   YZ=              0.0000

 Normal termination of Gaussian 16 at Sat Aug 27 06:46:12 2022.
