 Gaussian 16, Revision A.03,
 Gaussian 16:  ES64L-G16RevA.03 25-Dec-2016

 ------------------
 #p CCSD(T)/cc-pVTZ
 ------------------

 ------------
 H2O_H2O_1027
 ------------
 Symbolic Z-matrix:
 Charge =  0 Multiplicity = 1

                         Standard orientation:
 ---------------------------------------------------------------------
 Center     Atomic      Atomic             Coordinates (Angstroms)
 Number     Number       Type             X           Y           Z
 ---------------------------------------------------------------------
      1          8           0        0.007455   -1.348204    0.000000
      2          1           0       -0.792388   -1.918956    0.000000
      3          1           0        0.806754   -1.919716    0.000000
      4          8           0        0.007455    1.349174    0.000000
      5          1           0        0.725957    2.019444    0.000000
      6          1           0       -0.859604    1.811468    0.000000
 ---------------------------------------------------------------------

 SCF Done:  E(RHF) =  -152.097276963     A.U. after   11 cycles
 E2 =    -0.5282624454D+00 EUMP2 =    -0.15262553940793D+03
 CCSD(T)
 CCSD(T)= -0.15265285825D+03

 The electronic state is 1-A'.
 Alpha  occ. eigenvalues --  -20.53430 -20.53404  -1.31070  -1.30547  -0.68428
 Alpha  occ. eigenvalues --   -0.68062  -0.56257  -0.51443  -0.48327  -0.47396
 Alpha virt. eigenvalues --    0.14459   0.17176   0.20565   0.22148   0.50797
 Alpha virt. eigenvalues --    0.58604   0.58806   0.61840   0.71688   0.76510
 Alpha virt. eigenvalues --    0.76940   0.78461   0.80019   0.83571   0.86350

 Mulliken charges:
               1
     1  O   -0.464852
     2  H    0.230774
     3  H    0.233979
     4  O   -0.463874
     5  H    0.230507
     6  H    0.233465
 Sum of Mulliken charges =  -0.00000

 Dipole moment (field-independent basis, Debye):
    X=             -0.2385    Y=             -0.0185    Z=              0.0000  Tot=              0.2392
 Quadrupole moment (field-independent basis, Debye-Ang):
   XX=             -7.9764   YY=             -1.8709   ZZ=            -14.7168
   XY=             -0.1291   XZ=              0.0000   YZ=              0.0000

 Normal termination of Gaussian 16 at Sat Aug 27 01:29:55 2022.
