 Gaussian 16, Revision A.03,
 Gaussian 16:  ES64L-G16RevA.03 25-Dec-2016

 ------------------
 #p CCSD(T)/cc-pVTZ
 ------------------

 ------------
 H2O_H2O_4123
 ------------
 Symbolic Z-matrix:
 Charge =  0 Multiplicity = 1

                         Standard orientation:
 ---------------------------------------------------------------------
 Center     Atomic      Atomic             Coordinates (Angstroms)
 Number     Number       Type             X           Y           Z
 ---------------------------------------------------------------------
      1          8           0        0.057079   -2.926253    0.000000
      2          1           0       -0.743432   -3.496068    0.000000
      3          1           0        0.855708   -3.498701    0.000000
      4          8           0        0.057079    3.032821    0.000000
      5          1           0       -0.459160    3.868885    0.000000
      6          1           0       -0.566377    2.273341    0.000000
 ---------------------------------------------------------------------

 SCF Done:  E(RHF) =  -152.107701001     A.U. after   10 cycles
 E2 =    -0.5258616362D+00 EUMP2 =    -0.15263356263761D+03
 CCSD(T)
 CCSD(T)= -0.15266077588D+03

 The electronic state is 1-A'.
 Alpha  occ. eigenvalues --  -20.55765 -20.55069  -1.33065  -1.32369  -0.70471
 Alpha  occ. eigenvalues --   -0.69766  -0.56526  -0.55823  -0.50179  -0.49485
 Alpha virt. eigenvalues --    0.13875   0.14668   0.20020   0.20784   0.54084
 Alpha virt. eigenvalues --    0.54798   0.57030   0.57717   0.67521   0.68478
 Alpha virt. eigenvalues --    0.78702   0.79383   0.80124   0.80754   0.82227

 Mulliken charges:
               1
     1  O   -0.510631
     2  H    0.253919
     3  H    0.256725
     4  O   -0.510154
     5  H    0.252028
     6  H    0.258113
 Sum of Mulliken charges =  -0.00000

 Dipole moment (field-independent basis, Debye):
    X=             -1.9603    Y=             -1.8675    Z=              0.0000  Tot=              2.7074
 Quadrupole moment (field-independent basis, Debye-Ang):
   XX=             -9.8546   YY=              2.5847   ZZ=            -14.7128
   XY=             -5.9732   XZ=              0.0000   YZ=              0.0000

 Normal termination of Gaussian 16 at Sat Aug 27 05:30:29 2022.
