 Gaussian 16, Revision A.03,
 Gaussian 16:  ES64L-G16RevA.03 25-Dec-2016

 ------------------
 #p CCSD(T)/cc-pVTZ
 ------------------

 ------------
 H2O_H2O_3373
 ------------
 Symbolic Z-matrix:
 Charge =  0 Multiplicity = 1

                         Standard orientation:
 ---------------------------------------------------------------------
 Center     Atomic      Atomic             Coordinates (Angstroms)
 Number     Number       Type             X           Y           Z
 ---------------------------------------------------------------------
      1          8           0        0.057092   -2.527391    0.000000
      2          1           0       -0.743563   -3.097002    0.000000
      3          1           0        0.855576   -3.100042    0.000000
      4          8           0        0.057092    2.633930    0.000000
      5          1           0       -0.458934    3.470126    0.000000
      6          1           0       -0.566556    1.874608    0.000000
 ---------------------------------------------------------------------

 SCF Done:  E(RHF) =  -152.107895779     A.U. after   10 cycles
 E2 =    -0.5258923968D+00 EUMP2 =    -0.15263378817556D+03
 CCSD(T)
 CCSD(T)= -0.15266099195D+03

 The electronic state is 1-A'.
 Alpha  occ. eigenvalues --  -20.55829 -20.54864  -1.33126  -1.32165  -0.70531
 Alpha  occ. eigenvalues --   -0.69554  -0.56594  -0.55621  -0.50241  -0.49283
 Alpha virt. eigenvalues --    0.13542   0.15054   0.19965   0.21142   0.53994
 Alpha virt. eigenvalues --    0.54895   0.56991   0.57841   0.66951   0.69378
 Alpha virt. eigenvalues --    0.78647   0.79577   0.79917   0.80332   0.82769

 Mulliken charges:
               1
     1  O   -0.511219
     2  H    0.253604
     3  H    0.257858
     4  O   -0.510771
     5  H    0.250726
     6  H    0.259802
 Sum of Mulliken charges =  -0.00000

 Dipole moment (field-independent basis, Debye):
    X=             -1.9545    Y=             -1.8856    Z=              0.0000  Tot=              2.7158
 Quadrupole moment (field-independent basis, Debye-Ang):
   XX=             -9.8534   YY=              0.8873   ZZ=            -14.7137
   XY=             -5.1981   XZ=              0.0000   YZ=              0.0000

 Normal termination of Gaussian 16 at Fri Aug 26 21:47:50 2022.
