 Gaussian 16, Revision A.03,
 Gaussian 16:  ES64L-G16RevA.03 25-Dec-2016

 ------------------
 #p CCSD(T)/cc-pVTZ
 ------------------

 ------------
 H2O_H2O_4411
 ------------
 Symbolic Z-matrix:
 Charge =  0 Multiplicity = 1

                         Standard orientation:
 ---------------------------------------------------------------------
 Center     Atomic      Atomic             Coordinates (Angstroms)
 Number     Number       Type             X           Y           Z
 ---------------------------------------------------------------------
      1          8           0        0.037672   -3.128326    0.000000
      2          1           0       -0.762488   -3.698633    0.000000
      3          1           0        0.836653   -3.700283    0.000000
      4          8           0        0.037672    3.156595    0.000000
      5          1           0        0.263235    4.112957    0.000000
      6          1           0       -0.940152    3.059809    0.000000
 ---------------------------------------------------------------------

 SCF Done:  E(RHF) =  -152.107026069     A.U. after   10 cycles
 E2 =    -0.5259134739D+00 EUMP2 =    -0.15263293954324D+03
 CCSD(T)
 CCSD(T)= -0.15266016775D+03

 The electronic state is 1-A'.
 Alpha  occ. eigenvalues --  -20.55336 -20.55171  -1.32633  -1.32467  -0.70040
 Alpha  occ. eigenvalues --   -0.69870  -0.56063  -0.55897  -0.49742  -0.49576
 Alpha virt. eigenvalues --    0.14304   0.14479   0.20363   0.20538   0.54526
 Alpha virt. eigenvalues --    0.54705   0.57411   0.57577   0.68145   0.68336
 Alpha virt. eigenvalues --    0.79138   0.79301   0.80576   0.80757   0.82504

 Mulliken charges:
               1
     1  O   -0.506625
     2  H    0.252447
     3  H    0.254178
     4  O   -0.506488
     5  H    0.251908
     6  H    0.254581
 Sum of Mulliken charges =  -0.00000

 Dipole moment (field-independent basis, Debye):
    X=             -1.2944    Y=             -0.4936    Z=              0.0000  Tot=              1.3853
 Quadrupole moment (field-independent basis, Debye-Ang):
   XX=             -8.6961   YY=             10.8503   ZZ=            -14.7111
   XY=             -3.2228   XZ=              0.0000   YZ=              0.0000

 Normal termination of Gaussian 16 at Sat Aug 27 07:10:26 2022.
