 Gaussian 16, Revision A.03,
 Gaussian 16:  ES64L-G16RevA.03 25-Dec-2016

 ------------------
 #p CCSD(T)/cc-pVTZ
 ------------------

 ------------
 H2O_H2O_3462
 ------------
 Symbolic Z-matrix:
 Charge =  0 Multiplicity = 1

                         Standard orientation:
 ---------------------------------------------------------------------
 Center     Atomic      Atomic             Coordinates (Angstroms)
 Number     Number       Type             X           Y           Z
 ---------------------------------------------------------------------
      1          8           0        0.040407   -2.620322    0.000000
      2          1           0       -0.759916   -3.190399    0.000000
      3          1           0        0.839225   -3.192508    0.000000
      4          8           0        0.040407    2.653672    0.000000
      5          1           0        0.203216    3.622691    0.000000
      6          1           0       -0.929039    2.493419    0.000000
 ---------------------------------------------------------------------

 SCF Done:  E(RHF) =  -152.106787831     A.U. after   10 cycles
 E2 =    -0.5259594902D+00 EUMP2 =    -0.15263274732151D+03
 CCSD(T)
 CCSD(T)= -0.15265997894D+03

 The electronic state is 1-A'.
 Alpha  occ. eigenvalues --  -20.55249 -20.54969  -1.32545  -1.32262  -0.69953
 Alpha  occ. eigenvalues --   -0.69662  -0.55962  -0.55680  -0.49652  -0.49370
 Alpha virt. eigenvalues --    0.14242   0.14771   0.20386   0.20753   0.54584
 Alpha virt. eigenvalues --    0.54929   0.57476   0.57760   0.67779   0.69107
 Alpha virt. eigenvalues --    0.79227   0.79503   0.80656   0.80968   0.82668

 Mulliken charges:
               1
     1  O   -0.505245
     2  H    0.251097
     3  H    0.254159
     4  O   -0.504911
     5  H    0.250131
     6  H    0.254768
 Sum of Mulliken charges =  -0.00000

 Dipole moment (field-independent basis, Debye):
    X=             -1.3833    Y=             -0.5870    Z=              0.0000  Tot=              1.5027
 Quadrupole moment (field-independent basis, Debye-Ang):
   XX=             -8.8331   YY=              6.9512   ZZ=            -14.7110
   XY=             -2.8271   XZ=              0.0000   YZ=              0.0000

 Normal termination of Gaussian 16 at Fri Aug 26 22:32:49 2022.
