 Gaussian 16, Revision A.03,
 Gaussian 16:  ES64L-G16RevA.03 25-Dec-2016

 ------------------
 #p CCSD(T)/cc-pVTZ
 ------------------

 ------------
 H2O_H2O_1170
 ------------
 Symbolic Z-matrix:
 Charge =  0 Multiplicity = 1

                         Standard orientation:
 ---------------------------------------------------------------------
 Center     Atomic      Atomic             Coordinates (Angstroms)
 Number     Number       Type             X           Y           Z
 ---------------------------------------------------------------------
      1          8           0        0.055309   -1.369429    0.000000
      2          1           0       -0.746179   -1.937868    0.000000
      3          1           0        0.852954   -1.943248    0.000000
      4          8           0        0.055309    1.453720    0.000000
      5          1           0       -0.286320    2.375021    0.000000
      6          1           0       -0.705403    0.831769    0.000000
 ---------------------------------------------------------------------

 SCF Done:  E(RHF) =  -152.106252775     A.U. after   10 cycles
 E2 =    -0.5280048282D+00 EUMP2 =    -0.15263425760304D+03
 CCSD(T)
 CCSD(T)= -0.15266136439D+03

 The electronic state is 1-A'.
 Alpha  occ. eigenvalues --  -20.55983 -20.53093  -1.33380  -1.30389  -0.70785
 Alpha  occ. eigenvalues --   -0.68040  -0.56540  -0.53803  -0.50487  -0.47495
 Alpha virt. eigenvalues --    0.13306   0.17400   0.19742   0.24597   0.52625
 Alpha virt. eigenvalues --    0.56774   0.57238   0.59059   0.69835   0.75118
 Alpha virt. eigenvalues --    0.75125   0.78902   0.81765   0.82405   0.84424

 Mulliken charges:
               1
     1  O   -0.483076
     2  H    0.239071
     3  H    0.256076
     4  O   -0.500435
     5  H    0.229198
     6  H    0.259166
 Sum of Mulliken charges =  -0.00000

 Dipole moment (field-independent basis, Debye):
    X=             -1.7819    Y=             -1.6736    Z=              0.0000  Tot=              2.4446
 Quadrupole moment (field-independent basis, Debye-Ang):
   XX=             -9.7417   YY=             -3.3969   ZZ=            -14.7252
   XY=             -2.4958   XZ=              0.0000   YZ=              0.0000

 Normal termination of Gaussian 16 at Sat Aug 27 02:42:03 2022.
