 Gaussian 16, Revision A.03,
 Gaussian 16:  ES64L-G16RevA.03 25-Dec-2016

 ------------------
 #p CCSD(T)/cc-pVTZ
 ------------------

 ------------
 H2O_H2O_1621
 ------------
 Symbolic Z-matrix:
 Charge =  0 Multiplicity = 1

                         Standard orientation:
 ---------------------------------------------------------------------
 Center     Atomic      Atomic             Coordinates (Angstroms)
 Number     Number       Type             X           Y           Z
 ---------------------------------------------------------------------
      1          8           0        0.056150   -1.604779    0.000000
      2          1           0       -0.745086   -2.173573    0.000000
      3          1           0        0.854049   -2.178245    0.000000
      4          8           0        0.056150    1.696394    0.000000
      5          1           0       -0.345401    2.593202    0.000000
      6          1           0       -0.661960    1.025704    0.000000
 ---------------------------------------------------------------------

 SCF Done:  E(RHF) =  -152.108493873     A.U. after   10 cycles
 E2 =    -0.5268197031D+00 EUMP2 =    -0.15263531357604D+03
 CCSD(T)
 CCSD(T)= -0.15266244296D+03

 The electronic state is 1-A'.
 Alpha  occ. eigenvalues --  -20.56078 -20.53722  -1.33355  -1.31014  -0.70764
 Alpha  occ. eigenvalues --   -0.68410  -0.56775  -0.54477  -0.50474  -0.48144
 Alpha virt. eigenvalues --    0.13163   0.16810   0.19765   0.24147   0.53319
 Alpha virt. eigenvalues --    0.55270   0.56814   0.58236   0.66815   0.75729
 Alpha virt. eigenvalues --    0.76685   0.77009   0.79559   0.81348   0.84424

 Mulliken charges:
               1
     1  O   -0.494148
     2  H    0.244674
     3  H    0.257445
     4  O   -0.509119
     5  H    0.239391
     6  H    0.261757
 Sum of Mulliken charges =  -0.00000

 Dipole moment (field-independent basis, Debye):
    X=             -1.8596    Y=             -1.7536    Z=              0.0000  Tot=              2.5560
 Quadrupole moment (field-independent basis, Debye-Ang):
   XX=             -9.7873   YY=             -2.3724   ZZ=            -14.7213
   XY=             -3.0996   XZ=              0.0000   YZ=              0.0000

 Normal termination of Gaussian 16 at Sat Aug 27 05:49:37 2022.
