 Gaussian 16, Revision A.03,
 Gaussian 16:  ES64L-G16RevA.03 25-Dec-2016

 ------------------
 #p CCSD(T)/cc-pVTZ
 ------------------

 ------------
 H2O_H2O_4132
 ------------
 Symbolic Z-matrix:
 Charge =  0 Multiplicity = 1

                         Standard orientation:
 ---------------------------------------------------------------------
 Center     Atomic      Atomic             Coordinates (Angstroms)
 Number     Number       Type             X           Y           Z
 ---------------------------------------------------------------------
      1          8           0        0.025265   -2.991046    0.000000
      2          1           0       -0.774720   -3.561598    0.000000
      3          1           0        0.824421   -3.562758    0.000000
      4          8           0        0.025265    3.002789    0.000000
      5          1           0        0.490401    3.868326    0.000000
      6          1           0       -0.944339    3.162084    0.000000
 ---------------------------------------------------------------------

 SCF Done:  E(RHF) =  -152.106805285     A.U. after   10 cycles
 E2 =    -0.5259363658D+00 EUMP2 =    -0.15263274165042D+03
 CCSD(T)
 CCSD(T)= -0.15265997434D+03

 The electronic state is 1-A'.
 Alpha  occ. eigenvalues --  -20.55206 -20.55131  -1.32502  -1.32426  -0.69910
 Alpha  occ. eigenvalues --   -0.69832  -0.55921  -0.55846  -0.49609  -0.49534
 Alpha virt. eigenvalues --    0.14405   0.14511   0.20460   0.20547   0.54658
 Alpha virt. eigenvalues --    0.54744   0.57524   0.57602   0.68261   0.68446
 Alpha virt. eigenvalues --    0.79269   0.79344   0.80713   0.80797   0.82643

 Mulliken charges:
               1
     1  O   -0.505318
     2  H    0.251993
     3  H    0.253325
     4  O   -0.505234
     5  H    0.251662
     6  H    0.253572
 Sum of Mulliken charges =   0.00000

 Dipole moment (field-independent basis, Debye):
    X=             -0.8673    Y=             -0.2053    Z=              0.0000  Tot=              0.8912
 Quadrupole moment (field-independent basis, Debye-Ang):
   XX=             -8.2060   YY=             11.0932   ZZ=            -14.7107
   XY=             -1.9044   XZ=              0.0000   YZ=              0.0000

 Normal termination of Gaussian 16 at Sat Aug 27 05:33:32 2022.
