 Gaussian 16, Revision A.03,
 Gaussian 16:  ES64L-G16RevA.03 25-Dec-2016

 ------------------
 #p CCSD(T)/cc-pVTZ
 ------------------

 ------------
 H2O_H2O_1329
 ------------
 Symbolic Z-matrix:
 Charge =  0 Multiplicity = 1

                         Standard orientation:
 ---------------------------------------------------------------------
 Center     Atomic      Atomic             Coordinates (Angstroms)
 Number     Number       Type             X           Y           Z
 ---------------------------------------------------------------------
      1          8           0        0.014784   -1.506181    0.000000
      2          1           0       -0.785269   -2.076639    0.000000
      3          1           0        0.813872   -2.077988    0.000000
      4          8           0        0.014784    1.510049    0.000000
      5          1           0        0.639931    2.268137    0.000000
      6          1           0       -0.905072    1.855552    0.000000
 ---------------------------------------------------------------------

 SCF Done:  E(RHF) =  -152.101598300     A.U. after   11 cycles
 E2 =    -0.5273671078D+00 EUMP2 =    -0.15262896540818D+03
 CCSD(T)
 CCSD(T)= -0.15265625660D+03

 The electronic state is 1-A'.
 Alpha  occ. eigenvalues --  -20.53926 -20.53833  -1.31306  -1.31062  -0.68718
 Alpha  occ. eigenvalues --   -0.68518  -0.55629  -0.53044  -0.48501  -0.48025
 Alpha virt. eigenvalues --    0.14343   0.16700   0.20547   0.21887   0.51872
 Alpha virt. eigenvalues --    0.58322   0.58628   0.59641   0.66016   0.76457
 Alpha virt. eigenvalues --    0.77762   0.78227   0.79160   0.82664   0.86067

 Mulliken charges:
               1
     1  O   -0.473673
     2  H    0.234398
     3  H    0.239346
     4  O   -0.472276
     5  H    0.233835
     6  H    0.238369
 Sum of Mulliken charges =  -0.00000

 Dipole moment (field-independent basis, Debye):
    X=             -0.4838    Y=             -0.0730    Z=              0.0000  Tot=              0.4893
 Quadrupole moment (field-independent basis, Debye-Ang):
   XX=             -8.0311   YY=             -0.4305   ZZ=            -14.7107
   XY=             -0.3423   XZ=              0.0000   YZ=              0.0000

 Normal termination of Gaussian 16 at Sat Aug 27 03:57:40 2022.
