 Gaussian 16, Revision A.03,
 Gaussian 16:  ES64L-G16RevA.03 25-Dec-2016

 ------------------
 #p CCSD(T)/cc-pVTZ
 ------------------

 ------------
 H2O_H2O_3469
 ------------
 Symbolic Z-matrix:
 Charge =  0 Multiplicity = 1

                         Standard orientation:
 ---------------------------------------------------------------------
 Center     Atomic      Atomic             Coordinates (Angstroms)
 Number     Number       Type             X           Y           Z
 ---------------------------------------------------------------------
      1          8           0        0.054151   -2.596443    0.000000
      2          1           0       -0.746428   -3.166161    0.000000
      3          1           0        0.852711   -3.168987    0.000000
      4          8           0        0.054151    2.673761    0.000000
      5          1           0       -0.227996    3.614984    0.000000
      6          1           0       -0.744697    2.101618    0.000000
 ---------------------------------------------------------------------

 SCF Done:  E(RHF) =  -152.107420330     A.U. after   10 cycles
 E2 =    -0.5259139804D+00 EUMP2 =    -0.15263333431023D+03
 CCSD(T)
 CCSD(T)= -0.15266055099D+03

 The electronic state is 1-A'.
 Alpha  occ. eigenvalues --  -20.55592 -20.54929  -1.32890  -1.32225  -0.70297
 Alpha  occ. eigenvalues --   -0.69618  -0.56337  -0.55668  -0.50001  -0.49339
 Alpha virt. eigenvalues --    0.13863   0.14898   0.20129   0.20938   0.54229
 Alpha virt. eigenvalues --    0.54918   0.57185   0.57804   0.67347   0.69160
 Alpha virt. eigenvalues --    0.78881   0.79528   0.80257   0.80724   0.82673

 Mulliken charges:
               1
     1  O   -0.508864
     2  H    0.252461
     3  H    0.256480
     4  O   -0.508390
     5  H    0.250450
     6  H    0.257863
 Sum of Mulliken charges =  -0.00000

 Dipole moment (field-independent basis, Debye):
    X=             -1.8546    Y=             -1.3641    Z=              0.0000  Tot=              2.3022
 Quadrupole moment (field-independent basis, Debye-Ang):
   XX=             -9.6478   YY=              3.6461   ZZ=            -14.7124
   XY=             -4.5342   XZ=              0.0000   YZ=              0.0000

 Normal termination of Gaussian 16 at Fri Aug 26 22:36:11 2022.
