 Gaussian 16, Revision A.03,
 Gaussian 16:  ES64L-G16RevA.03 25-Dec-2016

 ------------------
 #p CCSD(T)/cc-pVTZ
 ------------------

 ------------
 H2O_H2O_3226
 ------------
 Symbolic Z-matrix:
 Charge =  0 Multiplicity = 1

                         Standard orientation:
 ---------------------------------------------------------------------
 Center     Atomic      Atomic             Coordinates (Angstroms)
 Number     Number       Type             X           Y           Z
 ---------------------------------------------------------------------
      1          8           0        0.003735   -2.518639    0.000000
      2          1           0       -0.795909   -3.089669    0.000000
      3          1           0        0.803233   -3.089873    0.000000
      4          8           0        0.003735    2.518883    0.000000
      5          1           0        0.764321    3.140989    0.000000
      6          1           0       -0.831412    3.036603    0.000000
 ---------------------------------------------------------------------

 SCF Done:  E(RHF) =  -152.106184783     A.U. after   10 cycles
 E2 =    -0.5260180891D+00 EUMP2 =    -0.15263220287211D+03
 CCSD(T)
 CCSD(T)= -0.15265944704D+03

 The electronic state is 1-A'.
 Alpha  occ. eigenvalues --  -20.54933 -20.54930  -1.32226  -1.32223  -0.69636
 Alpha  occ. eigenvalues --   -0.69633  -0.55625  -0.55600  -0.49329  -0.49326
 Alpha virt. eigenvalues --    0.14455   0.14828   0.20595   0.20715   0.54847
 Alpha virt. eigenvalues --    0.55032   0.57724   0.57781   0.67603   0.69731
 Alpha virt. eigenvalues --    0.79531   0.79566   0.80961   0.81048   0.82724

 Mulliken charges:
               1
     1  O   -0.501668
     2  H    0.250674
     3  H    0.250994
     4  O   -0.501664
     5  H    0.250625
     6  H    0.251038
 Sum of Mulliken charges =  -0.00000

 Dipole moment (field-independent basis, Debye):
    X=             -0.1277    Y=             -0.0043    Z=              0.0000  Tot=              0.1277
 Quadrupole moment (field-independent basis, Debye-Ang):
   XX=             -7.8227   YY=              8.0740   ZZ=            -14.7099
   XY=             -0.2075   XZ=              0.0000   YZ=              0.0000

 Normal termination of Gaussian 16 at Fri Aug 26 20:31:41 2022.
