 Gaussian 16, Revision A.03,
 Gaussian 16:  ES64L-G16RevA.03 25-Dec-2016

 ------------------
 #p CCSD(T)/cc-pVTZ
 ------------------

 ------------
 H2O_H2O_4027
 ------------
 Symbolic Z-matrix:
 Charge =  0 Multiplicity = 1

                         Standard orientation:
 ---------------------------------------------------------------------
 Center     Atomic      Atomic             Coordinates (Angstroms)
 Number     Number       Type             X           Y           Z
 ---------------------------------------------------------------------
      1          8           0        0.007455   -2.943712    0.000000
      2          1           0       -0.792241   -3.514669    0.000000
      3          1           0        0.806901   -3.515018    0.000000
      4          8           0        0.007455    2.944686    0.000000
      5          1           0        0.725784    3.615140    0.000000
      6          1           0       -0.859723    3.406755    0.000000
 ---------------------------------------------------------------------

 SCF Done:  E(RHF) =  -152.106666230     A.U. after   10 cycles
 E2 =    -0.5259497053D+00 EUMP2 =    -0.15263261593489D+03
 CCSD(T)
 CCSD(T)= -0.15265985151D+03

 The electronic state is 1-A'.
 Alpha  occ. eigenvalues --  -20.55124 -20.55117  -1.32419  -1.32413  -0.69827
 Alpha  occ. eigenvalues --   -0.69820  -0.55832  -0.55825  -0.49525  -0.49519
 Alpha virt. eigenvalues --    0.14460   0.14530   0.20517   0.20546   0.54736
 Alpha virt. eigenvalues --    0.54758   0.57593   0.57608   0.68315   0.68525
 Alpha virt. eigenvalues --    0.79353   0.79360   0.80798   0.80809   0.82729

 Mulliken charges:
               1
     1  O   -0.504492
     2  H    0.252040
     3  H    0.252452
     4  O   -0.504484
     5  H    0.251959
     6  H    0.252525
 Sum of Mulliken charges =  -0.00000

 Dipole moment (field-independent basis, Debye):
    X=             -0.2558    Y=             -0.0170    Z=              0.0000  Tot=              0.2564
 Quadrupole moment (field-independent basis, Debye-Ang):
   XX=             -7.8406   YY=             11.4493   ZZ=            -14.7104
   XY=             -0.5232   XZ=              0.0000   YZ=              0.0000

 Normal termination of Gaussian 16 at Sat Aug 27 04:57:38 2022.
