 Gaussian 16, Revision A.03,
 Gaussian 16:  ES64L-G16RevA.03 25-Dec-2016

 ------------------
 #p CCSD(T)/cc-pVTZ
 ------------------

 ------------
 H2O_H2O_1719
 ------------
 Symbolic Z-matrix:
 Charge =  0 Multiplicity = 1

                         Standard orientation:
 ---------------------------------------------------------------------
 Center     Atomic      Atomic             Coordinates (Angstroms)
 Number     Number       Type             X           Y           Z
 ---------------------------------------------------------------------
      1          8           0        0.054188   -1.665784    0.000000
      2          1           0       -0.746940   -2.234730    0.000000
      3          1           0        0.852196   -2.239098    0.000000
      4          8           0        0.054188    1.742998    0.000000
      5          1           0       -0.227050    2.684492    0.000000
      6          1           0       -0.745212    1.171625    0.000000
 ---------------------------------------------------------------------

 SCF Done:  E(RHF) =  -152.107625079     A.U. after   10 cycles
 E2 =    -0.5266699252D+00 EUMP2 =    -0.15263429500459D+03
 CCSD(T)
 CCSD(T)= -0.15266145231D+03

 The electronic state is 1-A'.
 Alpha  occ. eigenvalues --  -20.55733 -20.53932  -1.33007  -1.31209  -0.70421
 Alpha  occ. eigenvalues --   -0.68586  -0.56419  -0.54629  -0.50123  -0.48334
 Alpha virt. eigenvalues --    0.13325   0.16573   0.19915   0.23310   0.53959
 Alpha virt. eigenvalues --    0.54759   0.57072   0.58384   0.65596   0.75925
 Alpha virt. eigenvalues --    0.77745   0.77753   0.78778   0.81155   0.84687

 Mulliken charges:
               1
     1  O   -0.494284
     2  H    0.243922
     3  H    0.255596
     4  O   -0.504193
     5  H    0.239657
     6  H    0.259302
 Sum of Mulliken charges =  -0.00000

 Dipole moment (field-independent basis, Debye):
    X=             -1.8010    Y=             -1.4584    Z=              0.0000  Tot=              2.3174
 Quadrupole moment (field-independent basis, Debye-Ang):
   XX=             -9.6566   YY=             -1.3731   ZZ=            -14.7181
   XY=             -2.8416   XZ=              0.0000   YZ=              0.0000

 Normal termination of Gaussian 16 at Sat Aug 27 06:23:53 2022.
