 Gaussian 16, Revision A.03,
 Gaussian 16:  ES64L-G16RevA.03 25-Dec-2016

 ------------------
 #p CCSD(T)/cc-pVTZ
 ------------------

 -----------
 H2O_H2O_602
 -----------
 Symbolic Z-matrix:
 Charge =  0 Multiplicity = 1

                         Standard orientation:
 ---------------------------------------------------------------------
 Center     Atomic      Atomic             Coordinates (Angstroms)
 Number     Number       Type             X           Y           Z
 ---------------------------------------------------------------------
      1          8           0        0.007455   -1.122174    0.000000
      2          1           0       -0.792442   -1.692849    0.000000
      3          1           0        0.806700   -1.693763    0.000000
      4          8           0        0.007455    1.123143    0.000000
      5          1           0        0.726021    1.793344    0.000000
      6          1           0       -0.859560    1.585520    0.000000
 ---------------------------------------------------------------------

 SCF Done:  E(RHF) =  -152.078688362     A.U. after   11 cycles
 E2 =    -0.5313517513D+00 EUMP2 =    -0.15261004011315D+03
 CCSD(T)
 CCSD(T)= -0.15263721769D+03

 The electronic state is 1-A'.
 Alpha  occ. eigenvalues --  -20.52494 -20.52464  -1.31187  -1.29412  -0.68247
 Alpha  occ. eigenvalues --   -0.67120  -0.58591  -0.48503  -0.47386  -0.46014
 Alpha virt. eigenvalues --    0.14581   0.17953   0.20563   0.22589   0.50262
 Alpha virt. eigenvalues --    0.59018   0.59084   0.64793   0.71831   0.76998
 Alpha virt. eigenvalues --    0.77974   0.81223   0.84325   0.86656   0.86902

 Mulliken charges:
               1
     1  O   -0.449097
     2  H    0.222451
     3  H    0.226343
     4  O   -0.447095
     5  H    0.219392
     6  H    0.228006
 Sum of Mulliken charges =   0.00000

 Dipole moment (field-independent basis, Debye):
    X=             -0.2261    Y=             -0.0194    Z=              0.0000  Tot=              0.2270
 Quadrupole moment (field-independent basis, Debye-Ang):
   XX=             -8.0866   YY=             -4.2343   ZZ=            -14.7394
   XY=             -0.0830   XZ=              0.0000   YZ=              0.0000

 Normal termination of Gaussian 16 at Fri Aug 26 18:06:54 2022.
