 Gaussian 16, Revision A.03,
 Gaussian 16:  ES64L-G16RevA.03 25-Dec-2016

 ------------------
 #p CCSD(T)/cc-pVTZ
 ------------------

 ------------
 H2O_H2O_2420
 ------------
 Symbolic Z-matrix:
 Charge =  0 Multiplicity = 1

                         Standard orientation:
 ---------------------------------------------------------------------
 Center     Atomic      Atomic             Coordinates (Angstroms)
 Number     Number       Type             X           Y           Z
 ---------------------------------------------------------------------
      1          8           0        0.055264   -2.034163    0.000000
      2          1           0       -0.745611   -2.603464    0.000000
      3          1           0        0.853526   -2.607122    0.000000
      4          8           0        0.055264    2.118572    0.000000
      5          1           0       -0.287358    3.039505    0.000000
      6          1           0       -0.704778    1.495802    0.000000
 ---------------------------------------------------------------------

 SCF Done:  E(RHF) =  -152.107811986     A.U. after   10 cycles
 E2 =    -0.5261149104D+00 EUMP2 =    -0.15263392689603D+03
 CCSD(T)
 CCSD(T)= -0.15266111171D+03

 The electronic state is 1-A'.
 Alpha  occ. eigenvalues --  -20.55740 -20.54465  -1.33021  -1.31757  -0.70430
 Alpha  occ. eigenvalues --   -0.69132  -0.56467  -0.55203  -0.50136  -0.48878
 Alpha virt. eigenvalues --    0.13220   0.15814   0.19979   0.22107   0.54107
 Alpha virt. eigenvalues --    0.54553   0.57112   0.58365   0.65944   0.73508
 Alpha virt. eigenvalues --    0.78700   0.79465   0.80022   0.81931   0.82327

 Mulliken charges:
               1
     1  O   -0.505621
     2  H    0.249965
     3  H    0.257481
     4  O   -0.509119
     5  H    0.246740
     6  H    0.260554
 Sum of Mulliken charges =  -0.00000

 Dipole moment (field-independent basis, Debye):
    X=             -1.8724    Y=             -1.5349    Z=              0.0000  Tot=              2.4211
 Quadrupole moment (field-independent basis, Debye-Ang):
   XX=             -9.7232   YY=              0.2234   ZZ=            -14.7150
   XY=             -3.7085   XZ=              0.0000   YZ=              0.0000

 Normal termination of Gaussian 16 at Sat Aug 27 10:27:36 2022.
