 Gaussian 16, Revision A.03,
 Gaussian 16:  ES64L-G16RevA.03 25-Dec-2016

 ------------------
 #p CCSD(T)/cc-pVTZ
 ------------------

 ------------
 H2O_H2O_1388
 ------------
 Symbolic Z-matrix:
 Charge =  0 Multiplicity = 1

                         Standard orientation:
 ---------------------------------------------------------------------
 Center     Atomic      Atomic             Coordinates (Angstroms)
 Number     Number       Type             X           Y           Z
 ---------------------------------------------------------------------
      1          8           0        0.042987   -1.513851    0.000000
      2          1           0       -0.757959   -2.083054    0.000000
      3          1           0        0.841178   -2.086909    0.000000
      4          8           0        0.042987    1.552556    0.000000
      5          1           0        0.143138    2.530040    0.000000
      6          1           0       -0.914146    1.330287    0.000000
 ---------------------------------------------------------------------

 SCF Done:  E(RHF) =  -152.104341956     A.U. after   10 cycles
 E2 =    -0.5272420670D+00 EUMP2 =    -0.15263158402301D+03
 CCSD(T)
 CCSD(T)= -0.15265880323D+03

 The electronic state is 1-A'.
 Alpha  occ. eigenvalues --  -20.54792 -20.53794  -1.32100  -1.31045  -0.69526
 Alpha  occ. eigenvalues --   -0.68455  -0.55803  -0.53886  -0.49225  -0.48123
 Alpha virt. eigenvalues --    0.13884   0.16719   0.20235   0.22557   0.53665
 Alpha virt. eigenvalues --    0.56781   0.57802   0.58597   0.66052   0.76271
 Alpha virt. eigenvalues --    0.77428   0.77619   0.79736   0.82270   0.85399

 Mulliken charges:
               1
     1  O   -0.482150
     2  H    0.236257
     3  H    0.248544
     4  O   -0.482048
     5  H    0.230917
     6  H    0.248480
 Sum of Mulliken charges =  -0.00000

 Dipole moment (field-independent basis, Debye):
    X=             -1.4060    Y=             -0.7362    Z=              0.0000  Tot=              1.5871
 Quadrupole moment (field-independent basis, Debye-Ang):
   XX=             -9.0150   YY=             -1.0265   ZZ=            -14.7151
   XY=             -1.4921   XZ=              0.0000   YZ=              0.0000

 Normal termination of Gaussian 16 at Sat Aug 27 04:26:19 2022.
