 Gaussian 16, Revision A.03,
 Gaussian 16:  ES64L-G16RevA.03 25-Dec-2016

 ------------------
 #p CCSD(T)/cc-pVTZ
 ------------------

 ------------
 H2O_H2O_1533
 ------------
 Symbolic Z-matrix:
 Charge =  0 Multiplicity = 1

                         Standard orientation:
 ---------------------------------------------------------------------
 Center     Atomic      Atomic             Coordinates (Angstroms)
 Number     Number       Type             X           Y           Z
 ---------------------------------------------------------------------
      1          8           0        0.028568   -1.606384    0.000000
      2          1           0       -0.771872   -2.176298    0.000000
      3          1           0        0.827268   -2.178734    0.000000
      4          8           0        0.028568    1.621601    0.000000
      5          1           0        0.436814    2.515381    0.000000
      6          1           0       -0.949301    1.717920    0.000000
 ---------------------------------------------------------------------

 SCF Done:  E(RHF) =  -152.103654648     A.U. after   10 cycles
 E2 =    -0.5269859630D+00 EUMP2 =    -0.15263064061094D+03
 CCSD(T)
 CCSD(T)= -0.15265789333D+03

 The electronic state is 1-A'.
 Alpha  occ. eigenvalues --  -20.54370 -20.54028  -1.31667  -1.31288  -0.69093
 Alpha  occ. eigenvalues --   -0.68706  -0.55514  -0.53911  -0.48800  -0.48342
 Alpha virt. eigenvalues --    0.14125   0.16455   0.20465   0.21863   0.52771
 Alpha virt. eigenvalues --    0.57361   0.58105   0.58687   0.64105   0.76947
 Alpha virt. eigenvalues --    0.78239   0.78684   0.79374   0.81950   0.85750

 Mulliken charges:
               1
     1  O   -0.481388
     2  H    0.237148
     3  H    0.244935
     4  O   -0.480282
     5  H    0.235250
     6  H    0.244337
 Sum of Mulliken charges =  -0.00000

 Dipole moment (field-independent basis, Debye):
    X=             -0.9437    Y=             -0.2857    Z=              0.0000  Tot=              0.9860
 Quadrupole moment (field-independent basis, Debye-Ang):
   XX=             -8.3763   YY=              0.2390   ZZ=            -14.7106
   XY=             -0.8586   XZ=              0.0000   YZ=              0.0000

 Normal termination of Gaussian 16 at Sat Aug 27 05:19:24 2022.
