 Gaussian 16, Revision A.03,
 Gaussian 16:  ES64L-G16RevA.03 25-Dec-2016

 ------------------
 #p CCSD(T)/cc-pVTZ
 ------------------

 ------------
 H2O_H2O_3762
 ------------
 Symbolic Z-matrix:
 Charge =  0 Multiplicity = 1

                         Standard orientation:
 ---------------------------------------------------------------------
 Center     Atomic      Atomic             Coordinates (Angstroms)
 Number     Number       Type             X           Y           Z
 ---------------------------------------------------------------------
      1          8           0        0.040406   -2.779870    0.000000
      2          1           0       -0.759874   -3.350007    0.000000
      3          1           0        0.839266   -3.351995    0.000000
      4          8           0        0.040406    2.813226    0.000000
      5          1           0        0.203142    3.782257    0.000000
      6          1           0       -0.929028    2.652900    0.000000
 ---------------------------------------------------------------------

 SCF Done:  E(RHF) =  -152.106895818     A.U. after   10 cycles
 E2 =    -0.5259386043D+00 EUMP2 =    -0.15263283442192D+03
 CCSD(T)
 CCSD(T)= -0.15266006454D+03

 The electronic state is 1-A'.
 Alpha  occ. eigenvalues --  -20.55291 -20.55043  -1.32587  -1.32337  -0.69995
 Alpha  occ. eigenvalues --   -0.69738  -0.56010  -0.55761  -0.49695  -0.49446
 Alpha virt. eigenvalues --    0.14283   0.14644   0.20376   0.20669   0.54563
 Alpha virt. eigenvalues --    0.54846   0.57444   0.57697   0.68020   0.68682
 Alpha virt. eigenvalues --    0.79184   0.79429   0.80623   0.80890   0.82578

 Mulliken charges:
               1
     1  O   -0.505877
     2  H    0.251645
     3  H    0.254235
     4  O   -0.505617
     5  H    0.250816
     6  H    0.254798
 Sum of Mulliken charges =  -0.00000

 Dipole moment (field-independent basis, Debye):
    X=             -1.3853    Y=             -0.5852    Z=              0.0000  Tot=              1.5039
 Quadrupole moment (field-independent basis, Debye-Ang):
   XX=             -8.8319   YY=              8.0482   ZZ=            -14.7111
   XY=             -3.0457   XZ=              0.0000   YZ=              0.0000

 Normal termination of Gaussian 16 at Sat Aug 27 03:06:41 2022.
