 Gaussian 16, Revision A.03,
 Gaussian 16:  ES64L-G16RevA.03 25-Dec-2016

 ------------------
 #p CCSD(T)/cc-pVTZ
 ------------------

 ------------
 H2O_H2O_1668
 ------------
 Symbolic Z-matrix:
 Charge =  0 Multiplicity = 1

                         Standard orientation:
 ---------------------------------------------------------------------
 Center     Atomic      Atomic             Coordinates (Angstroms)
 Number     Number       Type             X           Y           Z
 ---------------------------------------------------------------------
      1          8           0        0.052861   -1.642986    0.000000
      2          1           0       -0.748253   -2.211952    0.000000
      3          1           0        0.850883   -2.216280    0.000000
      4          8           0        0.052861    1.713214    0.000000
      5          1           0       -0.166221    2.671081    0.000000
      6          1           0       -0.782184    1.195328    0.000000
 ---------------------------------------------------------------------

 SCF Done:  E(RHF) =  -152.107167106     A.U. after   10 cycles
 E2 =    -0.5267427478D+00 EUMP2 =    -0.15263390985424D+03
 CCSD(T)
 CCSD(T)= -0.15266107556D+03

 The electronic state is 1-A'.
 Alpha  occ. eigenvalues --  -20.55587 -20.53921  -1.32864  -1.31192  -0.70280
 Alpha  occ. eigenvalues --   -0.68571  -0.56271  -0.54576  -0.49978  -0.48313
 Alpha virt. eigenvalues --    0.13422   0.16587   0.19967   0.23135   0.54239
 Alpha virt. eigenvalues --    0.54601   0.57195   0.58405   0.65454   0.76161
 Alpha virt. eigenvalues --    0.77724   0.77741   0.78694   0.81304   0.84800

 Mulliken charges:
               1
     1  O   -0.492392
     2  H    0.242659
     3  H    0.254591
     4  O   -0.500944
     5  H    0.238368
     6  H    0.257719
 Sum of Mulliken charges =   0.00000

 Dipole moment (field-independent basis, Debye):
    X=             -1.7529    Y=             -1.3277    Z=              0.0000  Tot=              2.1989
 Quadrupole moment (field-independent basis, Debye-Ang):
   XX=             -9.5722   YY=             -1.2055   ZZ=            -14.7175
   XY=             -2.6097   XZ=              0.0000   YZ=              0.0000

 Normal termination of Gaussian 16 at Sat Aug 27 06:07:12 2022.
