 Gaussian 16, Revision A.03,
 Gaussian 16:  ES64L-G16RevA.03 25-Dec-2016

 ------------------
 #p CCSD(T)/cc-pVTZ
 ------------------

 ------------
 H2O_H2O_3091
 ------------
 Symbolic Z-matrix:
 Charge =  0 Multiplicity = 1

                         Standard orientation:
 ---------------------------------------------------------------------
 Center     Atomic      Atomic             Coordinates (Angstroms)
 Number     Number       Type             X           Y           Z
 ---------------------------------------------------------------------
      1          8           0        0.049511   -2.408071    0.000000
      2          1           0       -0.751057   -2.977805    0.000000
      3          1           0        0.848083   -2.980600    0.000000
      4          8           0        0.049511    2.465011    0.000000
      5          1           0       -0.043608    3.443191    0.000000
      6          1           0       -0.845598    2.059692    0.000000
 ---------------------------------------------------------------------

 SCF Done:  E(RHF) =  -152.107050739     A.U. after   10 cycles
 E2 =    -0.5259725176D+00 EUMP2 =    -0.15263302325674D+03
 CCSD(T)
 CCSD(T)= -0.15266024553D+03

 The electronic state is 1-A'.
 Alpha  occ. eigenvalues --  -20.55407 -20.54830  -1.32702  -1.32123  -0.70110
 Alpha  occ. eigenvalues --   -0.69516  -0.56130  -0.55551  -0.49811  -0.49235
 Alpha virt. eigenvalues --    0.13881   0.15083   0.20227   0.21032   0.54336
 Alpha virt. eigenvalues --    0.54987   0.57347   0.57863   0.67010   0.70200
 Alpha virt. eigenvalues --    0.79070   0.79633   0.80362   0.81036   0.82819

 Mulliken charges:
               1
     1  O   -0.506517
     2  H    0.251001
     3  H    0.255655
     4  O   -0.506120
     5  H    0.249154
     6  H    0.256827
 Sum of Mulliken charges =  -0.00000

 Dipole moment (field-independent basis, Debye):
    X=             -1.6911    Y=             -1.0099    Z=              0.0000  Tot=              1.9697
 Quadrupole moment (field-independent basis, Debye-Ang):
   XX=             -9.3464   YY=              4.0460   ZZ=            -14.7119
   XY=             -3.4958   XZ=              0.0000   YZ=              0.0000

 Normal termination of Gaussian 16 at Fri Aug 26 19:20:30 2022.
