 Gaussian 16, Revision A.03,
 Gaussian 16:  ES64L-G16RevA.03 25-Dec-2016

 ------------------
 #p CCSD(T)/cc-pVTZ
 ------------------

 -----------
 H2O_H2O_781
 -----------
 Symbolic Z-matrix:
 Charge =  0 Multiplicity = 1

                         Standard orientation:
 ---------------------------------------------------------------------
 Center     Atomic      Atomic             Coordinates (Angstroms)
 Number     Number       Type             X           Y           Z
 ---------------------------------------------------------------------
      1          8           0        0.021863   -1.211086    0.000000
      2          1           0       -0.778591   -1.780979    0.000000
      3          1           0        0.820549   -1.783455    0.000000
      4          8           0        0.021863    1.219713    0.000000
      5          1           0        0.543298    2.052547    0.000000
      6          1           0       -0.935063    1.442869    0.000000
 ---------------------------------------------------------------------

 SCF Done:  E(RHF) =  -152.090687044     A.U. after   11 cycles
 E2 =    -0.5296568480D+00 EUMP2 =    -0.15262034389224D+03
 CCSD(T)
 CCSD(T)= -0.15264760706D+03

 The electronic state is 1-A'.
 Alpha  occ. eigenvalues --  -20.53191 -20.52929  -1.31182  -1.30031  -0.68445
 Alpha  occ. eigenvalues --   -0.67653  -0.57244  -0.49778  -0.48480  -0.46775
 Alpha virt. eigenvalues --    0.14440   0.17522   0.20515   0.22570   0.51246
 Alpha virt. eigenvalues --    0.58708   0.58846   0.62906   0.71543   0.76537
 Alpha virt. eigenvalues --    0.76979   0.80069   0.83961   0.86378   0.86848

 Mulliken charges:
               1
     1  O   -0.461510
     2  H    0.224870
     3  H    0.235274
     4  O   -0.450710
     5  H    0.217461
     6  H    0.234615
 Sum of Mulliken charges =  -0.00000

 Dipole moment (field-independent basis, Debye):
    X=             -0.6791    Y=             -0.1682    Z=              0.0000  Tot=              0.6996
 Quadrupole moment (field-independent basis, Debye-Ang):
   XX=             -8.2817   YY=             -3.2557   ZZ=            -14.7273
   XY=             -0.3418   XZ=              0.0000   YZ=              0.0000

 Normal termination of Gaussian 16 at Fri Aug 26 19:55:52 2022.
