 Gaussian 16, Revision A.03,
 Gaussian 16:  ES64L-G16RevA.03 25-Dec-2016

 ------------------
 #p CCSD(T)/cc-pVTZ
 ------------------

 ------------
 H2O_H2O_1717
 ------------
 Symbolic Z-matrix:
 Charge =  0 Multiplicity = 1

                         Standard orientation:
 ---------------------------------------------------------------------
 Center     Atomic      Atomic             Coordinates (Angstroms)
 Number     Number       Type             X           Y           Z
 ---------------------------------------------------------------------
      1          8           0        0.051305   -1.673265    0.000000
      2          1           0       -0.749740   -2.242327    0.000000
      3          1           0        0.849397   -2.246463    0.000000
      4          8           0        0.051305    1.736705    0.000000
      5          1           0       -0.104777    2.706831    0.000000
      6          1           0       -0.815767    1.274437    0.000000
 ---------------------------------------------------------------------

 SCF Done:  E(RHF) =  -152.106836172     A.U. after   10 cycles
 E2 =    -0.5266802366D+00 EUMP2 =    -0.15263351640838D+03
 CCSD(T)
 CCSD(T)= -0.15266069335D+03

 The electronic state is 1-A'.
 Alpha  occ. eigenvalues --  -20.55444 -20.54007  -1.32720  -1.31275  -0.70138
 Alpha  occ. eigenvalues --   -0.68652  -0.56131  -0.54632  -0.49833  -0.48393
 Alpha virt. eigenvalues --    0.13489   0.16484   0.20038   0.22819   0.54270
 Alpha virt. eigenvalues --    0.54480   0.57320   0.58498   0.64974   0.76343
 Alpha virt. eigenvalues --    0.78027   0.78412   0.78493   0.81202   0.84911

 Mulliken charges:
               1
     1  O   -0.492629
     2  H    0.242590
     3  H    0.253901
     4  O   -0.499207
     5  H    0.238683
     6  H    0.256662
 Sum of Mulliken charges =  -0.00000

 Dipole moment (field-independent basis, Debye):
    X=             -1.7047    Y=             -1.1928    Z=              0.0000  Tot=              2.0805
 Quadrupole moment (field-independent basis, Debye-Ang):
   XX=             -9.4728   YY=             -0.7439   ZZ=            -14.7162
   XY=             -2.4687   XZ=              0.0000   YZ=              0.0000

 Normal termination of Gaussian 16 at Sat Aug 27 06:23:13 2022.
