 Gaussian 16, Revision A.03,
 Gaussian 16:  ES64L-G16RevA.03 25-Dec-2016

 ------------------
 #p CCSD(T)/cc-pVTZ
 ------------------

 ------------
 H2O_H2O_2795
 ------------
 Symbolic Z-matrix:
 Charge =  0 Multiplicity = 1

                         Standard orientation:
 ---------------------------------------------------------------------
 Center     Atomic      Atomic             Coordinates (Angstroms)
 Number     Number       Type             X           Y           Z
 ---------------------------------------------------------------------
      1          8           0        0.055255   -2.233590    0.000000
      2          1           0       -0.745506   -2.803052    0.000000
      3          1           0        0.853633   -2.806389    0.000000
      4          8           0        0.055255    2.318022    0.000000
      5          1           0       -0.287551    3.238885    0.000000
      6          1           0       -0.704661    1.695099    0.000000
 ---------------------------------------------------------------------

 SCF Done:  E(RHF) =  -152.107664699     A.U. after   10 cycles
 E2 =    -0.5259976444D+00 EUMP2 =    -0.15263366234364D+03
 CCSD(T)
 CCSD(T)= -0.15266086220D+03

 The electronic state is 1-A'.
 Alpha  occ. eigenvalues --  -20.55691 -20.54667  -1.32981  -1.31961  -0.70388
 Alpha  occ. eigenvalues --   -0.69344  -0.56430  -0.55408  -0.50094  -0.49080
 Alpha virt. eigenvalues --    0.13389   0.15443   0.20026   0.21527   0.54047
 Alpha virt. eigenvalues --    0.54817   0.57137   0.58039   0.66474   0.71482
 Alpha virt. eigenvalues --    0.78792   0.79770   0.79783   0.80933   0.82712

 Mulliken charges:
               1
     1  O   -0.508163
     2  H    0.251457
     3  H    0.257484
     4  O   -0.509027
     5  H    0.248531
     6  H    0.259718
 Sum of Mulliken charges =  -0.00000

 Dipole moment (field-independent basis, Debye):
    X=             -1.8822    Y=             -1.5137    Z=              0.0000  Tot=              2.4153
 Quadrupole moment (field-independent basis, Debye-Ang):
   XX=             -9.7226   YY=              1.2372   ZZ=            -14.7138
   XY=             -4.0787   XZ=              0.0000   YZ=              0.0000

 Normal termination of Gaussian 16 at Fri Aug 26 16:14:59 2022.
