 Gaussian 16, Revision A.03,
 Gaussian 16:  ES64L-G16RevA.03 25-Dec-2016

 ------------------
 #p CCSD(T)/cc-pVTZ
 ------------------

 ----------
 H2O_H2O_14
 ----------
 Symbolic Z-matrix:
 Charge =  0 Multiplicity = 1

                         Standard orientation:
 ---------------------------------------------------------------------
 Center     Atomic      Atomic             Coordinates (Angstroms)
 Number     Number       Type             X           Y           Z
 ---------------------------------------------------------------------
      1          8           0        0.045419   -0.779561    0.000000
      2          1           0       -0.756921   -1.346796    0.000000
      3          1           0        0.842202   -1.354576    0.000000
      4          8           0        0.045419    0.823809    0.000000
      5          1           0        0.083836    1.805659    0.000000
      6          1           0       -0.895822    0.541725    0.000000
 ---------------------------------------------------------------------

 SCF Done:  E(RHF) =  -151.911875092     A.U. after   12 cycles
 E2 =    -0.5519785546D+00 EUMP2 =    -0.15246385364706D+03
 CCSD(T)
 CCSD(T)= -0.15248837503D+03

 The electronic state is 1-A'.
 Alpha  occ. eigenvalues --  -20.53221 -20.51403  -1.39664  -1.26391  -0.75485
 Alpha  occ. eigenvalues --   -0.71102  -0.58493  -0.54584  -0.43216  -0.36125
 Alpha virt. eigenvalues --    0.13783   0.18982   0.19891   0.23946   0.52283
 Alpha virt. eigenvalues --    0.56380   0.58639   0.66205   0.73543   0.77085
 Alpha virt. eigenvalues --    0.80862   0.81655   0.82064   0.83744   0.89300

 Mulliken charges:
               1
     1  O   -0.310875
     2  H    0.140915
     3  H    0.184581
     4  O   -0.330175
     5  H    0.079814
     6  H    0.235740
 Sum of Mulliken charges =  -0.00000

 Dipole moment (field-independent basis, Debye):
    X=             -1.1799    Y=             -1.0701    Z=              0.0000  Tot=              1.5928
 Quadrupole moment (field-independent basis, Debye-Ang):
   XX=             -9.4039   YY=             -9.3565   ZZ=            -14.6266
   XY=             -0.6847   XZ=              0.0000   YZ=              0.0000

 Normal termination of Gaussian 16 at Fri Aug 26 11:53:37 2022.
