 Gaussian 16, Revision A.03,
 Gaussian 16:  ES64L-G16RevA.03 25-Dec-2016

 ------------------
 #p CCSD(T)/cc-pVTZ
 ------------------

 ------------
 H2O_H2O_1788
 ------------
 Symbolic Z-matrix:
 Charge =  0 Multiplicity = 1

                         Standard orientation:
 ---------------------------------------------------------------------
 Center     Atomic      Atomic             Coordinates (Angstroms)
 Number     Number       Type             X           Y           Z
 ---------------------------------------------------------------------
      1          8           0        0.042981   -1.726573    0.000000
      2          1           0       -0.757797   -2.296010    0.000000
      3          1           0        0.841341   -2.299396    0.000000
      4          8           0        0.042981    1.765302    0.000000
      5          1           0        0.142845    2.742816    0.000000
      6          1           0       -0.914086    1.542752    0.000000
 ---------------------------------------------------------------------

 SCF Done:  E(RHF) =  -152.105688539     A.U. after   10 cycles
 E2 =    -0.5266212777D+00 EUMP2 =    -0.15263230981690D+03
 CCSD(T)
 CCSD(T)= -0.15265952037D+03

 The electronic state is 1-A'.
 Alpha  occ. eigenvalues --  -20.54973 -20.54175  -1.32250  -1.31439  -0.69672
 Alpha  occ. eigenvalues --   -0.68828  -0.55709  -0.54649  -0.49359  -0.48544
 Alpha virt. eigenvalues --    0.13756   0.16266   0.20269   0.22045   0.53362
 Alpha virt. eigenvalues --    0.55345   0.57701   0.58566   0.63903   0.76816
 Alpha virt. eigenvalues --    0.78573   0.78586   0.79953   0.81098   0.85274

 Mulliken charges:
               1
     1  O   -0.490947
     2  H    0.241652
     3  H    0.251030
     4  O   -0.492859
     5  H    0.238895
     6  H    0.252229
 Sum of Mulliken charges =  -0.00000

 Dipole moment (field-independent basis, Debye):
    X=             -1.4327    Y=             -0.7207    Z=              0.0000  Tot=              1.6038
 Quadrupole moment (field-independent basis, Debye-Ang):
   XX=             -8.9918   YY=              0.5204   ZZ=            -14.7126
   XY=             -1.7928   XZ=              0.0000   YZ=              0.0000

 Normal termination of Gaussian 16 at Sat Aug 27 06:47:33 2022.
