 Gaussian 16, Revision A.03,
 Gaussian 16:  ES64L-G16RevA.03 25-Dec-2016

 ------------------
 #p CCSD(T)/cc-pVTZ
 ------------------

 ------------
 H2O_H2O_2916
 ------------
 Symbolic Z-matrix:
 Charge =  0 Multiplicity = 1

                         Standard orientation:
 ---------------------------------------------------------------------
 Center     Atomic      Atomic             Coordinates (Angstroms)
 Number     Number       Type             X           Y           Z
 ---------------------------------------------------------------------
      1          8           0        0.049513   -2.315003    0.000000
      2          1           0       -0.751094   -2.884681    0.000000
      3          1           0        0.848045   -2.887587    0.000000
      4          8           0        0.049513    2.371937    0.000000
      5          1           0       -0.043539    3.350122    0.000000
      6          1           0       -0.845625    1.966679    0.000000
 ---------------------------------------------------------------------

 SCF Done:  E(RHF) =  -152.107016894     A.U. after   10 cycles
 E2 =    -0.5259996233D+00 EUMP2 =    -0.15263301651743D+03
 CCSD(T)
 CCSD(T)= -0.15266023697D+03

 The electronic state is 1-A'.
 Alpha  occ. eigenvalues --  -20.55395 -20.54765  -1.32688  -1.32056  -0.70097
 Alpha  occ. eigenvalues --   -0.69447  -0.56113  -0.55482  -0.49797  -0.49169
 Alpha virt. eigenvalues --    0.13786   0.15223   0.20215   0.21148   0.54269
 Alpha virt. eigenvalues --    0.54986   0.57363   0.57911   0.66654   0.70996
 Alpha virt. eigenvalues --    0.79082   0.79701   0.80291   0.81227   0.82871

 Mulliken charges:
               1
     1  O   -0.506009
     2  H    0.250541
     3  H    0.255710
     4  O   -0.505757
     5  H    0.248539
     6  H    0.256977
 Sum of Mulliken charges =  -0.00000

 Dipole moment (field-independent basis, Debye):
    X=             -1.6885    Y=             -1.0138    Z=              0.0000  Tot=              1.9695
 Quadrupole moment (field-independent basis, Debye-Ang):
   XX=             -9.3470   YY=              3.4818   ZZ=            -14.7120
   XY=             -3.3403   XZ=              0.0000   YZ=              0.0000

 Normal termination of Gaussian 16 at Fri Aug 26 17:25:54 2022.
