 Gaussian 16, Revision A.03,
 Gaussian 16:  ES64L-G16RevA.03 25-Dec-2016

 ------------------
 #p CCSD(T)/cc-pVTZ
 ------------------

 ------------
 H2O_H2O_3034
 ------------
 Symbolic Z-matrix:
 Charge =  0 Multiplicity = 1

                         Standard orientation:
 ---------------------------------------------------------------------
 Center     Atomic      Atomic             Coordinates (Angstroms)
 Number     Number       Type             X           Y           Z
 ---------------------------------------------------------------------
      1          8           0        0.031741   -2.401988    0.000000
      2          1           0       -0.768476   -2.972214    0.000000
      3          1           0        0.830665   -2.974025    0.000000
      4          8           0        0.031741    2.421166    0.000000
      5          1           0        0.380297    3.339869    0.000000
      6          1           0       -0.950346    2.452940    0.000000
 ---------------------------------------------------------------------

 SCF Done:  E(RHF) =  -152.106342399     A.U. after   10 cycles
 E2 =    -0.5260234359D+00 EUMP2 =    -0.15263236583446D+03
 CCSD(T)
 CCSD(T)= -0.15265960503D+03

 The electronic state is 1-A'.
 Alpha  occ. eigenvalues --  -20.55047 -20.54854  -1.32340  -1.32145  -0.69750
 Alpha  occ. eigenvalues --   -0.69548  -0.55736  -0.55539  -0.49444  -0.49250
 Alpha virt. eigenvalues --    0.14256   0.14991   0.20485   0.20845   0.54679
 Alpha virt. eigenvalues --    0.55105   0.57635   0.57847   0.67009   0.70374
 Alpha virt. eigenvalues --    0.79427   0.79629   0.80831   0.81161   0.82679

 Mulliken charges:
               1
     1  O   -0.502588
     2  H    0.249767
     3  H    0.252845
     4  O   -0.502255
     5  H    0.248990
     6  H    0.253241
 Sum of Mulliken charges =  -0.00000

 Dipole moment (field-independent basis, Debye):
    X=             -1.0834    Y=             -0.3394    Z=              0.0000  Tot=              1.1353
 Quadrupole moment (field-independent basis, Debye-Ang):
   XX=             -8.4454   YY=              6.2123   ZZ=            -14.7104
   XY=             -1.8375   XZ=              0.0000   YZ=              0.0000

 Normal termination of Gaussian 16 at Fri Aug 26 18:43:23 2022.
