 Gaussian 16, Revision A.03,
 Gaussian 16:  ES64L-G16RevA.03 25-Dec-2016

 ------------------
 #p CCSD(T)/cc-pVTZ
 ------------------

 ------------
 H2O_H2O_2251
 ------------
 Symbolic Z-matrix:
 Charge =  0 Multiplicity = 1

                         Standard orientation:
 ---------------------------------------------------------------------
 Center     Atomic      Atomic             Coordinates (Angstroms)
 Number     Number       Type             X           Y           Z
 ---------------------------------------------------------------------
      1          8           0        0.003735   -2.000099    0.000000
      2          1           0       -0.795927   -2.571102    0.000000
      3          1           0        0.803215   -2.571359    0.000000
      4          8           0        0.003735    2.000342    0.000000
      5          1           0        0.764341    2.622423    0.000000
      6          1           0       -0.831394    2.518091    0.000000
 ---------------------------------------------------------------------

 SCF Done:  E(RHF) =  -152.105098136     A.U. after   10 cycles
 E2 =    -0.5262932830D+00 EUMP2 =    -0.15263139141926D+03
 CCSD(T)
 CCSD(T)= -0.15265864141D+03

 The electronic state is 1-A'.
 Alpha  occ. eigenvalues --  -20.54563 -20.54560  -1.31852  -1.31838  -0.69270
 Alpha  occ. eigenvalues --   -0.69255  -0.55347  -0.54977  -0.48966  -0.48918
 Alpha virt. eigenvalues --    0.14226   0.15606   0.20637   0.21107   0.54390
 Alpha virt. eigenvalues --    0.56224   0.57898   0.58156   0.62320   0.74632
 Alpha virt. eigenvalues --    0.79539   0.80299   0.80859   0.81262   0.81946

 Mulliken charges:
               1
     1  O   -0.494019
     2  H    0.246716
     3  H    0.247307
     4  O   -0.494011
     5  H    0.246652
     6  H    0.247356
 Sum of Mulliken charges =  -0.00000

 Dipole moment (field-independent basis, Debye):
    X=             -0.1262    Y=             -0.0044    Z=              0.0000  Tot=              0.1263
 Quadrupole moment (field-independent basis, Debye-Ang):
   XX=             -7.8448   YY=              3.8489   ZZ=            -14.7093
   XY=             -0.1426   XZ=              0.0000   YZ=              0.0000

 Normal termination of Gaussian 16 at Sat Aug 27 09:27:27 2022.
