 Gaussian 16, Revision A.03,
 Gaussian 16:  ES64L-G16RevA.03 25-Dec-2016

 ------------------
 #p CCSD(T)/cc-pVTZ
 ------------------

 ------------
 H2O_H2O_2597
 ------------
 Symbolic Z-matrix:
 Charge =  0 Multiplicity = 1

                         Standard orientation:
 ---------------------------------------------------------------------
 Center     Atomic      Atomic             Coordinates (Angstroms)
 Number     Number       Type             X           Y           Z
 ---------------------------------------------------------------------
      1          8           0        0.056736   -2.119277    0.000000
      2          1           0       -0.744117   -2.688611    0.000000
      3          1           0        0.855021   -2.692205    0.000000
      4          8           0        0.056736    2.218340    0.000000
      5          1           0       -0.403195    3.086653    0.000000
      6          1           0       -0.615487    1.501665    0.000000
 ---------------------------------------------------------------------

 SCF Done:  E(RHF) =  -152.108174865     A.U. after   10 cycles
 E2 =    -0.5260394569D+00 EUMP2 =    -0.15263421432148D+03
 CCSD(T)
 CCSD(T)= -0.15266139471D+03

 The electronic state is 1-A'.
 Alpha  occ. eigenvalues --  -20.55896 -20.54531  -1.33179  -1.31829  -0.70586
 Alpha  occ. eigenvalues --   -0.69206  -0.56645  -0.55288  -0.50297  -0.48952
 Alpha virt. eigenvalues --    0.13124   0.15697   0.19908   0.22041   0.53994
 Alpha virt. eigenvalues --    0.54742   0.56984   0.58296   0.66416   0.72152
 Alpha virt. eigenvalues --    0.78582   0.79460   0.79912   0.80942   0.82498

 Mulliken charges:
               1
     1  O   -0.508230
     2  H    0.251605
     3  H    0.258333
     4  O   -0.511295
     5  H    0.248081
     6  H    0.261505
 Sum of Mulliken charges =  -0.00000

 Dipole moment (field-independent basis, Debye):
    X=             -1.9280    Y=             -1.7922    Z=              0.0000  Tot=              2.6323
 Quadrupole moment (field-independent basis, Debye-Ang):
   XX=             -9.8257   YY=             -0.3223   ZZ=            -14.7155
   XY=             -4.2436   XZ=              0.0000   YZ=              0.0000

 Normal termination of Gaussian 16 at Fri Aug 26 14:11:54 2022.
