 Gaussian 16, Revision A.03,
 Gaussian 16:  ES64L-G16RevA.03 25-Dec-2016

 ------------------
 #p CCSD(T)/cc-pVTZ
 ------------------

 ------------
 H2O_H2O_4497
 ------------
 Symbolic Z-matrix:
 Charge =  0 Multiplicity = 1

                         Standard orientation:
 ---------------------------------------------------------------------
 Center     Atomic      Atomic             Coordinates (Angstroms)
 Number     Number       Type             X           Y           Z
 ---------------------------------------------------------------------
      1          8           0        0.056701   -3.129724    0.000000
      2          1           0       -0.743745   -3.699630    0.000000
      3          1           0        0.855395   -3.702081    0.000000
      4          8           0        0.056701    3.228867    0.000000
      5          1           0       -0.403850    4.096853    0.000000
      6          1           0       -0.615011    2.511713    0.000000
 ---------------------------------------------------------------------

 SCF Done:  E(RHF) =  -152.107595828     A.U. after   10 cycles
 E2 =    -0.5258628418D+00 EUMP2 =    -0.15263345866972D+03
 CCSD(T)
 CCSD(T)= -0.15266067477D+03

 The electronic state is 1-A'.
 Alpha  occ. eigenvalues --  -20.55711 -20.55147  -1.33011  -1.32447  -0.70417
 Alpha  occ. eigenvalues --   -0.69846  -0.56467  -0.55898  -0.50124  -0.49561
 Alpha virt. eigenvalues --    0.13966   0.14553   0.20063   0.20668   0.54142
 Alpha virt. eigenvalues --    0.54726   0.57077   0.57640   0.67681   0.68315
 Alpha virt. eigenvalues --    0.78756   0.79310   0.80183   0.80768   0.82129

 Mulliken charges:
               1
     1  O   -0.510006
     2  H    0.253833
     3  H    0.256175
     4  O   -0.509666
     5  H    0.252385
     6  H    0.257279
 Sum of Mulliken charges =  -0.00000

 Dipole moment (field-independent basis, Debye):
    X=             -1.9492    Y=             -1.7324    Z=              0.0000  Tot=              2.6078
 Quadrupole moment (field-independent basis, Debye-Ang):
   XX=             -9.8282   YY=              4.2472   ZZ=            -14.7125
   XY=             -6.1886   XZ=              0.0000   YZ=              0.0000

 Normal termination of Gaussian 16 at Sat Aug 27 07:39:25 2022.
