 Gaussian 16, Revision A.03,
 Gaussian 16:  ES64L-G16RevA.03 25-Dec-2016

 ------------------
 #p CCSD(T)/cc-pVTZ
 ------------------

 ------------
 H2O_H2O_1605
 ------------
 Symbolic Z-matrix:
 Charge =  0 Multiplicity = 1

                         Standard orientation:
 ---------------------------------------------------------------------
 Center     Atomic      Atomic             Coordinates (Angstroms)
 Number     Number       Type             X           Y           Z
 ---------------------------------------------------------------------
      1          8           0        0.018361   -1.651263    0.000000
      2          1           0       -0.781755   -2.221631    0.000000
      3          1           0        0.817386   -2.223159    0.000000
      4          8           0        0.018361    1.657290    0.000000
      5          1           0        0.592677    2.454578    0.000000
      6          1           0       -0.922089    1.941998    0.000000
 ---------------------------------------------------------------------

 SCF Done:  E(RHF) =  -152.103509918     A.U. after   10 cycles
 E2 =    -0.5268839337D+00 EUMP2 =    -0.15263039385186D+03
 CCSD(T)
 CCSD(T)= -0.15265765572D+03

 The electronic state is 1-A'.
 Alpha  occ. eigenvalues --  -20.54244 -20.54115  -1.31544  -1.31376  -0.68968
 Alpha  occ. eigenvalues --   -0.68804  -0.55411  -0.53956  -0.48689  -0.48411
 Alpha virt. eigenvalues --    0.14224   0.16342   0.20546   0.21649   0.52735
 Alpha virt. eigenvalues --    0.57764   0.58132   0.58565   0.62859   0.76452
 Alpha virt. eigenvalues --    0.78541   0.78685   0.79845   0.81764   0.85055

 Mulliken charges:
               1
     1  O   -0.481247
     2  H    0.238385
     3  H    0.243119
     4  O   -0.480873
     5  H    0.237768
     6  H    0.242848
 Sum of Mulliken charges =   0.00000

 Dipole moment (field-independent basis, Debye):
    X=             -0.6091    Y=             -0.1127    Z=              0.0000  Tot=              0.6194
 Quadrupole moment (field-independent basis, Debye-Ang):
   XX=             -8.0776   YY=              0.7980   ZZ=            -14.7093
   XY=             -0.5239   XZ=              0.0000   YZ=              0.0000

 Normal termination of Gaussian 16 at Sat Aug 27 05:43:52 2022.
