 Gaussian 16, Revision A.03,
 Gaussian 16:  ES64L-G16RevA.03 25-Dec-2016

 ------------------
 #p CCSD(T)/cc-pVTZ
 ------------------

 ------------
 H2O_H2O_3698
 ------------
 Symbolic Z-matrix:
 Charge =  0 Multiplicity = 1

                         Standard orientation:
 ---------------------------------------------------------------------
 Center     Atomic      Atomic             Coordinates (Angstroms)
 Number     Number       Type             X           Y           Z
 ---------------------------------------------------------------------
      1          8           0        0.057086   -2.700231    0.000000
      2          1           0       -0.743501   -3.269937    0.000000
      3          1           0        0.855638   -3.272786    0.000000
      4          8           0        0.057086    2.806783    0.000000
      5          1           0       -0.459040    3.642917    0.000000
      6          1           0       -0.566472    2.047387    0.000000
 ---------------------------------------------------------------------

 SCF Done:  E(RHF) =  -152.107788280     A.U. after   10 cycles
 E2 =    -0.5258727557D+00 EUMP2 =    -0.15263366103605D+03
 CCSD(T)
 CCSD(T)= -0.15266087051D+03

 The electronic state is 1-A'.
 Alpha  occ. eigenvalues --  -20.55794 -20.54964  -1.33094  -1.32265  -0.70499
 Alpha  occ. eigenvalues --   -0.69658  -0.56558  -0.55720  -0.50208  -0.49381
 Alpha virt. eigenvalues --    0.13728   0.14853   0.19994   0.20949   0.54044
 Alpha virt. eigenvalues --    0.54871   0.57010   0.57789   0.67243   0.68858
 Alpha virt. eigenvalues --    0.78676   0.79483   0.80071   0.80533   0.82619

 Mulliken charges:
               1
     1  O   -0.511035
     2  H    0.253787
     3  H    0.257324
     4  O   -0.510449
     5  H    0.251375
     6  H    0.258998
 Sum of Mulliken charges =  -0.00000

 Dipole moment (field-independent basis, Debye):
    X=             -1.9576    Y=             -1.8759    Z=              0.0000  Tot=              2.7113
 Quadrupole moment (field-independent basis, Debye-Ang):
   XX=             -9.8540   YY=              1.6225   ZZ=            -14.7132
   XY=             -5.5335   XZ=              0.0000   YZ=              0.0000

 Normal termination of Gaussian 16 at Sat Aug 27 02:35:09 2022.
