 Gaussian 16, Revision A.03,
 Gaussian 16:  ES64L-G16RevA.03 25-Dec-2016

 ------------------
 #p CCSD(T)/cc-pVTZ
 ------------------

 ------------
 H2O_H2O_4430
 ------------
 Symbolic Z-matrix:
 Charge =  0 Multiplicity = 1

                         Standard orientation:
 ---------------------------------------------------------------------
 Center     Atomic      Atomic             Coordinates (Angstroms)
 Number     Number       Type             X           Y           Z
 ---------------------------------------------------------------------
      1          8           0        0.018360   -3.153693    0.000000
      2          1           0       -0.781497   -3.724424    0.000000
      3          1           0        0.817645   -3.725225    0.000000
      4          8           0        0.018360    3.159736    0.000000
      5          1           0        0.592313    3.957285    0.000000
      6          1           0       -0.922220    3.444015    0.000000
 ---------------------------------------------------------------------

 SCF Done:  E(RHF) =  -152.106858636     A.U. after   10 cycles
 E2 =    -0.5259269464D+00 EUMP2 =    -0.15263278558229D+03
 CCSD(T)
 CCSD(T)= -0.15266001742D+03

 The electronic state is 1-A'.
 Alpha  occ. eigenvalues --  -20.55219 -20.55184  -1.32515  -1.32480  -0.69922
 Alpha  occ. eigenvalues --   -0.69886  -0.55937  -0.55902  -0.49623  -0.49588
 Alpha virt. eigenvalues --    0.14407   0.14453   0.20457   0.20496   0.54646
 Alpha virt. eigenvalues --    0.54685   0.57516   0.57552   0.68279   0.68348
 Alpha virt. eigenvalues --    0.79256   0.79291   0.80699   0.80738   0.82627

 Mulliken charges:
               1
     1  O   -0.505626
     2  H    0.252395
     3  H    0.253230
     4  O   -0.505590
     5  H    0.252201
     6  H    0.253389
 Sum of Mulliken charges =  -0.00000

 Dipole moment (field-independent basis, Debye):
    X=             -0.6308    Y=             -0.1055    Z=              0.0000  Tot=              0.6395
 Quadrupole moment (field-independent basis, Debye-Ang):
   XX=             -8.0151   YY=             12.7555   ZZ=            -14.7107
   XY=             -1.4508   XZ=              0.0000   YZ=              0.0000

 Normal termination of Gaussian 16 at Sat Aug 27 07:16:37 2022.
