 Gaussian 16, Revision A.03,
 Gaussian 16:  ES64L-G16RevA.03 25-Dec-2016

 ------------------
 #p CCSD(T)/cc-pVTZ
 ------------------

 ------------
 H2O_H2O_1419
 ------------
 Symbolic Z-matrix:
 Charge =  0 Multiplicity = 1

                         Standard orientation:
 ---------------------------------------------------------------------
 Center     Atomic      Atomic             Coordinates (Angstroms)
 Number     Number       Type             X           Y           Z
 ---------------------------------------------------------------------
      1          8           0        0.054199   -1.506249    0.000000
      2          1           0       -0.747090   -2.074969    0.000000
      3          1           0        0.852045   -2.079788    0.000000
      4          8           0        0.054199    1.583432    0.000000
      5          1           0       -0.226774    2.525006    0.000000
      6          1           0       -0.745362    1.012285    0.000000
 ---------------------------------------------------------------------

 SCF Done:  E(RHF) =  -152.107139081     A.U. after   10 cycles
 E2 =    -0.5272006388D+00 EUMP2 =    -0.15263433971938D+03
 CCSD(T)
 CCSD(T)= -0.15266148472D+03

 The electronic state is 1-A'.
 Alpha  occ. eigenvalues --  -20.55762 -20.53576  -1.33066  -1.30849  -0.70481
 Alpha  occ. eigenvalues --   -0.68281  -0.56434  -0.54237  -0.50182  -0.47968
 Alpha virt. eigenvalues --    0.13385   0.16961   0.19857   0.23831   0.53710
 Alpha virt. eigenvalues --    0.55533   0.57076   0.58353   0.67417   0.75621
 Alpha virt. eigenvalues --    0.76573   0.76851   0.79850   0.81901   0.84652

 Mulliken charges:
               1
     1  O   -0.488096
     2  H    0.240703
     3  H    0.255329
     4  O   -0.500209
     5  H    0.234470
     6  H    0.257804
 Sum of Mulliken charges =  -0.00000

 Dipole moment (field-independent basis, Debye):
    X=             -1.7753    Y=             -1.4908    Z=              0.0000  Tot=              2.3182
 Quadrupole moment (field-independent basis, Debye-Ang):
   XX=             -9.6646   YY=             -2.3029   ZZ=            -14.7213
   XY=             -2.5581   XZ=              0.0000   YZ=              0.0000

 Normal termination of Gaussian 16 at Sat Aug 27 04:39:04 2022.
