 Gaussian 16, Revision A.03,
 Gaussian 16:  ES64L-G16RevA.03 25-Dec-2016

 ------------------
 #p CCSD(T)/cc-pVTZ
 ------------------

 -----------
 H2O_H2O_723
 -----------
 Symbolic Z-matrix:
 Charge =  0 Multiplicity = 1

                         Standard orientation:
 ---------------------------------------------------------------------
 Center     Atomic      Atomic             Coordinates (Angstroms)
 Number     Number       Type             X           Y           Z
 ---------------------------------------------------------------------
      1          8           0        0.057214   -1.118161    0.000000
      2          1           0       -0.744742   -1.685939    0.000000
      3          1           0        0.854386   -1.692637    0.000000
      4          8           0        0.057214    1.224438    0.000000
      5          1           0       -0.456898    2.061812    0.000000
      6          1           0       -0.568170    0.466545    0.000000
 ---------------------------------------------------------------------

 SCF Done:  E(RHF) =  -152.092906470     A.U. after   11 cycles
 E2 =    -0.5319637233D+00 EUMP2 =    -0.15262487019330D+03
 CCSD(T)
 CCSD(T)= -0.15265159614D+03

 The electronic state is 1-A'.
 Alpha  occ. eigenvalues --  -20.56962 -20.51068  -1.35262  -1.28715  -0.72569
 Alpha  occ. eigenvalues --   -0.69021  -0.55408  -0.52376  -0.52104  -0.45740
 Alpha virt. eigenvalues --    0.12901   0.18575   0.19216   0.27028   0.50034
 Alpha virt. eigenvalues --    0.55576   0.61187   0.63342   0.71572   0.73553
 Alpha virt. eigenvalues --    0.76243   0.82254   0.83400   0.83535   0.86827

 Mulliken charges:
               1
     1  O   -0.439814
     2  H    0.227389
     3  H    0.250256
     4  O   -0.517357
     5  H    0.212983
     6  H    0.266543
 Sum of Mulliken charges =  -0.00000

 Dipole moment (field-independent basis, Debye):
    X=             -1.7581    Y=             -2.3591    Z=              0.0000  Tot=              2.9421
 Quadrupole moment (field-independent basis, Debye-Ang):
   XX=             -9.8440   YY=             -5.7984   ZZ=            -14.6995
   XY=             -2.5212   XZ=              0.0000   YZ=              0.0000

 Normal termination of Gaussian 16 at Fri Aug 26 19:26:21 2022.
