 Gaussian 16, Revision A.03,
 Gaussian 16:  ES64L-G16RevA.03 25-Dec-2016

 ------------------
 #p CCSD(T)/cc-pVTZ
 ------------------

 ------------
 H2O_H2O_2611
 ------------
 Symbolic Z-matrix:
 Charge =  0 Multiplicity = 1

                         Standard orientation:
 ---------------------------------------------------------------------
 Center     Atomic      Atomic             Coordinates (Angstroms)
 Number     Number       Type             X           Y           Z
 ---------------------------------------------------------------------
      1          8           0        0.037678   -2.171039    0.000000
      2          1           0       -0.762739   -2.740984    0.000000
      3          1           0        0.836401   -2.743356    0.000000
      4          8           0        0.037678    2.199273    0.000000
      5          1           0        0.263673    3.155533    0.000000
      6          1           0       -0.940190    2.102929    0.000000
 ---------------------------------------------------------------------

 SCF Done:  E(RHF) =  -152.106231323     A.U. after   10 cycles
 E2 =    -0.5261047120D+00 EUMP2 =    -0.15263233603487D+03
 CCSD(T)
 CCSD(T)= -0.15265957018D+03

 The electronic state is 1-A'.
 Alpha  occ. eigenvalues --  -20.55038 -20.54683  -1.32327  -1.31969  -0.69739
 Alpha  occ. eigenvalues --   -0.69368  -0.55720  -0.55347  -0.49431  -0.49075
 Alpha virt. eigenvalues --    0.13984   0.15373   0.20409   0.21120   0.54300
 Alpha virt. eigenvalues --    0.55261   0.57644   0.57988   0.65424   0.72692
 Alpha virt. eigenvalues --    0.79395   0.79843   0.80679   0.81387   0.82667

 Mulliken charges:
               1
     1  O   -0.501366
     2  H    0.248390
     3  H    0.253154
     4  O   -0.500977
     5  H    0.247086
     6  H    0.253713
 Sum of Mulliken charges =   0.00000

 Dipole moment (field-independent basis, Debye):
    X=             -1.2803    Y=             -0.5054    Z=              0.0000  Tot=              1.3764
 Quadrupole moment (field-independent basis, Debye-Ang):
   XX=             -8.7071   YY=              4.0848   ZZ=            -14.7108
   XY=             -2.0014   XZ=              0.0000   YZ=              0.0000

 Normal termination of Gaussian 16 at Fri Aug 26 14:19:39 2022.
