 Gaussian 16, Revision A.03,
 Gaussian 16:  ES64L-G16RevA.03 25-Dec-2016

 ------------------
 #p CCSD(T)/cc-pVTZ
 ------------------

 ------------
 H2O_H2O_3050
 ------------
 Symbolic Z-matrix:
 Charge =  0 Multiplicity = 1

                         Standard orientation:
 ---------------------------------------------------------------------
 Center     Atomic      Atomic             Coordinates (Angstroms)
 Number     Number       Type             X           Y           Z
 ---------------------------------------------------------------------
      1          8           0        0.000000   -0.000000    2.425700
      2          1           0        0.000000    0.799571    2.996832
      3          1           0       -0.000000   -0.799571    2.996832
      4          8           0        0.000000   -0.000000   -2.425700
      5          1           0       -0.000000   -0.799571   -2.996832
      6          1           0        0.000000    0.799571   -2.996832
 ---------------------------------------------------------------------

 SCF Done:  E(RHF) =  -152.106036281     A.U. after   10 cycles
 E2 =    -0.5260428794D+00 EUMP2 =    -0.15263207916047D+03
 CCSD(T)
 CCSD(T)= -0.15265932556D+03

 The electronic state is 1-AG.
 Alpha  occ. eigenvalues --  -20.54878 -20.54878  -1.32171  -1.32170  -0.69582
 Alpha  occ. eigenvalues --   -0.69580  -0.55572  -0.55528  -0.49274  -0.49270
 Alpha virt. eigenvalues --    0.14430   0.14932   0.20611   0.20766   0.54850
 Alpha virt. eigenvalues --    0.55138   0.57756   0.57832   0.67097   0.70350
 Alpha virt. eigenvalues --    0.79570   0.79635   0.81013   0.81111   0.82615

 Mulliken charges:
               1
     1  O   -0.500786
     2  H    0.250393
     3  H    0.250393
     4  O   -0.500786
     5  H    0.250393
     6  H    0.250393
 Sum of Mulliken charges =   0.00000

 Dipole moment (field-independent basis, Debye):
    X=             -0.0000    Y=              0.0000    Z=              0.0000  Tot=              0.0000
 Quadrupole moment (field-independent basis, Debye-Ang):
   XX=            -14.7097   YY=             -7.8167   ZZ=              7.3327
   XY=              0.0000   XZ=              0.0000   YZ=             -0.0000

 6\MP4DQ=-152.641197\MP4SDQ=-152.6442649\CCSD=-152.6436735\CCSD(T)=-152
 Normal termination of Gaussian 16 at Fri Aug 26 18:52:56 2022.
