 Gaussian 16, Revision A.03,
 Gaussian 16:  ES64L-G16RevA.03 25-Dec-2016

 ------------------
 #p CCSD(T)/cc-pVTZ
 ------------------

 ------------
 H2O_H2O_1666
 ------------
 Symbolic Z-matrix:
 Charge =  0 Multiplicity = 1

                         Standard orientation:
 ---------------------------------------------------------------------
 Center     Atomic      Atomic             Coordinates (Angstroms)
 Number     Number       Type             X           Y           Z
 ---------------------------------------------------------------------
      1          8           0        0.049534   -1.650245    0.000000
      2          1           0       -0.751483   -2.219347    0.000000
      3          1           0        0.847653   -2.223403    0.000000
      4          8           0        0.049534    1.707107    0.000000
      5          1           0       -0.042814    2.685359    0.000000
      6          1           0       -0.845895    1.302494    0.000000
 ---------------------------------------------------------------------

 SCF Done:  E(RHF) =  -152.106392431     A.U. after   10 cycles
 E2 =    -0.5267536100D+00 EUMP2 =    -0.15263314604125D+03
 CCSD(T)
 CCSD(T)= -0.15266033146D+03

 The electronic state is 1-A'.
 Alpha  occ. eigenvalues --  -20.55301 -20.53992  -1.32579  -1.31256  -0.70000
 Alpha  occ. eigenvalues --   -0.68637  -0.56006  -0.54556  -0.49692  -0.48369
 Alpha virt. eigenvalues --    0.13581   0.16502   0.20090   0.22690   0.54120
 Alpha virt. eigenvalues --    0.54797   0.57434   0.58519   0.64890   0.76497
 Alpha virt. eigenvalues --    0.78005   0.78392   0.78538   0.81361   0.85022

 Mulliken charges:
               1
     1  O   -0.490704
     2  H    0.241410
     3  H    0.252822
     4  O   -0.496023
     5  H    0.237451
     6  H    0.255044
 Sum of Mulliken charges =  -0.00000

 Dipole moment (field-independent basis, Debye):
    X=             -1.6423    Y=             -1.0703    Z=              0.0000  Tot=              1.9603
 Quadrupole moment (field-independent basis, Debye-Ang):
   XX=             -9.3662   YY=             -0.6369   ZZ=            -14.7156
   XY=             -2.2378   XZ=              0.0000   YZ=              0.0000

 Normal termination of Gaussian 16 at Sat Aug 27 06:06:32 2022.
