 Gaussian 16, Revision A.03,
 Gaussian 16:  ES64L-G16RevA.03 25-Dec-2016

 ------------------
 #p CCSD(T)/cc-pVTZ
 ------------------

 -----------
 H2O_H2O_883
 -----------
 Symbolic Z-matrix:
 Charge =  0 Multiplicity = 1

                         Standard orientation:
 ---------------------------------------------------------------------
 Center     Atomic      Atomic             Coordinates (Angstroms)
 Number     Number       Type             X           Y           Z
 ---------------------------------------------------------------------
      1          8           0        0.028571   -1.260703    0.000000
      2          1           0       -0.772105   -1.830284    0.000000
      3          1           0        0.827034   -1.833384    0.000000
      4          8           0        0.028571    1.275896    0.000000
      5          1           0        0.437188    2.169506    0.000000
      6          1           0       -0.949258    1.372620    0.000000
 ---------------------------------------------------------------------

 SCF Done:  E(RHF) =  -152.095161416     A.U. after   11 cycles
 E2 =    -0.5290020368D+00 EUMP2 =    -0.15262416345268D+03
 CCSD(T)
 CCSD(T)= -0.15265143462D+03

 The electronic state is 1-A'.
 Alpha  occ. eigenvalues --  -20.53594 -20.53138  -1.31313  -1.30313  -0.68650
 Alpha  occ. eigenvalues --   -0.67884  -0.56716  -0.50907  -0.48578  -0.47141
 Alpha virt. eigenvalues --    0.14329   0.17323   0.20456   0.22606   0.51956
 Alpha virt. eigenvalues --    0.58489   0.58686   0.61733   0.70787   0.76443
 Alpha virt. eigenvalues --    0.76857   0.79088   0.83711   0.84615   0.86150

 Mulliken charges:
               1
     1  O   -0.466964
     2  H    0.226739
     3  H    0.239220
     4  O   -0.454315
     5  H    0.218141
     6  H    0.237179
 Sum of Mulliken charges =  -0.00000

 Dipole moment (field-independent basis, Debye):
    X=             -0.8977    Y=             -0.2942    Z=              0.0000  Tot=              0.9447
 Quadrupole moment (field-independent basis, Debye-Ang):
   XX=             -8.4602   YY=             -2.7900   ZZ=            -14.7227
   XY=             -0.5458   XZ=              0.0000   YZ=              0.0000

 Normal termination of Gaussian 16 at Fri Aug 26 20:50:46 2022.
