 Gaussian 16, Revision A.03,
 Gaussian 16:  ES64L-G16RevA.03 25-Dec-2016

 ------------------
 #p CCSD(T)/cc-pVTZ
 ------------------

 -----------
 H2O_H2O_905
 -----------
 Symbolic Z-matrix:
 Charge =  0 Multiplicity = 1

                         Standard orientation:
 ---------------------------------------------------------------------
 Center     Atomic      Atomic             Coordinates (Angstroms)
 Number     Number       Type             X           Y           Z
 ---------------------------------------------------------------------
      1          8           0        0.018362   -1.278984    0.000000
      2          1           0       -0.781912   -1.849129    0.000000
      3          1           0        0.817228   -1.851101    0.000000
      4          8           0        0.018362    1.285000    0.000000
      5          1           0        0.592899    2.082128    0.000000
      6          1           0       -0.922009    1.569968    0.000000
 ---------------------------------------------------------------------

 SCF Done:  E(RHF) =  -152.094812164     A.U. after   11 cycles
 E2 =    -0.5288561200D+00 EUMP2 =    -0.15262366828367D+03
 CCSD(T)
 CCSD(T)= -0.15265096638D+03

 The electronic state is 1-A'.
 Alpha  occ. eigenvalues --  -20.53357 -20.53183  -1.31115  -1.30325  -0.68438
 Alpha  occ. eigenvalues --   -0.67878  -0.56687  -0.50740  -0.48395  -0.47128
 Alpha virt. eigenvalues --    0.14429   0.17340   0.20536   0.22374   0.51086
 Alpha virt. eigenvalues --    0.58675   0.58846   0.62270   0.71935   0.76649
 Alpha virt. eigenvalues --    0.76724   0.79167   0.83253   0.83804   0.86346

 Mulliken charges:
               1
     1  O   -0.464161
     2  H    0.227581
     3  H    0.235784
     4  O   -0.457518
     5  H    0.223921
     6  H    0.234392
 Sum of Mulliken charges =  -0.00000

 Dipole moment (field-independent basis, Debye):
    X=             -0.5793    Y=             -0.1160    Z=              0.0000  Tot=              0.5908
 Quadrupole moment (field-independent basis, Debye-Ang):
   XX=             -8.1700   YY=             -2.5676   ZZ=            -14.7217
   XY=             -0.3086   XZ=              0.0000   YZ=              0.0000

 Normal termination of Gaussian 16 at Fri Aug 26 21:04:57 2022.
