 Gaussian 16, Revision A.03,
 Gaussian 16:  ES64L-G16RevA.03 25-Dec-2016

 ------------------
 #p CCSD(T)/cc-pVTZ
 ------------------

 ------------
 H2O_H2O_1857
 ------------
 Symbolic Z-matrix:
 Charge =  0 Multiplicity = 1

                         Standard orientation:
 ---------------------------------------------------------------------
 Center     Atomic      Atomic             Coordinates (Angstroms)
 Number     Number       Type             X           Y           Z
 ---------------------------------------------------------------------
      1          8           0        0.025268   -1.781131    0.000000
      2          1           0       -0.774998   -2.351290    0.000000
      3          1           0        0.824143   -2.353236    0.000000
      4          8           0        0.025268    1.792849    0.000000
      5          1           0        0.490829    2.658159    0.000000
      6          1           0       -0.944258    1.952621    0.000000
 ---------------------------------------------------------------------

 SCF Done:  E(RHF) =  -152.104668567     A.U. after   10 cycles
 E2 =    -0.5265823013D+00 EUMP2 =    -0.15263125086854D+03
 CCSD(T)
 CCSD(T)= -0.15265849270D+03

 The electronic state is 1-A'.
 Alpha  occ. eigenvalues --  -20.54525 -20.54303  -1.31806  -1.31573  -0.69228
 Alpha  occ. eigenvalues --   -0.68986  -0.55396  -0.54548  -0.48917  -0.48655
 Alpha virt. eigenvalues --    0.14079   0.16071   0.20514   0.21500   0.53238
 Alpha virt. eigenvalues --    0.56457   0.57986   0.58384   0.62273   0.76171
 Alpha virt. eigenvalues --    0.79021   0.79359   0.80586   0.81025   0.83585

 Mulliken charges:
               1
     1  O   -0.488328
     2  H    0.241715
     3  H    0.247017
     4  O   -0.488390
     5  H    0.240755
     6  H    0.247231
 Sum of Mulliken charges =  -0.00000

 Dipole moment (field-independent basis, Debye):
    X=             -0.8454    Y=             -0.2168    Z=              0.0000  Tot=              0.8727
 Quadrupole moment (field-independent basis, Debye-Ang):
   XX=             -8.2466   YY=              1.7416   ZZ=            -14.7098
   XY=             -0.8756   XZ=              0.0000   YZ=              0.0000

 Normal termination of Gaussian 16 at Sat Aug 27 07:12:15 2022.
