 Gaussian 16, Revision A.03,
 Gaussian 16:  ES64L-G16RevA.03 25-Dec-2016

 ------------------
 #p CCSD(T)/cc-pVTZ
 ------------------

 ------------
 H2O_H2O_2105
 ------------
 Symbolic Z-matrix:
 Charge =  0 Multiplicity = 1

                         Standard orientation:
 ---------------------------------------------------------------------
 Center     Atomic      Atomic             Coordinates (Angstroms)
 Number     Number       Type             X           Y           Z
 ---------------------------------------------------------------------
      1          8           0        0.018361   -1.917179    0.000000
      2          1           0       -0.781680   -2.487653    0.000000
      3          1           0        0.817462   -2.488969    0.000000
      4          8           0        0.018361    1.923211    0.000000
      5          1           0        0.592571    2.720575    0.000000
      6          1           0       -0.922127    2.207793    0.000000
 ---------------------------------------------------------------------

 SCF Done:  E(RHF) =  -152.105015959     A.U. after   10 cycles
 E2 =    -0.5263797959D+00 EUMP2 =    -0.15263139575530D+03
 CCSD(T)
 CCSD(T)= -0.15265864075D+03

 The electronic state is 1-A'.
 Alpha  occ. eigenvalues --  -20.54570 -20.54471  -1.31852  -1.31749  -0.69272
 Alpha  occ. eigenvalues --   -0.69164  -0.55362  -0.54855  -0.48959  -0.48837
 Alpha virt. eigenvalues --    0.14135   0.15780   0.20581   0.21246   0.53922
 Alpha virt. eigenvalues --    0.56277   0.57919   0.58226   0.62016   0.75237
 Alpha virt. eigenvalues --    0.79391   0.80256   0.80513   0.81085   0.82514

 Mulliken charges:
               1
     1  O   -0.492517
     2  H    0.244712
     3  H    0.247928
     4  O   -0.492426
     5  H    0.244192
     6  H    0.248109
 Sum of Mulliken charges =  -0.00000

 Dipole moment (field-independent basis, Debye):
    X=             -0.6185    Y=             -0.1102    Z=              0.0000  Tot=              0.6282
 Quadrupole moment (field-independent basis, Debye-Ang):
   XX=             -8.0499   YY=              2.9980   ZZ=            -14.7095
   XY=             -0.6850   XZ=              0.0000   YZ=              0.0000

 Normal termination of Gaussian 16 at Sat Aug 27 08:37:04 2022.
