 Gaussian 16, Revision A.03,
 Gaussian 16:  ES64L-G16RevA.03 25-Dec-2016

 ------------------
 #p CCSD(T)/cc-pVTZ
 ------------------

 ------------
 H2O_H2O_2565
 ------------
 Symbolic Z-matrix:
 Charge =  0 Multiplicity = 1

                         Standard orientation:
 ---------------------------------------------------------------------
 Center     Atomic      Atomic             Coordinates (Angstroms)
 Number     Number       Type             X           Y           Z
 ---------------------------------------------------------------------
      1          8           0        0.047536   -2.132308    0.000000
      2          1           0       -0.753116   -2.701924    0.000000
      3          1           0        0.846023   -2.704954    0.000000
      4          8           0        0.047536    2.182893    0.000000
      5          1           0        0.018736    3.165073    0.000000
      6          1           0       -0.872218    1.837120    0.000000
 ---------------------------------------------------------------------

 SCF Done:  E(RHF) =  -152.106775950     A.U. after   10 cycles
 E2 =    -0.5260928610D+00 EUMP2 =    -0.15263286881110D+03
 CCSD(T)
 CCSD(T)= -0.15266008703D+03

 The electronic state is 1-A'.
 Alpha  occ. eigenvalues --  -20.55296 -20.54623  -1.32584  -1.31910  -0.69995
 Alpha  occ. eigenvalues --   -0.69299  -0.55993  -0.55319  -0.49691  -0.49022
 Alpha virt. eigenvalues --    0.13679   0.15514   0.20234   0.21380   0.54045
 Alpha virt. eigenvalues --    0.54991   0.57456   0.58057   0.65674   0.73131
 Alpha virt. eigenvalues --    0.79151   0.79880   0.80192   0.81819   0.83287

 Mulliken charges:
               1
     1  O   -0.503578
     2  H    0.248964
     3  H    0.255129
     4  O   -0.503820
     5  H    0.246873
     6  H    0.256432
 Sum of Mulliken charges =  -0.00000

 Dipole moment (field-independent basis, Debye):
    X=             -1.6142    Y=             -0.9095    Z=              0.0000  Tot=              1.8528
 Quadrupole moment (field-independent basis, Debye-Ang):
   XX=             -9.2294   YY=              2.7132   ZZ=            -14.7121
   XY=             -2.8146   XZ=              0.0000   YZ=              0.0000

 Normal termination of Gaussian 16 at Fri Aug 26 13:47:39 2022.
