 Gaussian 16, Revision A.03,
 Gaussian 16:  ES64L-G16RevA.03 25-Dec-2016

 ------------------
 #p CCSD(T)/cc-pVTZ
 ------------------

 -----------
 H2O_H2O_114
 -----------
 Symbolic Z-matrix:
 Charge =  0 Multiplicity = 1

                         Standard orientation:
 ---------------------------------------------------------------------
 Center     Atomic      Atomic             Coordinates (Angstroms)
 Number     Number       Type             X           Y           Z
 ---------------------------------------------------------------------
      1          8           0        0.045412   -0.832730    0.000000
      2          1           0       -0.756756   -1.400208    0.000000
      3          1           0        0.842369   -1.407504    0.000000
      4          8           0        0.045412    0.877006    0.000000
      5          1           0        0.083532    1.858868    0.000000
      6          1           0       -0.895744    0.594638    0.000000
 ---------------------------------------------------------------------

 SCF Done:  E(RHF) =  -151.971290648     A.U. after   12 cycles
 E2 =    -0.5454966264D+00 EUMP2 =    -0.15251678727396D+03
 CCSD(T)
 CCSD(T)= -0.15254233955D+03

 The electronic state is 1-A'.
 Alpha  occ. eigenvalues --  -20.52980 -20.51224  -1.36909  -1.26979  -0.73546
 Alpha  occ. eigenvalues --   -0.69639  -0.58276  -0.52728  -0.43720  -0.39940
 Alpha virt. eigenvalues --    0.13951   0.18970   0.19721   0.23983   0.52748
 Alpha virt. eigenvalues --    0.56590   0.58808   0.65481   0.73177   0.77217
 Alpha virt. eigenvalues --    0.81348   0.81878   0.82281   0.84092   0.88924

 Mulliken charges:
               1
     1  O   -0.358976
     2  H    0.166412
     3  H    0.200900
     4  O   -0.361433
     5  H    0.118742
     6  H    0.234355
 Sum of Mulliken charges =  -0.00000

 Dipole moment (field-independent basis, Debye):
    X=             -1.2184    Y=             -1.0022    Z=              0.0000  Tot=              1.5777
 Quadrupole moment (field-independent basis, Debye-Ang):
   XX=             -9.3404   YY=             -8.1309   ZZ=            -14.6551
   XY=             -0.7207   XZ=              0.0000   YZ=              0.0000

 Normal termination of Gaussian 16 at Fri Aug 26 12:53:40 2022.
