 Gaussian 16, Revision A.03,
 Gaussian 16:  ES64L-G16RevA.03 25-Dec-2016

 ------------------
 #p CCSD(T)/cc-pVTZ
 ------------------

 ------------
 H2O_H2O_4270
 ------------
 Symbolic Z-matrix:
 Charge =  0 Multiplicity = 1

                         Standard orientation:
 ---------------------------------------------------------------------
 Center     Atomic      Atomic             Coordinates (Angstroms)
 Number     Number       Type             X           Y           Z
 ---------------------------------------------------------------------
      1          8           0        0.055233   -3.018018    0.000000
      2          1           0       -0.745224   -3.587908    0.000000
      3          1           0        0.853916   -3.590390    0.000000
      4          8           0        0.055233    3.102509    0.000000
      5          1           0       -0.288066    4.023189    0.000000
      6          1           0       -0.704350    2.479180    0.000000
 ---------------------------------------------------------------------

 SCF Done:  E(RHF) =  -152.107485914     A.U. after   10 cycles
 E2 =    -0.5258767287D+00 EUMP2 =    -0.15263336264261D+03
 CCSD(T)
 CCSD(T)= -0.15266058078D+03

 The electronic state is 1-A'.
 Alpha  occ. eigenvalues --  -20.55638 -20.55114  -1.32937  -1.32412  -0.70343
 Alpha  occ. eigenvalues --   -0.69811  -0.56388  -0.55860  -0.50049  -0.49526
 Alpha virt. eigenvalues --    0.14018   0.14586   0.20120   0.20688   0.54215
 Alpha virt. eigenvalues --    0.54763   0.57142   0.57665   0.67743   0.68385
 Alpha virt. eigenvalues --    0.78831   0.79345   0.80260   0.80796   0.82224

 Mulliken charges:
               1
     1  O   -0.509362
     2  H    0.253371
     3  H    0.255994
     4  O   -0.509023
     5  H    0.251961
     6  H    0.257059
 Sum of Mulliken charges =  -0.00000

 Dipole moment (field-independent basis, Debye):
    X=             -1.8976    Y=             -1.4784    Z=              0.0000  Tot=              2.4055
 Quadrupole moment (field-independent basis, Debye-Ang):
   XX=             -9.7239   YY=              5.1972   ZZ=            -14.7123
   XY=             -5.5490   XZ=              0.0000   YZ=              0.0000

 Normal termination of Gaussian 16 at Sat Aug 27 06:21:54 2022.
