 Gaussian 16, Revision A.03,
 Gaussian 16:  ES64L-G16RevA.03 25-Dec-2016

 ------------------
 #p CCSD(T)/cc-pVTZ
 ------------------

 ------------
 H2O_H2O_1042
 ------------
 Symbolic Z-matrix:
 Charge =  0 Multiplicity = 1

                         Standard orientation:
 ---------------------------------------------------------------------
 Center     Atomic      Atomic             Coordinates (Angstroms)
 Number     Number       Type             X           Y           Z
 ---------------------------------------------------------------------
      1          8           0        0.051327   -1.314312    0.000000
      2          1           0       -0.750110   -1.882821    0.000000
      3          1           0        0.849023   -1.888060    0.000000
      4          8           0        0.051327    1.377681    0.000000
      5          1           0       -0.104086    2.347914    0.000000
      6          1           0       -0.816064    0.916012    0.000000
 ---------------------------------------------------------------------

 SCF Done:  E(RHF) =  -152.102945372     A.U. after   10 cycles
 E2 =    -0.5283929307D+00 EUMP2 =    -0.15263133830293D+03
 CCSD(T)
 CCSD(T)= -0.15265849826D+03

 The electronic state is 1-A'.
 Alpha  occ. eigenvalues --  -20.55275 -20.53119  -1.32740  -1.30375  -0.70152
 Alpha  occ. eigenvalues --   -0.68025  -0.56179  -0.53288  -0.49864  -0.47432
 Alpha virt. eigenvalues --    0.13626   0.17358   0.19948   0.23820   0.53176
 Alpha virt. eigenvalues --    0.57330   0.58368   0.58670   0.70339   0.75377
 Alpha virt. eigenvalues --    0.76202   0.78721   0.82096   0.82788   0.84911

 Mulliken charges:
               1
     1  O   -0.476908
     2  H    0.233813
     3  H    0.251456
     4  O   -0.482728
     5  H    0.222388
     6  H    0.251978
 Sum of Mulliken charges =  -0.00000

 Dipole moment (field-independent basis, Debye):
    X=             -1.6346    Y=             -1.2487    Z=              0.0000  Tot=              2.0570
 Quadrupole moment (field-independent basis, Debye-Ang):
   XX=             -9.5068   YY=             -3.1153   ZZ=            -14.7235
   XY=             -1.8690   XZ=              0.0000   YZ=              0.0000

 Normal termination of Gaussian 16 at Sat Aug 27 01:37:19 2022.
