 Gaussian 16, Revision A.03,
 Gaussian 16:  ES64L-G16RevA.03 25-Dec-2016

 ------------------
 #p CCSD(T)/cc-pVTZ
 ------------------

 ------------
 H2O_H2O_1442
 ------------
 Symbolic Z-matrix:
 Charge =  0 Multiplicity = 1

                         Standard orientation:
 ---------------------------------------------------------------------
 Center     Atomic      Atomic             Coordinates (Angstroms)
 Number     Number       Type             X           Y           Z
 ---------------------------------------------------------------------
      1          8           0        0.051313   -1.527023    0.000000
      2          1           0       -0.749870   -2.095890    0.000000
      3          1           0        0.849265   -2.100414    0.000000
      4          8           0        0.051313    1.590438    0.000000
      5          1           0       -0.104534    2.560602    0.000000
      6          1           0       -0.815871    1.128380    0.000000
 ---------------------------------------------------------------------

 SCF Done:  E(RHF) =  -152.106236856     A.U. after   10 cycles
 E2 =    -0.5271331872D+00 EUMP2 =    -0.15263337004289D+03
 CCSD(T)
 CCSD(T)= -0.15266054265D+03

 The electronic state is 1-A'.
 Alpha  occ. eigenvalues --  -20.55414 -20.53712  -1.32711  -1.30973  -0.70132
 Alpha  occ. eigenvalues --   -0.68380  -0.56141  -0.54241  -0.49828  -0.48082
 Alpha virt. eigenvalues --    0.13563   0.16815   0.19993   0.23244   0.54176
 Alpha virt. eigenvalues --    0.55508   0.57325   0.58313   0.66554   0.75959
 Alpha virt. eigenvalues --    0.76945   0.77077   0.79444   0.81936   0.84922

 Mulliken charges:
               1
     1  O   -0.486573
     2  H    0.239248
     3  H    0.252958
     4  O   -0.493988
     5  H    0.233620
     6  H    0.254736
 Sum of Mulliken charges =  -0.00000

 Dipole moment (field-independent basis, Debye):
    X=             -1.6825    Y=             -1.2142    Z=              0.0000  Tot=              2.0749
 Quadrupole moment (field-independent basis, Debye-Ang):
   XX=             -9.4833   YY=             -1.6703   ZZ=            -14.7187
   XY=             -2.2221   XZ=              0.0000   YZ=              0.0000

 498706\MP4DQ=-152.6422331\MP4SDQ=-152.64536\CCSD=-152.6447399\CCSD(T)=
 Normal termination of Gaussian 16 at Sat Aug 27 04:47:20 2022.
