 Gaussian 16, Revision A.03,
 Gaussian 16:  ES64L-G16RevA.03 25-Dec-2016

 ------------------
 #p CCSD(T)/cc-pVTZ
 ------------------

 ------------
 H2O_H2O_1950
 ------------
 Symbolic Z-matrix:
 Charge =  0 Multiplicity = 1

                         Standard orientation:
 ---------------------------------------------------------------------
 Center     Atomic      Atomic             Coordinates (Angstroms)
 Number     Number       Type             X           Y           Z
 ---------------------------------------------------------------------
      1          8           0        0.000000   -0.000000    1.840680
      2          1           0        0.000000    0.799571    2.411812
      3          1           0       -0.000000   -0.799571    2.411812
      4          8           0        0.000000   -0.000000   -1.840680
      5          1           0       -0.000000   -0.799571   -2.411812
      6          1           0        0.000000    0.799571   -2.411812
 ---------------------------------------------------------------------

 SCF Done:  E(RHF) =  -152.104468384     A.U. after   10 cycles
 E2 =    -0.5265046109D+00 EUMP2 =    -0.15263097299467D+03
 CCSD(T)
 CCSD(T)= -0.15265822567D+03

 The electronic state is 1-AG.
 Alpha  occ. eigenvalues --  -20.54391 -20.54391  -1.31688  -1.31653  -0.69109
 Alpha  occ. eigenvalues --   -0.69077  -0.55307  -0.54581  -0.48816  -0.48712
 Alpha virt. eigenvalues --    0.14221   0.15919   0.20625   0.21297   0.53821
 Alpha virt. eigenvalues --    0.57100   0.57956   0.58319   0.60965   0.75603
 Alpha virt. eigenvalues --    0.79272   0.80121   0.80585   0.80854   0.83048

 Mulliken charges:
               1
     1  O   -0.488670
     2  H    0.244335
     3  H    0.244335
     4  O   -0.488670
     5  H    0.244335
     6  H    0.244335
 Sum of Mulliken charges =   0.00000

 Dipole moment (field-independent basis, Debye):
    X=             -0.0000    Y=              0.0000    Z=             -0.0000  Tot=              0.0000
 Quadrupole moment (field-independent basis, Debye-Ang):
   XX=            -14.7090   YY=             -7.8489   ZZ=              2.5294
   XY=              0.0000   XZ=              0.0000   YZ=             -0.0000

 MP4DQ=-152.6400134\MP4SDQ=-152.6431108\CCSD=-152.6425059\CCSD(T)=-152.
 Normal termination of Gaussian 16 at Sat Aug 27 07:43:53 2022.
