 Gaussian 16, Revision A.03,
 Gaussian 16:  ES64L-G16RevA.03 25-Dec-2016

 ------------------
 #p CCSD(T)/cc-pVTZ
 ------------------

 ------------
 H2O_H2O_1679
 ------------
 Symbolic Z-matrix:
 Charge =  0 Multiplicity = 1

                         Standard orientation:
 ---------------------------------------------------------------------
 Center     Atomic      Atomic             Coordinates (Angstroms)
 Number     Number       Type             X           Y           Z
 ---------------------------------------------------------------------
      1          8           0        0.014783   -1.692323    0.000000
      2          1           0       -0.785216   -2.262854    0.000000
      3          1           0        0.813925   -2.264055    0.000000
      4          8           0        0.014783    1.696193    0.000000
      5          1           0        0.639860    2.454339    0.000000
      6          1           0       -0.905104    2.041610    0.000000
 ---------------------------------------------------------------------

 SCF Done:  E(RHF) =  -152.103730173     A.U. after   10 cycles
 E2 =    -0.5267870547D+00 EUMP2 =    -0.15263051722745D+03
 CCSD(T)
 CCSD(T)= -0.15265777695D+03

 The electronic state is 1-A'.
 Alpha  occ. eigenvalues --  -20.54264 -20.54184  -1.31561  -1.31445  -0.68984
 Alpha  occ. eigenvalues --   -0.68874  -0.55368  -0.54104  -0.48704  -0.48484
 Alpha virt. eigenvalues --    0.14230   0.16246   0.20570   0.21555   0.52942
 Alpha virt. eigenvalues --    0.57664   0.58090   0.58496   0.62104   0.76201
 Alpha virt. eigenvalues --    0.78745   0.78954   0.80059   0.81550   0.84559

 Mulliken charges:
               1
     1  O   -0.482735
     2  H    0.239666
     3  H    0.243230
     4  O   -0.482610
     5  H    0.239290
     6  H    0.243160
 Sum of Mulliken charges =  -0.00000

 Dipole moment (field-independent basis, Debye):
    X=             -0.4919    Y=             -0.0722    Z=              0.0000  Tot=              0.4972
 Quadrupole moment (field-independent basis, Debye-Ang):
   XX=             -7.9994   YY=              1.1895   ZZ=            -14.7091
   XY=             -0.4313   XZ=              0.0000   YZ=              0.0000

 Normal termination of Gaussian 16 at Sat Aug 27 06:10:49 2022.
