 Gaussian 16, Revision A.03,
 Gaussian 16:  ES64L-G16RevA.03 25-Dec-2016

 ------------------
 #p CCSD(T)/cc-pVTZ
 ------------------

 ------------
 H2O_H2O_2346
 ------------
 Symbolic Z-matrix:
 Charge =  0 Multiplicity = 1

                         Standard orientation:
 ---------------------------------------------------------------------
 Center     Atomic      Atomic             Coordinates (Angstroms)
 Number     Number       Type             X           Y           Z
 ---------------------------------------------------------------------
      1          8           0        0.056125   -1.990329    0.000000
      2          1           0       -0.744797   -2.559565    0.000000
      3          1           0        0.854341   -2.563353    0.000000
      4          8           0        0.056125    2.082005    0.000000
      5          1           0       -0.345922    2.978590    0.000000
      6          1           0       -0.661614    1.410918    0.000000
 ---------------------------------------------------------------------

 SCF Done:  E(RHF) =  -152.108112457     A.U. after   10 cycles
 E2 =    -0.5261422047D+00 EUMP2 =    -0.15263425466180D+03
 CCSD(T)
 CCSD(T)= -0.15266142884D+03

 The electronic state is 1-A'.
 Alpha  occ. eigenvalues --  -20.55858 -20.54395  -1.33135  -1.31690  -0.70543
 Alpha  occ. eigenvalues --   -0.69061  -0.56591  -0.55144  -0.50252  -0.48813
 Alpha virt. eigenvalues --    0.13123   0.15927   0.19917   0.22416   0.54095
 Alpha virt. eigenvalues --    0.54590   0.57017   0.58477   0.66023   0.73595
 Alpha virt. eigenvalues --    0.78560   0.79331   0.80098   0.81495   0.82572

 Mulliken charges:
               1
     1  O   -0.505475
     2  H    0.250043
     3  H    0.257883
     4  O   -0.510507
     5  H    0.246528
     6  H    0.261527
 Sum of Mulliken charges =  -0.00000

 Dipole moment (field-independent basis, Debye):
    X=             -1.8992    Y=             -1.6750    Z=              0.0000  Tot=              2.5323
 Quadrupole moment (field-independent basis, Debye-Ang):
   XX=             -9.7825   YY=             -0.4432   ZZ=            -14.7159
   XY=             -3.8185   XZ=              0.0000   YZ=              0.0000

 Normal termination of Gaussian 16 at Sat Aug 27 10:00:54 2022.
