 Gaussian 16, Revision A.03,
 Gaussian 16:  ES64L-G16RevA.03 25-Dec-2016

 ------------------
 #p CCSD(T)/cc-pVTZ
 ------------------

 ------------
 H2O_H2O_2617
 ------------
 Symbolic Z-matrix:
 Charge =  0 Multiplicity = 1

                         Standard orientation:
 ---------------------------------------------------------------------
 Center     Atomic      Atomic             Coordinates (Angstroms)
 Number     Number       Type             X           Y           Z
 ---------------------------------------------------------------------
      1          8           0        0.051287   -2.151887    0.000000
      2          1           0       -0.749435   -2.721403    0.000000
      3          1           0        0.849704   -2.724632    0.000000
      4          8           0        0.051287    2.215385    0.000000
      5          1           0       -0.105345    3.185422    0.000000
      6          1           0       -0.815523    1.752626    0.000000
 ---------------------------------------------------------------------

 SCF Done:  E(RHF) =  -152.107136776     A.U. after   10 cycles
 E2 =    -0.5260631592D+00 EUMP2 =    -0.15263319993537D+03
 CCSD(T)
 CCSD(T)= -0.15266040987D+03

 The electronic state is 1-A'.
 Alpha  occ. eigenvalues --  -20.55456 -20.54623  -1.32744  -1.31912  -0.70154
 Alpha  occ. eigenvalues --   -0.69297  -0.56168  -0.55338  -0.49854  -0.49027
 Alpha virt. eigenvalues --    0.13543   0.15521   0.20146   0.21484   0.54053
 Alpha virt. eigenvalues --    0.54860   0.57330   0.58073   0.65999   0.72756
 Alpha virt. eigenvalues --    0.79008   0.79857   0.79991   0.81818   0.82774

 Mulliken charges:
               1
     1  O   -0.505251
     2  H    0.249775
     3  H    0.256161
     4  O   -0.505934
     5  H    0.247328
     6  H    0.257921
 Sum of Mulliken charges =  -0.00000

 Dipole moment (field-independent basis, Debye):
    X=             -1.7429    Y=             -1.1418    Z=              0.0000  Tot=              2.0836
 Quadrupole moment (field-independent basis, Debye-Ang):
   XX=             -9.4595   YY=              2.1159   ZZ=            -14.7129
   XY=             -3.2897   XZ=              0.0000   YZ=              0.0000

 Normal termination of Gaussian 16 at Fri Aug 26 14:23:24 2022.
