 Gaussian 16, Revision A.03,
 Gaussian 16:  ES64L-G16RevA.03 25-Dec-2016

 ------------------
 #p CCSD(T)/cc-pVTZ
 ------------------

 ------------
 H2O_H2O_1787
 ------------
 Symbolic Z-matrix:
 Charge =  0 Multiplicity = 1

                         Standard orientation:
 ---------------------------------------------------------------------
 Center     Atomic      Atomic             Coordinates (Angstroms)
 Number     Number       Type             X           Y           Z
 ---------------------------------------------------------------------
      1          8           0        0.040418   -1.729524    0.000000
      2          1           0       -0.760288   -2.299063    0.000000
      3          1           0        0.838851   -2.302247    0.000000
      4          8           0        0.040418    1.762820    0.000000
      5          1           0        0.203879    2.731730    0.000000
      6          1           0       -0.929135    1.603219    0.000000
 ---------------------------------------------------------------------

 SCF Done:  E(RHF) =  -152.105432959     A.U. after   10 cycles
 E2 =    -0.5266293165D+00 EUMP2 =    -0.15263206227580D+03
 CCSD(T)
 CCSD(T)= -0.15265927960D+03

 The electronic state is 1-A'.
 Alpha  occ. eigenvalues --  -20.54872 -20.54192  -1.32150  -1.31457  -0.69572
 Alpha  occ. eigenvalues --   -0.68850  -0.55634  -0.54617  -0.49258  -0.48558
 Alpha virt. eigenvalues --    0.13821   0.16241   0.20317   0.21930   0.53243
 Alpha virt. eigenvalues --    0.55564   0.57776   0.58549   0.63691   0.76835
 Alpha virt. eigenvalues --    0.78653   0.78682   0.80080   0.81120   0.84946

 Mulliken charges:
               1
     1  O   -0.490137
     2  H    0.241346
     3  H    0.250224
     4  O   -0.491423
     5  H    0.238868
     6  H    0.251122
 Sum of Mulliken charges =  -0.00000

 Dipole moment (field-independent basis, Debye):
    X=             -1.3476    Y=             -0.6191    Z=              0.0000  Tot=              1.4830
 Quadrupole moment (field-independent basis, Debye-Ang):
   XX=             -8.8609   YY=              0.7191   ZZ=            -14.7120
   XY=             -1.6175   XZ=              0.0000   YZ=              0.0000

 Normal termination of Gaussian 16 at Sat Aug 27 06:47:14 2022.
