 Gaussian 16, Revision A.03,
 Gaussian 16:  ES64L-G16RevA.03 25-Dec-2016

 ------------------
 #p CCSD(T)/cc-pVTZ
 ------------------

 -----------
 H2O_H2O_141
 -----------
 Symbolic Z-matrix:
 Charge =  0 Multiplicity = 1

                         Standard orientation:
 ---------------------------------------------------------------------
 Center     Atomic      Atomic             Coordinates (Angstroms)
 Number     Number       Type             X           Y           Z
 ---------------------------------------------------------------------
      1          8           0        0.049601   -0.839317    0.000000
      2          1           0       -0.752763   -1.406518    0.000000
      3          1           0        0.846359   -1.414366    0.000000
      4          8           0        0.049601    0.895944    0.000000
      5          1           0       -0.040427    1.874413    0.000000
      6          1           0       -0.846785    0.493455    0.000000
 ---------------------------------------------------------------------

 SCF Done:  E(RHF) =  -151.978515798     A.U. after   11 cycles
 E2 =    -0.5447462901D+00 EUMP2 =    -0.15252326208844D+03
 CCSD(T)
 CCSD(T)= -0.15254894434D+03

 The electronic state is 1-A'.
 Alpha  occ. eigenvalues --  -20.53547 -20.50897  -1.37157  -1.26992  -0.74167
 Alpha  occ. eigenvalues --   -0.70025  -0.56492  -0.52827  -0.43839  -0.41787
 Alpha virt. eigenvalues --    0.13786   0.18988   0.19653   0.24328   0.51973
 Alpha virt. eigenvalues --    0.56410   0.59601   0.65670   0.73126   0.76874
 Alpha virt. eigenvalues --    0.81106   0.81227   0.83468   0.84017   0.88775

 Mulliken charges:
               1
     1  O   -0.356657
     2  H    0.166643
     3  H    0.206394
     4  O   -0.382955
     5  H    0.126466
     6  H    0.240109
 Sum of Mulliken charges =  -0.00000

 Dipole moment (field-independent basis, Debye):
    X=             -1.3307    Y=             -1.2665    Z=              0.0000  Tot=              1.8370
 Quadrupole moment (field-independent basis, Debye-Ang):
   XX=             -9.5258   YY=             -7.9551   ZZ=            -14.6378
   XY=             -0.9221   XZ=              0.0000   YZ=              0.0000

 Normal termination of Gaussian 16 at Fri Aug 26 13:14:43 2022.
