 Gaussian 16, Revision A.03,
 Gaussian 16:  ES64L-G16RevA.03 25-Dec-2016

 ------------------
 #p CCSD(T)/cc-pVTZ
 ------------------

 ------------
 H2O_H2O_3037
 ------------
 Symbolic Z-matrix:
 Charge =  0 Multiplicity = 1

                         Standard orientation:
 ---------------------------------------------------------------------
 Center     Atomic      Atomic             Coordinates (Angstroms)
 Number     Number       Type             X           Y           Z
 ---------------------------------------------------------------------
      1          8           0        0.040409   -2.394297    0.000000
      2          1           0       -0.759984   -2.964275    0.000000
      3          1           0        0.839156   -2.966581    0.000000
      4          8           0        0.040409    2.427636    0.000000
      5          1           0        0.203338    3.396636    0.000000
      6          1           0       -0.929057    2.267503    0.000000
 ---------------------------------------------------------------------

 SCF Done:  E(RHF) =  -152.106595380     A.U. after   10 cycles
 E2 =    -0.5260064595D+00 EUMP2 =    -0.15263260183994D+03
 CCSD(T)
 CCSD(T)= -0.15265983497D+03

 The electronic state is 1-A'.
 Alpha  occ. eigenvalues --  -20.55179 -20.54840  -1.32473  -1.32131  -0.69883
 Alpha  occ. eigenvalues --   -0.69530  -0.55880  -0.55539  -0.49579  -0.49239
 Alpha virt. eigenvalues --    0.14113   0.15036   0.20384   0.20919   0.54542
 Alpha virt. eigenvalues --    0.55066   0.57530   0.57859   0.66990   0.70373
 Alpha virt. eigenvalues --    0.79296   0.79635   0.80661   0.81194   0.82788

 Mulliken charges:
               1
     1  O   -0.504024
     2  H    0.250076
     3  H    0.254006
     4  O   -0.503593
     5  H    0.248872
     6  H    0.254663
 Sum of Mulliken charges =   0.00000

 Dipole moment (field-independent basis, Debye):
    X=             -1.3794    Y=             -0.5907    Z=              0.0000  Tot=              1.5005
 Quadrupole moment (field-independent basis, Debye-Ang):
   XX=             -8.8355   YY=              5.3913   ZZ=            -14.7109
   XY=             -2.5184   XZ=              0.0000   YZ=              0.0000

 Normal termination of Gaussian 16 at Fri Aug 26 18:45:06 2022.
