 Gaussian 16, Revision A.03,
 Gaussian 16:  ES64L-G16RevA.03 25-Dec-2016

 ------------------
 #p CCSD(T)/cc-pVTZ
 ------------------

 ------------
 H2O_H2O_4532
 ------------
 Symbolic Z-matrix:
 Charge =  0 Multiplicity = 1

                         Standard orientation:
 ---------------------------------------------------------------------
 Center     Atomic      Atomic             Coordinates (Angstroms)
 Number     Number       Type             X           Y           Z
 ---------------------------------------------------------------------
      1          8           0        0.025265   -3.203779    0.000000
      2          1           0       -0.774693   -3.774370    0.000000
      3          1           0        0.824448   -3.775453    0.000000
      4          8           0        0.025265    3.215525    0.000000
      5          1           0        0.490359    4.081084    0.000000
      6          1           0       -0.944347    3.374773    0.000000
 ---------------------------------------------------------------------

 SCF Done:  E(RHF) =  -152.106931135     A.U. after   10 cycles
 E2 =    -0.5259196074D+00 EUMP2 =    -0.15263285074218D+03
 CCSD(T)
 CCSD(T)= -0.15266008110D+03

 The electronic state is 1-A'.
 Alpha  occ. eigenvalues --  -20.55263 -20.55197  -1.32559  -1.32493  -0.69966
 Alpha  occ. eigenvalues --   -0.69899  -0.55985  -0.55919  -0.49667  -0.49602
 Alpha virt. eigenvalues --    0.14372   0.14443   0.20424   0.20494   0.54601
 Alpha virt. eigenvalues --    0.54673   0.57478   0.57544   0.68235   0.68316
 Alpha virt. eigenvalues --    0.79212   0.79277   0.80653   0.80725   0.82580

 Mulliken charges:
               1
     1  O   -0.506055
     2  H    0.252480
     3  H    0.253575
     4  O   -0.505994
     5  H    0.252198
     6  H    0.253796
 Sum of Mulliken charges =  -0.00000

 Dipole moment (field-independent basis, Debye):
    X=             -0.8683    Y=             -0.2049    Z=              0.0000  Tot=              0.8921
 Quadrupole moment (field-independent basis, Debye-Ang):
   XX=             -8.2042   YY=             12.7090   ZZ=            -14.7109
   XY=             -2.0875   XZ=              0.0000   YZ=              0.0000

 Normal termination of Gaussian 16 at Sat Aug 27 07:51:31 2022.
