 Gaussian 16, Revision A.03,
 Gaussian 16:  ES64L-G16RevA.03 25-Dec-2016

 ------------------
 #p CCSD(T)/cc-pVTZ
 ------------------

 -----------
 H2O_H2O_837
 -----------
 Symbolic Z-matrix:
 Charge =  0 Multiplicity = 1

                         Standard orientation:
 ---------------------------------------------------------------------
 Center     Atomic      Atomic             Coordinates (Angstroms)
 Number     Number       Type             X           Y           Z
 ---------------------------------------------------------------------
      1          8           0        0.040432   -1.224314    0.000000
      2          1           0       -0.760736   -1.793204    0.000000
      3          1           0        0.838400   -1.797684    0.000000
      4          8           0        0.040432    1.257544    0.000000
      5          1           0        0.204678    2.226320    0.000000
      6          1           0       -0.929251    1.098729    0.000000
 ---------------------------------------------------------------------

 SCF Done:  E(RHF) =  -152.095534075     A.U. after   11 cycles
 E2 =    -0.5293330181D+00 EUMP2 =    -0.15262486709297D+03
 CCSD(T)
 CCSD(T)= -0.15265208645D+03

 The electronic state is 1-A'.
 Alpha  occ. eigenvalues --  -20.54085 -20.52994  -1.31814  -1.30187  -0.69171
 Alpha  occ. eigenvalues --   -0.67872  -0.56672  -0.51272  -0.49027  -0.47075
 Alpha virt. eigenvalues --    0.14106   0.17404   0.20262   0.23118   0.53121
 Alpha virt. eigenvalues --    0.58028   0.58190   0.60842   0.70558   0.75896
 Alpha virt. eigenvalues --    0.77403   0.79187   0.83442   0.85713   0.85756

 Mulliken charges:
               1
     1  O   -0.468901
     2  H    0.226618
     3  H    0.243691
     4  O   -0.455418
     5  H    0.211732
     6  H    0.242278
 Sum of Mulliken charges =   0.00000

 Dipole moment (field-independent basis, Debye):
    X=             -1.2608    Y=             -0.6498    Z=              0.0000  Tot=              1.4184
 Quadrupole moment (field-independent basis, Debye-Ang):
   XX=             -8.9503   YY=             -3.2826   ZZ=            -14.7244
   XY=             -0.9583   XZ=              0.0000   YZ=              0.0000

 Normal termination of Gaussian 16 at Fri Aug 26 20:27:14 2022.
