 Gaussian 16, Revision A.03,
 Gaussian 16:  ES64L-G16RevA.03 25-Dec-2016

 ------------------
 #p CCSD(T)/cc-pVTZ
 ------------------

 ------------
 H2O_H2O_1339
 ------------
 Symbolic Z-matrix:
 Charge =  0 Multiplicity = 1

                         Standard orientation:
 ---------------------------------------------------------------------
 Center     Atomic      Atomic             Coordinates (Angstroms)
 Number     Number       Type             X           Y           Z
 ---------------------------------------------------------------------
      1          8           0        0.045369   -1.484136    0.000000
      2          1           0       -0.755679   -2.053196    0.000000
      3          1           0        0.843458   -2.057337    0.000000
      4          8           0        0.045369    1.528591    0.000000
      5          1           0        0.081550    2.510527    0.000000
      6          1           0       -0.895228    1.244367    0.000000
 ---------------------------------------------------------------------

 SCF Done:  E(RHF) =  -152.104449595     A.U. after   10 cycles
 E2 =    -0.5273520016D+00 EUMP2 =    -0.15263180159690D+03
 CCSD(T)
 CCSD(T)= -0.15265901139D+03

 The electronic state is 1-A'.
 Alpha  occ. eigenvalues --  -20.54905 -20.53707  -1.32222  -1.30957  -0.69647
 Alpha  occ. eigenvalues --   -0.68375  -0.55889  -0.53843  -0.49347  -0.48037
 Alpha virt. eigenvalues --    0.13828   0.16809   0.20172   0.22782   0.53856
 Alpha virt. eigenvalues --    0.56814   0.57706   0.58455   0.66710   0.76037
 Alpha virt. eigenvalues --    0.77132   0.77183   0.80023   0.82364   0.85304

 Mulliken charges:
               1
     1  O   -0.481825
     2  H    0.236020
     3  H    0.249289
     4  O   -0.482687
     5  H    0.229860
     6  H    0.249343
 Sum of Mulliken charges =  -0.00000

 Dipole moment (field-independent basis, Debye):
    X=             -1.4790    Y=             -0.8498    Z=              0.0000  Tot=              1.7057
 Quadrupole moment (field-independent basis, Debye-Ang):
   XX=             -9.1454   YY=             -1.3940   ZZ=            -14.7166
   XY=             -1.6168   XZ=              0.0000   YZ=              0.0000

 Normal termination of Gaussian 16 at Sat Aug 27 04:04:38 2022.
