 Gaussian 16, Revision A.03,
 Gaussian 16:  ES64L-G16RevA.03 25-Dec-2016

 ------------------
 #p CCSD(T)/cc-pVTZ
 ------------------

 ------------
 H2O_H2O_3812
 ------------
 Symbolic Z-matrix:
 Charge =  0 Multiplicity = 1

                         Standard orientation:
 ---------------------------------------------------------------------
 Center     Atomic      Atomic             Coordinates (Angstroms)
 Number     Number       Type             X           Y           Z
 ---------------------------------------------------------------------
      1          8           0        0.040406   -2.806461    0.000000
      2          1           0       -0.759868   -3.376608    0.000000
      3          1           0        0.839273   -3.378577    0.000000
      4          8           0        0.040406    2.839817    0.000000
      5          1           0        0.203130    3.808852    0.000000
      6          1           0       -0.929026    2.679480    0.000000
 ---------------------------------------------------------------------

 SCF Done:  E(RHF) =  -152.106911717     A.U. after   10 cycles
 E2 =    -0.5259357690D+00 EUMP2 =    -0.15263284748648D+03
 CCSD(T)
 CCSD(T)= -0.15266007736D+03

 The electronic state is 1-A'.
 Alpha  occ. eigenvalues --  -20.55297 -20.55054  -1.32594  -1.32348  -0.70001
 Alpha  occ. eigenvalues --   -0.69750  -0.56018  -0.55773  -0.49701  -0.49457
 Alpha virt. eigenvalues --    0.14286   0.14626   0.20374   0.20658   0.54558
 Alpha virt. eigenvalues --    0.54834   0.57439   0.57687   0.68043   0.68634
 Alpha virt. eigenvalues --    0.79178   0.79418   0.80617   0.80878   0.82566

 Mulliken charges:
               1
     1  O   -0.505970
     2  H    0.251725
     3  H    0.254247
     4  O   -0.505721
     5  H    0.250917
     6  H    0.254801
 Sum of Mulliken charges =  -0.00000

 Dipole moment (field-independent basis, Debye):
    X=             -1.3856    Y=             -0.5850    Z=              0.0000  Tot=              1.5040
 Quadrupole moment (field-independent basis, Debye-Ang):
   XX=             -8.8318   YY=              8.2307   ZZ=            -14.7111
   XY=             -3.0822   XZ=              0.0000   YZ=              0.0000

 Normal termination of Gaussian 16 at Sat Aug 27 03:30:48 2022.
