 Gaussian 16, Revision A.03,
 Gaussian 16:  ES64L-G16RevA.03 25-Dec-2016

 ------------------
 #p CCSD(T)/cc-pVTZ
 ------------------

 ------------
 H2O_H2O_1744
 ------------
 Symbolic Z-matrix:
 Charge =  0 Multiplicity = 1

                         Standard orientation:
 ---------------------------------------------------------------------
 Center     Atomic      Atomic             Coordinates (Angstroms)
 Number     Number       Type             X           Y           Z
 ---------------------------------------------------------------------
      1          8           0        0.054187   -1.679079    0.000000
      2          1           0       -0.746929   -2.248042    0.000000
      3          1           0        0.852207   -2.252376    0.000000
      4          8           0        0.054187    1.756295    0.000000
      5          1           0       -0.227071    2.697783    0.000000
      6          1           0       -0.745201    1.184905    0.000000
 ---------------------------------------------------------------------

 SCF Done:  E(RHF) =  -152.107638556     A.U. after   10 cycles
 E2 =    -0.5266373178D+00 EUMP2 =    -0.15263427587418D+03
 CCSD(T)
 CCSD(T)= -0.15266143428D+03

 The electronic state is 1-A'.
 Alpha  occ. eigenvalues --  -20.55730 -20.53958  -1.33003  -1.31236  -0.70417
 Alpha  occ. eigenvalues --   -0.68610  -0.56416  -0.54657  -0.50119  -0.48360
 Alpha virt. eigenvalues --    0.13319   0.16543   0.19920   0.23263   0.53960
 Alpha virt. eigenvalues --    0.54727   0.57076   0.58404   0.65513   0.75894
 Alpha virt. eigenvalues --    0.77821   0.77933   0.78744   0.81096   0.84690

 Mulliken charges:
               1
     1  O   -0.494793
     2  H    0.244183
     3  H    0.255651
     4  O   -0.504451
     5  H    0.240011
     6  H    0.259399
 Sum of Mulliken charges =  -0.00000

 Dipole moment (field-independent basis, Debye):
    X=             -1.8027    Y=             -1.4560    Z=              0.0000  Tot=              2.3173
 Quadrupole moment (field-independent basis, Debye-Ang):
   XX=             -9.6561   YY=             -1.2977   ZZ=            -14.7179
   XY=             -2.8654   XZ=              0.0000   YZ=              0.0000

 Normal termination of Gaussian 16 at Sat Aug 27 06:32:45 2022.
