 Gaussian 16, Revision A.03,
 Gaussian 16:  ES64L-G16RevA.03 25-Dec-2016

 ------------------
 #p CCSD(T)/cc-pVTZ
 ------------------

 ----------
 H2O_H2O_75
 ----------
 Symbolic Z-matrix:
 Charge =  0 Multiplicity = 1

                         Standard orientation:
 ---------------------------------------------------------------------
 Center     Atomic      Atomic             Coordinates (Angstroms)
 Number     Number       Type             X           Y           Z
 ---------------------------------------------------------------------
      1          8           0        0.000000   -0.000000    0.843487
      2          1           0        0.000000    0.799571    1.414619
      3          1           0       -0.000000   -0.799571    1.414619
      4          8           0        0.000000   -0.000000   -0.843487
      5          1           0       -0.000000   -0.799571   -1.414619
      6          1           0        0.000000    0.799571   -1.414619
 ---------------------------------------------------------------------

 SCF Done:  E(RHF) =  -151.949734367     A.U. after   11 cycles
 E2 =    -0.5480092101D+00 EUMP2 =    -0.15249774357743D+03
 CCSD(T)
 CCSD(T)= -0.15252271339D+03

 The electronic state is 1-AG.
 Alpha  occ. eigenvalues --  -20.51206 -20.51205  -1.35499  -1.27089  -0.70247
 Alpha  occ. eigenvalues --   -0.67165  -0.65487  -0.51937  -0.43299  -0.34517
 Alpha virt. eigenvalues --    0.14540   0.19610   0.19918   0.23011   0.50396
 Alpha virt. eigenvalues --    0.58993   0.59250   0.67007   0.67836   0.79348
 Alpha virt. eigenvalues --    0.80883   0.84114   0.84208   0.86082   0.87836

 Mulliken charges:
               1
     1  O   -0.358172
     2  H    0.179086
     3  H    0.179086
     4  O   -0.358172
     5  H    0.179086
     6  H    0.179086
 Sum of Mulliken charges =   0.00000

 Dipole moment (field-independent basis, Debye):
    X=             -0.0000    Y=              0.0000    Z=              0.0000  Tot=              0.0000
 Quadrupole moment (field-independent basis, Debye-Ang):
   XX=            -14.7721   YY=             -8.4686   ZZ=             -8.5127
   XY=              0.0000   XZ=              0.0000   YZ=              0.0000

 DQ=-152.5013969\MP4SDQ=-152.5056426\CCSD=-152.5043936\CCSD(T)=-152.522
 Normal termination of Gaussian 16 at Fri Aug 26 12:31:18 2022.
