 Gaussian 16, Revision A.03,
 Gaussian 16:  ES64L-G16RevA.03 25-Dec-2016

 ------------------
 #p CCSD(T)/cc-pVTZ
 ------------------

 ------------
 H2O_H2O_4516
 ------------
 Symbolic Z-matrix:
 Charge =  0 Multiplicity = 1

                         Standard orientation:
 ---------------------------------------------------------------------
 Center     Atomic      Atomic             Coordinates (Angstroms)
 Number     Number       Type             X           Y           Z
 ---------------------------------------------------------------------
      1          8           0        0.049499   -3.165917    0.000000
      2          1           0       -0.750832   -3.735982    0.000000
      3          1           0        0.848308   -3.738114    0.000000
      4          8           0        0.049499    3.222898    0.000000
      5          1           0       -0.044026    4.201039    0.000000
      6          1           0       -0.845442    2.817207    0.000000
 ---------------------------------------------------------------------

 SCF Done:  E(RHF) =  -152.107269156     A.U. after   10 cycles
 E2 =    -0.5258913489D+00 EUMP2 =    -0.15263316050530D+03
 CCSD(T)
 CCSD(T)= -0.15266038357D+03

 The electronic state is 1-A'.
 Alpha  occ. eigenvalues --  -20.55496 -20.55174  -1.32795  -1.32470  -0.70201
 Alpha  occ. eigenvalues --   -0.69871  -0.56235  -0.55911  -0.49905  -0.49582
 Alpha virt. eigenvalues --    0.14163   0.14495   0.20235   0.20578   0.54362
 Alpha virt. eigenvalues --    0.54704   0.57269   0.57592   0.67955   0.68304
 Alpha virt. eigenvalues --    0.78975   0.79293   0.80408   0.80754   0.82335

 Mulliken charges:
               1
     1  O   -0.508067
     2  H    0.252965
     3  H    0.255102
     4  O   -0.507859
     5  H    0.252077
     6  H    0.255781
 Sum of Mulliken charges =  -0.00000

 Dipole moment (field-independent basis, Debye):
    X=             -1.7015    Y=             -0.9950    Z=              0.0000  Tot=              1.9710
 Quadrupole moment (field-independent basis, Debye-Ang):
   XX=             -9.3454   YY=              8.6121   ZZ=            -14.7117
   XY=             -4.7707   XZ=              0.0000   YZ=              0.0000

 Normal termination of Gaussian 16 at Sat Aug 27 07:45:54 2022.
