 Gaussian 16, Revision A.03,
 Gaussian 16:  ES64L-G16RevA.03 25-Dec-2016

 ------------------
 #p CCSD(T)/cc-pVTZ
 ------------------

 ------------
 H2O_H2O_3059
 ------------
 Symbolic Z-matrix:
 Charge =  0 Multiplicity = 1

                         Standard orientation:
 ---------------------------------------------------------------------
 Center     Atomic      Atomic             Coordinates (Angstroms)
 Number     Number       Type             X           Y           Z
 ---------------------------------------------------------------------
      1          8           0        0.031741   -2.415283    0.000000
      2          1           0       -0.768473   -2.985514    0.000000
      3          1           0        0.830668   -2.987316    0.000000
      4          8           0        0.031741    2.434463    0.000000
      5          1           0        0.380291    3.353168    0.000000
      6          1           0       -0.950347    2.466229    0.000000
 ---------------------------------------------------------------------

 SCF Done:  E(RHF) =  -152.106359236     A.U. after   10 cycles
 E2 =    -0.5260196803D+00 EUMP2 =    -0.15263237891617D+03
 CCSD(T)
 CCSD(T)= -0.15265961796D+03

 The electronic state is 1-A'.
 Alpha  occ. eigenvalues --  -20.55053 -20.54862  -1.32346  -1.32153  -0.69756
 Alpha  occ. eigenvalues --   -0.69557  -0.55743  -0.55549  -0.49450  -0.49259
 Alpha virt. eigenvalues --    0.14264   0.14973   0.20485   0.20835   0.54684
 Alpha virt. eigenvalues --    0.55092   0.57631   0.57840   0.67085   0.70272
 Alpha virt. eigenvalues --    0.79421   0.79620   0.80828   0.81147   0.82689

 Mulliken charges:
               1
     1  O   -0.502693
     2  H    0.249841
     3  H    0.252874
     4  O   -0.502366
     5  H    0.249074
     6  H    0.253270
 Sum of Mulliken charges =  -0.00000

 Dipole moment (field-independent basis, Debye):
    X=             -1.0836    Y=             -0.3393    Z=              0.0000  Tot=              1.1355
 Quadrupole moment (field-independent basis, Debye-Ang):
   XX=             -8.4451   YY=              6.3110   ZZ=            -14.7104
   XY=             -1.8518   XZ=              0.0000   YZ=              0.0000

 Normal termination of Gaussian 16 at Fri Aug 26 18:58:40 2022.
