 Gaussian 16, Revision A.03,
 Gaussian 16:  ES64L-G16RevA.03 25-Dec-2016

 ------------------
 #p CCSD(T)/cc-pVTZ
 ------------------

 ------------
 H2O_H2O_3351
 ------------
 Symbolic Z-matrix:
 Charge =  0 Multiplicity = 1

                         Standard orientation:
 ---------------------------------------------------------------------
 Center     Atomic      Atomic             Coordinates (Angstroms)
 Number     Number       Type             X           Y           Z
 ---------------------------------------------------------------------
      1          8           0        0.003735   -2.585119    0.000000
      2          1           0       -0.795907   -3.156151    0.000000
      3          1           0        0.803235   -3.156350    0.000000
      4          8           0        0.003735    2.585362    0.000000
      5          1           0        0.764319    3.207471    0.000000
      6          1           0       -0.831413    3.103080    0.000000
 ---------------------------------------------------------------------

 SCF Done:  E(RHF) =  -152.106277834     A.U. after   10 cycles
 E2 =    -0.5260035433D+00 EUMP2 =    -0.15263228137720D+03
 CCSD(T)
 CCSD(T)= -0.15265952401D+03

 The electronic state is 1-A'.
 Alpha  occ. eigenvalues --  -20.54967 -20.54965  -1.32261  -1.32259  -0.69670
 Alpha  occ. eigenvalues --   -0.69668  -0.55661  -0.55644  -0.49364  -0.49362
 Alpha virt. eigenvalues --    0.14468   0.14763   0.20585   0.20682   0.54838
 Alpha virt. eigenvalues --    0.54971   0.57702   0.57748   0.67855   0.69394
 Alpha virt. eigenvalues --    0.79502   0.79524   0.80932   0.81003   0.82765

 Mulliken charges:
               1
     1  O   -0.502215
     2  H    0.250959
     3  H    0.251256
     4  O   -0.502211
     5  H    0.250911
     6  H    0.251300
 Sum of Mulliken charges =   0.00000

 Dipole moment (field-independent basis, Debye):
    X=             -0.1278    Y=             -0.0043    Z=              0.0000  Tot=              0.1278
 Quadrupole moment (field-independent basis, Debye-Ang):
   XX=             -7.8211   YY=              8.6113   ZZ=            -14.7100
   XY=             -0.2159   XZ=              0.0000   YZ=              0.0000

 Normal termination of Gaussian 16 at Fri Aug 26 21:36:27 2022.
