 Gaussian 16, Revision A.03,
 Gaussian 16:  ES64L-G16RevA.03 25-Dec-2016

 ------------------
 #p CCSD(T)/cc-pVTZ
 ------------------

 -----------
 H2O_H2O_469
 -----------
 Symbolic Z-matrix:
 Charge =  0 Multiplicity = 1

                         Standard orientation:
 ---------------------------------------------------------------------
 Center     Atomic      Atomic             Coordinates (Angstroms)
 Number     Number       Type             X           Y           Z
 ---------------------------------------------------------------------
      1          8           0        0.054255   -1.001087    0.000000
      2          1           0       -0.747865   -1.568633    0.000000
      3          1           0        0.851261   -1.575794    0.000000
      4          8           0        0.054255    1.078112    0.000000
      5          1           0       -0.225338    2.020096    0.000000
      6          1           0       -0.746141    0.508136    0.000000
 ---------------------------------------------------------------------

 SCF Done:  E(RHF) =  -152.066864338     A.U. after   11 cycles
 E2 =    -0.5349933142D+00 EUMP2 =    -0.15260185765173D+03
 CCSD(T)
 CCSD(T)= -0.15262854971D+03

 The electronic state is 1-A'.
 Alpha  occ. eigenvalues --  -20.55180 -20.51195  -1.34607  -1.28475  -0.72060
 Alpha  occ. eigenvalues --   -0.69098  -0.54718  -0.51288  -0.50173  -0.45398
 Alpha virt. eigenvalues --    0.13473   0.18569   0.19582   0.25173   0.51229
 Alpha virt. eigenvalues --    0.56258   0.60865   0.63692   0.72134   0.74960
 Alpha virt. eigenvalues --    0.79281   0.82144   0.83965   0.84718   0.87805

 Mulliken charges:
               1
     1  O   -0.416856
     2  H    0.206156
     3  H    0.234509
     4  O   -0.460482
     5  H    0.185241
     6  H    0.251432
 Sum of Mulliken charges =   0.00000

 Dipole moment (field-independent basis, Debye):
    X=             -1.5911    Y=             -1.6585    Z=              0.0000  Tot=              2.2983
 Quadrupole moment (field-independent basis, Debye-Ang):
   XX=             -9.7095   YY=             -5.9978   ZZ=            -14.6890
   XY=             -1.6499   XZ=              0.0000   YZ=              0.0000

 Normal termination of Gaussian 16 at Fri Aug 26 16:45:22 2022.
