 Gaussian 16, Revision A.03,
 Gaussian 16:  ES64L-G16RevA.03 25-Dec-2016

 ------------------
 #p CCSD(T)/cc-pVTZ
 ------------------

 -----------
 H2O_H2O_601
 -----------
 Symbolic Z-matrix:
 Charge =  0 Multiplicity = 1

                         Standard orientation:
 ---------------------------------------------------------------------
 Center     Atomic      Atomic             Coordinates (Angstroms)
 Number     Number       Type             X           Y           Z
 ---------------------------------------------------------------------
      1          8           0        0.003735   -1.122569    0.000000
      2          1           0       -0.795999   -1.693472    0.000000
      3          1           0        0.803143   -1.693930    0.000000
      4          8           0        0.003735    1.122812    0.000000
      5          1           0        0.764420    1.744797    0.000000
      6          1           0       -0.831329    1.640665    0.000000
 ---------------------------------------------------------------------

 SCF Done:  E(RHF) =  -152.078536711     A.U. after   10 cycles
 E2 =    -0.5313541576D+00 EUMP2 =    -0.15260989086895D+03
 CCSD(T)
 CCSD(T)= -0.15263707000D+03

 The electronic state is 1-A'.
 Alpha  occ. eigenvalues --  -20.52467 -20.52460  -1.31172  -1.29403  -0.68227
 Alpha  occ. eigenvalues --   -0.67106  -0.58611  -0.48488  -0.47345  -0.46002
 Alpha virt. eigenvalues --    0.14588   0.17969   0.20568   0.22572   0.50166
 Alpha virt. eigenvalues --    0.59037   0.59096   0.64863   0.71960   0.77016
 Alpha virt. eigenvalues --    0.78062   0.81167   0.84346   0.86661   0.86887

 Mulliken charges:
               1
     1  O   -0.448572
     2  H    0.223276
     3  H    0.225218
     4  O   -0.448062
     5  H    0.221924
     6  H    0.226217
 Sum of Mulliken charges =  -0.00000

 Dipole moment (field-independent basis, Debye):
    X=             -0.1133    Y=             -0.0049    Z=              0.0000  Tot=              0.1134
 Quadrupole moment (field-independent basis, Debye-Ang):
   XX=             -8.0626   YY=             -4.2335   ZZ=            -14.7398
   XY=             -0.0409   XZ=              0.0000   YZ=              0.0000

 Normal termination of Gaussian 16 at Fri Aug 26 18:06:15 2022.
