 Gaussian 16, Revision A.03,
 Gaussian 16:  ES64L-G16RevA.03 25-Dec-2016

 ------------------
 #p CCSD(T)/cc-pVTZ
 ------------------

 -----------
 H2O_H2O_476
 -----------
 Symbolic Z-matrix:
 Charge =  0 Multiplicity = 1

                         Standard orientation:
 ---------------------------------------------------------------------
 Center     Atomic      Atomic             Coordinates (Angstroms)
 Number     Number       Type             X           Y           Z
 ---------------------------------------------------------------------
      1          8           0        0.003735   -1.056089    0.000000
      2          1           0       -0.796009   -1.626978    0.000000
      3          1           0        0.803133   -1.627465    0.000000
      4          8           0        0.003735    1.056332    0.000000
      5          1           0        0.764431    1.678304    0.000000
      6          1           0       -0.831320    1.574201    0.000000
 ---------------------------------------------------------------------

 SCF Done:  E(RHF) =  -152.065429470     A.U. after   11 cycles
 E2 =    -0.5332044893D+00 EUMP2 =    -0.15259863395893D+03
 CCSD(T)
 CCSD(T)= -0.15262565731D+03

 The electronic state is 1-A'.
 Alpha  occ. eigenvalues --  -20.52093 -20.52085  -1.31470  -1.28926  -0.68304
 Alpha  occ. eigenvalues --   -0.66733  -0.59865  -0.48758  -0.45429  -0.45403
 Alpha virt. eigenvalues --    0.14636   0.18236   0.20532   0.22702   0.50168
 Alpha virt. eigenvalues --    0.59108   0.59216   0.65700   0.70839   0.77520
 Alpha virt. eigenvalues --    0.78724   0.82158   0.84451   0.86697   0.87081

 Mulliken charges:
               1
     1  O   -0.439169
     2  H    0.218505
     3  H    0.220583
     4  O   -0.438546
     5  H    0.216334
     6  H    0.222293
 Sum of Mulliken charges =  -0.00000

 Dipole moment (field-independent basis, Debye):
    X=             -0.1111    Y=             -0.0050    Z=              0.0000  Tot=              0.1112
 Quadrupole moment (field-independent basis, Debye-Ang):
   XX=             -8.1133   YY=             -5.0346   ZZ=            -14.7475
   XY=             -0.0362   XZ=              0.0000   YZ=              0.0000

 Normal termination of Gaussian 16 at Fri Aug 26 16:49:11 2022.
