 Gaussian 16, Revision A.03,
 Gaussian 16:  ES64L-G16RevA.03 25-Dec-2016

 ------------------
 #p CCSD(T)/cc-pVTZ
 ------------------

 ------------
 H2O_H2O_1137
 ------------
 Symbolic Z-matrix:
 Charge =  0 Multiplicity = 1

                         Standard orientation:
 ---------------------------------------------------------------------
 Center     Atomic      Atomic             Coordinates (Angstroms)
 Number     Number       Type             X           Y           Z
 ---------------------------------------------------------------------
      1          8           0        0.040427   -1.383852    0.000000
      2          1           0       -0.760560   -1.952997    0.000000
      3          1           0        0.838577   -1.956967    0.000000
      4          8           0        0.040427    1.417107    0.000000
      5          1           0        0.204363    2.385936    0.000000
      6          1           0       -0.929205    1.257983    0.000000
 ---------------------------------------------------------------------

 SCF Done:  E(RHF) =  -152.101844432     A.U. after   11 cycles
 E2 =    -0.5279125458D+00 EUMP2 =    -0.15262975697800D+03
 CCSD(T)
 CCSD(T)= -0.15265699619D+03

 The electronic state is 1-A'.
 Alpha  occ. eigenvalues --  -20.54459 -20.53500  -1.31856  -1.30741  -0.69273
 Alpha  occ. eigenvalues --   -0.68207  -0.56016  -0.52943  -0.49016  -0.47754
 Alpha virt. eigenvalues --    0.14023   0.16999   0.20276   0.22742   0.53325
 Alpha virt. eigenvalues --    0.57985   0.58242   0.59030   0.68602   0.76354
 Alpha virt. eigenvalues --    0.76648   0.77013   0.81477   0.82989   0.85603

 Mulliken charges:
               1
     1  O   -0.476115
     2  H    0.232099
     3  H    0.246038
     4  O   -0.470316
     5  H    0.223996
     6  H    0.244298
 Sum of Mulliken charges =  -0.00000

 Dipole moment (field-independent basis, Debye):
    X=             -1.2996    Y=             -0.6398    Z=              0.0000  Tot=              1.4485
 Quadrupole moment (field-independent basis, Debye-Ang):
   XX=             -8.9101   YY=             -1.9226   ZZ=            -14.7177
   XY=             -1.1616   XZ=              0.0000   YZ=              0.0000

 Normal termination of Gaussian 16 at Sat Aug 27 02:24:58 2022.
