 Gaussian 16, Revision A.03,
 Gaussian 16:  ES64L-G16RevA.03 25-Dec-2016

 ------------------
 #p CCSD(T)/cc-pVTZ
 ------------------

 -----------
 H2O_H2O_115
 -----------
 Symbolic Z-matrix:
 Charge =  0 Multiplicity = 1

                         Standard orientation:
 ---------------------------------------------------------------------
 Center     Atomic      Atomic             Coordinates (Angstroms)
 Number     Number       Type             X           Y           Z
 ---------------------------------------------------------------------
      1          8           0        0.047609   -0.829452    0.000000
      2          1           0       -0.754685   -1.396753    0.000000
      3          1           0        0.844439   -1.404402    0.000000
      4          8           0        0.047609    0.879763    0.000000
      5          1           0        0.021646    1.862021    0.000000
      6          1           0       -0.873140    0.536648    0.000000
 ---------------------------------------------------------------------

 SCF Done:  E(RHF) =  -151.969145815     A.U. after   12 cycles
 E2 =    -0.5457358318D+00 EUMP2 =    -0.15251488164646D+03
 CCSD(T)
 CCSD(T)= -0.15254041899D+03

 The electronic state is 1-A'.
 Alpha  occ. eigenvalues --  -20.53245 -20.51078  -1.37277  -1.26913  -0.74045
 Alpha  occ. eigenvalues --   -0.69952  -0.57410  -0.52938  -0.43716  -0.40458
 Alpha virt. eigenvalues --    0.13863   0.18996   0.19686   0.24135   0.52323
 Alpha virt. eigenvalues --    0.56559   0.59129   0.65648   0.73213   0.77055
 Alpha virt. eigenvalues --    0.81398   0.81401   0.82815   0.84015   0.88897

 Mulliken charges:
               1
     1  O   -0.353533
     2  H    0.163835
     3  H    0.202080
     4  O   -0.368017
     5  H    0.118562
     6  H    0.237073
 Sum of Mulliken charges =  -0.00000

 Dipole moment (field-independent basis, Debye):
    X=             -1.2712    Y=             -1.1352    Z=              0.0000  Tot=              1.7043
 Quadrupole moment (field-independent basis, Debye-Ang):
   XX=             -9.4406   YY=             -8.1601   ZZ=            -14.6424
   XY=             -0.8057   XZ=              0.0000   YZ=              0.0000

 Normal termination of Gaussian 16 at Fri Aug 26 12:54:12 2022.
