 Gaussian 16, Revision A.03,
 Gaussian 16:  ES64L-G16RevA.03 25-Dec-2016

 ------------------
 #p CCSD(T)/cc-pVTZ
 ------------------

 ------------
 H2O_H2O_1463
 ------------
 Symbolic Z-matrix:
 Charge =  0 Multiplicity = 1

                         Standard orientation:
 ---------------------------------------------------------------------
 Center     Atomic      Atomic             Coordinates (Angstroms)
 Number     Number       Type             X           Y           Z
 ---------------------------------------------------------------------
      1          8           0        0.042986   -1.553736    0.000000
      2          1           0       -0.757925   -2.122988    0.000000
      3          1           0        0.841212   -2.126746    0.000000
      4          8           0        0.042986    1.592446    0.000000
      5          1           0        0.143077    2.569937    0.000000
      6          1           0       -0.914133    1.370118    0.000000
 ---------------------------------------------------------------------

 SCF Done:  E(RHF) =  -152.104713072     A.U. after   10 cycles
 E2 =    -0.5270926788D+00 EUMP2 =    -0.15263180575045D+03
 CCSD(T)
 CCSD(T)= -0.15265902232D+03

 The electronic state is 1-A'.
 Alpha  occ. eigenvalues --  -20.54834 -20.53876  -1.32131  -1.31130  -0.69556
 Alpha  occ. eigenvalues --   -0.68531  -0.55766  -0.54069  -0.49250  -0.48216
 Alpha virt. eigenvalues --    0.13860   0.16631   0.20241   0.22458   0.53650
 Alpha virt. eigenvalues --    0.56361   0.57781   0.58623   0.65416   0.76468
 Alpha virt. eigenvalues --    0.77687   0.78002   0.79346   0.82045   0.85375

 Mulliken charges:
               1
     1  O   -0.483790
     2  H    0.237310
     3  H    0.248992
     4  O   -0.484486
     5  H    0.232677
     6  H    0.249298
 Sum of Mulliken charges =  -0.00000

 Dipole moment (field-independent basis, Debye):
    X=             -1.4120    Y=             -0.7332    Z=              0.0000  Tot=              1.5910
 Quadrupole moment (field-independent basis, Debye-Ang):
   XX=             -9.0096   YY=             -0.7295   ZZ=            -14.7144
   XY=             -1.5481   XZ=              0.0000   YZ=              0.0000

 Normal termination of Gaussian 16 at Sat Aug 27 04:54:18 2022.
