 Gaussian 16, Revision A.03,
 Gaussian 16:  ES64L-G16RevA.03 25-Dec-2016

 ------------------
 #p CCSD(T)/cc-pVTZ
 ------------------

 ------------
 H2O_H2O_3251
 ------------
 Symbolic Z-matrix:
 Charge =  0 Multiplicity = 1

                         Standard orientation:
 ---------------------------------------------------------------------
 Center     Atomic      Atomic             Coordinates (Angstroms)
 Number     Number       Type             X           Y           Z
 ---------------------------------------------------------------------
      1          8           0        0.003735   -2.531935    0.000000
      2          1           0       -0.795908   -3.102965    0.000000
      3          1           0        0.803234   -3.103168    0.000000
      4          8           0        0.003735    2.532178    0.000000
      5          1           0        0.764320    3.154286    0.000000
      6          1           0       -0.831412    3.049899    0.000000
 ---------------------------------------------------------------------

 SCF Done:  E(RHF) =  -152.106203973     A.U. after   10 cycles
 E2 =    -0.5260150573D+00 EUMP2 =    -0.15263221903019D+03
 CCSD(T)
 CCSD(T)= -0.15265946289D+03

 The electronic state is 1-A'.
 Alpha  occ. eigenvalues --  -20.54940 -20.54938  -1.32233  -1.32231  -0.69643
 Alpha  occ. eigenvalues --   -0.69640  -0.55633  -0.55609  -0.49336  -0.49333
 Alpha virt. eigenvalues --    0.14458   0.14814   0.20593   0.20708   0.54845
 Alpha virt. eigenvalues --    0.55019   0.57720   0.57774   0.67660   0.69658
 Alpha virt. eigenvalues --    0.79525   0.79557   0.80955   0.81039   0.82734

 Mulliken charges:
               1
     1  O   -0.501782
     2  H    0.250733
     3  H    0.251048
     4  O   -0.501777
     5  H    0.250685
     6  H    0.251093
 Sum of Mulliken charges =  -0.00000

 Dipole moment (field-independent basis, Debye):
    X=             -0.1277    Y=             -0.0043    Z=              0.0000  Tot=              0.1278
 Quadrupole moment (field-independent basis, Debye-Ang):
   XX=             -7.8224   YY=              8.1815   ZZ=            -14.7099
   XY=             -0.2092   XZ=              0.0000   YZ=              0.0000

 89058\MP4DQ=-152.6413395\MP4SDQ=-152.6444056\CCSD=-152.643815\CCSD(T)=
 Normal termination of Gaussian 16 at Fri Aug 26 20:44:36 2022.
