 Gaussian 16, Revision A.03,
 Gaussian 16:  ES64L-G16RevA.03 25-Dec-2016

 ------------------
 #p CCSD(T)/cc-pVTZ
 ------------------

 -----------
 H2O_H2O_173
 -----------
 Symbolic Z-matrix:
 Charge =  0 Multiplicity = 1

                         Standard orientation:
 ---------------------------------------------------------------------
 Center     Atomic      Atomic             Coordinates (Angstroms)
 Number     Number       Type             X           Y           Z
 ---------------------------------------------------------------------
      1          8           0        0.057288   -0.825734    0.000000
      2          1           0       -0.745459   -1.392394    0.000000
      3          1           0        0.853658   -1.401321    0.000000
      4          8           0        0.057288    0.931852    0.000000
      5          1           0       -0.455656    1.769942    0.000000
      6          1           0       -0.569152    0.174831    0.000000
 ---------------------------------------------------------------------

 SCF Done:  E(RHF) =  -151.945287023     A.U. after   11 cycles
 E2 =    -0.5473005463D+00 EUMP2 =    -0.15249258756899D+03
 CCSD(T)
 CCSD(T)= -0.15251725383D+03

 The electronic state is 1-A'.
 Alpha  occ. eigenvalues --  -20.57284 -20.46717  -1.42143  -1.25412  -0.79700
 Alpha  occ. eigenvalues --   -0.73231  -0.55973  -0.49893  -0.44245  -0.42246
 Alpha virt. eigenvalues --    0.12475   0.17824   0.20636   0.27196   0.48616
 Alpha virt. eigenvalues --    0.53114   0.63428   0.69836   0.73695   0.74851
 Alpha virt. eigenvalues --    0.77922   0.78361   0.84443   0.85443   0.88786

 Mulliken charges:
               1
     1  O   -0.288912
     2  H    0.175313
     3  H    0.224674
     4  O   -0.533821
     5  H    0.147665
     6  H    0.275080
 Sum of Mulliken charges =  -0.00000

 Dipole moment (field-independent basis, Debye):
    X=             -1.5150    Y=             -2.8632    Z=              0.0000  Tot=              3.2394
 Quadrupole moment (field-independent basis, Debye-Ang):
   XX=             -9.8205   YY=             -8.6185   ZZ=            -14.5365
   XY=             -1.8842   XZ=              0.0000   YZ=              0.0000

 Normal termination of Gaussian 16 at Fri Aug 26 13:37:24 2022.
