 Gaussian 16, Revision A.03,
 Gaussian 16:  ES64L-G16RevA.03 25-Dec-2016

 ------------------
 #p CCSD(T)/cc-pVTZ
 ------------------

 ------------
 H2O_H2O_4193
 ------------
 Symbolic Z-matrix:
 Charge =  0 Multiplicity = 1

                         Standard orientation:
 ---------------------------------------------------------------------
 Center     Atomic      Atomic             Coordinates (Angstroms)
 Number     Number       Type             X           Y           Z
 ---------------------------------------------------------------------
      1          8           0        0.052819   -2.985807    0.000000
      2          1           0       -0.747610   -3.555736    0.000000
      3          1           0        0.851530   -3.558140    0.000000
      4          8           0        0.052819    3.056162    0.000000
      5          1           0       -0.167416    4.013764    0.000000
      6          1           0       -0.781603    2.537271    0.000000
 ---------------------------------------------------------------------

 SCF Done:  E(RHF) =  -152.107356111     A.U. after   10 cycles
 E2 =    -0.5258894916D+00 EUMP2 =    -0.15263324560235D+03
 CCSD(T)
 CCSD(T)= -0.15266046642D+03

 The electronic state is 1-A'.
 Alpha  occ. eigenvalues --  -20.55557 -20.55108  -1.32855  -1.32405  -0.70262
 Alpha  occ. eigenvalues --   -0.69804  -0.56300  -0.55848  -0.49967  -0.49518
 Alpha virt. eigenvalues --    0.14088   0.14583   0.20182   0.20671   0.54298
 Alpha virt. eigenvalues --    0.54772   0.57214   0.57663   0.67837   0.68409
 Alpha virt. eigenvalues --    0.78914   0.79354   0.80344   0.80810   0.82300

 Mulliken charges:
               1
     1  O   -0.508595
     2  H    0.252972
     3  H    0.255625
     4  O   -0.508290
     5  H    0.251727
     6  H    0.256560
 Sum of Mulliken charges =  -0.00000

 Dipole moment (field-independent basis, Debye):
    X=             -1.8142    Y=             -1.2314    Z=              0.0000  Tot=              2.1926
 Quadrupole moment (field-independent basis, Debye-Ang):
   XX=             -9.5593   YY=              6.3506   ZZ=            -14.7120
   XY=             -5.0006   XZ=              0.0000   YZ=              0.0000

 Normal termination of Gaussian 16 at Sat Aug 27 05:54:47 2022.
