 Gaussian 16, Revision A.03,
 Gaussian 16:  ES64L-G16RevA.03 25-Dec-2016

 ------------------
 #p CCSD(T)/cc-pVTZ
 ------------------

 ----------
 H2O_H2O_64
 ----------
 Symbolic Z-matrix:
 Charge =  0 Multiplicity = 1

                         Standard orientation:
 ---------------------------------------------------------------------
 Center     Atomic      Atomic             Coordinates (Angstroms)
 Number     Number       Type             X           Y           Z
 ---------------------------------------------------------------------
      1          8           0        0.045416   -0.806145    0.000000
      2          1           0       -0.756836   -1.373505    0.000000
      3          1           0        0.842288   -1.381036    0.000000
      4          8           0        0.045416    0.850407    0.000000
      5          1           0        0.083679    1.832264    0.000000
      6          1           0       -0.895782    0.568178    0.000000
 ---------------------------------------------------------------------

 SCF Done:  E(RHF) =  -151.944166327     A.U. after   12 cycles
 E2 =    -0.5484700512D+00 EUMP2 =    -0.15249263637825D+03
 CCSD(T)
 CCSD(T)= -0.15251773722D+03

 The electronic state is 1-A'.
 Alpha  occ. eigenvalues --  -20.53036 -20.51257  -1.38135  -1.26670  -0.74443
 Alpha  occ. eigenvalues --   -0.70270  -0.58374  -0.53554  -0.43445  -0.38142
 Alpha virt. eigenvalues --    0.13882   0.19040   0.19742   0.23973   0.52562
 Alpha virt. eigenvalues --    0.56479   0.58749   0.65854   0.73378   0.77219
 Alpha virt. eigenvalues --    0.81421   0.81517   0.82189   0.83935   0.89096

 Mulliken charges:
               1
     1  O   -0.337478
     2  H    0.154959
     3  H    0.193605
     4  O   -0.347098
     5  H    0.101296
     6  H    0.234715
 Sum of Mulliken charges =  -0.00000

 Dipole moment (field-independent basis, Debye):
    X=             -1.1996    Y=             -1.0332    Z=              0.0000  Tot=              1.5831
 Quadrupole moment (field-independent basis, Debye-Ang):
   XX=             -9.3663   YY=             -8.6992   ZZ=            -14.6405
   XY=             -0.6991   XZ=              0.0000   YZ=              0.0000

 053717\MP4DQ=-152.4965817\MP4SDQ=-152.5006935\CCSD=-152.49951\CCSD(T)=
 Normal termination of Gaussian 16 at Fri Aug 26 12:24:08 2022.
