 Gaussian 16, Revision A.03,
 Gaussian 16:  ES64L-G16RevA.03 25-Dec-2016

 ------------------
 #p CCSD(T)/cc-pVTZ
 ------------------

 ------------
 H2O_H2O_2337
 ------------
 Symbolic Z-matrix:
 Charge =  0 Multiplicity = 1

                         Standard orientation:
 ---------------------------------------------------------------------
 Center     Atomic      Atomic             Coordinates (Angstroms)
 Number     Number       Type             X           Y           Z
 ---------------------------------------------------------------------
      1          8           0        0.040414   -2.022022    0.000000
      2          1           0       -0.760130   -2.591790    0.000000
      3          1           0        0.839010   -2.594517    0.000000
      4          8           0        0.040414    2.055341    0.000000
      5          1           0        0.203597    3.024298    0.000000
      6          1           0       -0.929094    1.895463    0.000000
 ---------------------------------------------------------------------

 SCF Done:  E(RHF) =  -152.106162433     A.U. after   10 cycles
 E2 =    -0.5262060515D+00 EUMP2 =    -0.15263236848406D+03
 CCSD(T)
 CCSD(T)= -0.15265959422D+03

 The electronic state is 1-A'.
 Alpha  occ. eigenvalues --  -20.55037 -20.54543  -1.32321  -1.31824  -0.69736
 Alpha  occ. eigenvalues --   -0.69219  -0.55715  -0.55180  -0.49425  -0.48932
 Alpha virt. eigenvalues --    0.13815   0.15662   0.20353   0.21376   0.53816
 Alpha virt. eigenvalues --    0.55270   0.57656   0.58136   0.64422   0.74464
 Alpha virt. eigenvalues --    0.79291   0.80086   0.80247   0.81337   0.83031

 Mulliken charges:
               1
     1  O   -0.499547
     2  H    0.246967
     3  H    0.253058
     4  O   -0.499604
     5  H    0.245281
     6  H    0.253845
 Sum of Mulliken charges =  -0.00000

 Dipole moment (field-independent basis, Debye):
    X=             -1.3672    Y=             -0.6029    Z=              0.0000  Tot=              1.4943
 Quadrupole moment (field-independent basis, Debye-Ang):
   XX=             -8.8440   YY=              2.8037   ZZ=            -14.7113
   XY=             -2.0124   XZ=              0.0000   YZ=              0.0000

 Normal termination of Gaussian 16 at Sat Aug 27 09:57:19 2022.
