 Gaussian 16, Revision A.03,
 Gaussian 16:  ES64L-G16RevA.03 25-Dec-2016

 ------------------
 #p CCSD(T)/cc-pVTZ
 ------------------

 -----------
 H2O_H2O_585
 -----------
 Symbolic Z-matrix:
 Charge =  0 Multiplicity = 1

                         Standard orientation:
 ---------------------------------------------------------------------
 Center     Atomic      Atomic             Coordinates (Angstroms)
 Number     Number       Type             X           Y           Z
 ---------------------------------------------------------------------
      1          8           0        0.034800   -1.096685    0.000000
      2          1           0       -0.766310   -1.665656    0.000000
      3          1           0        0.832826   -1.669974    0.000000
      4          8           0        0.034800    1.120101    0.000000
      5          1           0        0.323997    2.059181    0.000000
      6          1           0       -0.947313    1.089114    0.000000
 ---------------------------------------------------------------------

 SCF Done:  E(RHF) =  -152.080557598     A.U. after   11 cycles
 E2 =    -0.5316270954D+00 EUMP2 =    -0.15261218469360D+03
 CCSD(T)
 CCSD(T)= -0.15263930033D+03

 The electronic state is 1-A'.
 Alpha  occ. eigenvalues --  -20.53245 -20.52461  -1.31804  -1.29474  -0.68971
 Alpha  occ. eigenvalues --   -0.67490  -0.58024  -0.49050  -0.48352  -0.46167
 Alpha virt. eigenvalues --    0.14323   0.17769   0.20330   0.23150   0.52671
 Alpha virt. eigenvalues --    0.58074   0.58398   0.62946   0.70706   0.76348
 Alpha virt. eigenvalues --    0.78115   0.81210   0.83723   0.86017   0.87632

 Mulliken charges:
               1
     1  O   -0.457220
     2  H    0.219021
     3  H    0.236682
     4  O   -0.432590
     5  H    0.195999
     6  H    0.238108
 Sum of Mulliken charges =  -0.00000

 Dipole moment (field-independent basis, Debye):
    X=             -1.0473    Y=             -0.4663    Z=              0.0000  Tot=              1.1464
 Quadrupole moment (field-independent basis, Debye-Ang):
   XX=             -8.7549   YY=             -4.4798   ZZ=            -14.7315
   XY=             -0.5888   XZ=              0.0000   YZ=              0.0000

 Normal termination of Gaussian 16 at Fri Aug 26 17:52:46 2022.
