 Gaussian 16, Revision A.03,
 Gaussian 16:  ES64L-G16RevA.03 25-Dec-2016

 ------------------
 #p CCSD(T)/cc-pVTZ
 ------------------

 ------------
 H2O_H2O_3160
 ------------
 Symbolic Z-matrix:
 Charge =  0 Multiplicity = 1

                         Standard orientation:
 ---------------------------------------------------------------------
 Center     Atomic      Atomic             Coordinates (Angstroms)
 Number     Number       Type             X           Y           Z
 ---------------------------------------------------------------------
      1          8           0        0.034783   -2.466109    0.000000
      2          1           0       -0.765478   -3.036275    0.000000
      3          1           0        0.833663   -3.038206    0.000000
      4          8           0        0.034783    2.489630    0.000000
      5          1           0        0.322578    3.429141    0.000000
      6          1           0       -0.947283    2.457177    0.000000
 ---------------------------------------------------------------------

 SCF Done:  E(RHF) =  -152.106494497     A.U. after   10 cycles
 E2 =    -0.5260009651D+00 EUMP2 =    -0.15263249546260D+03
 CCSD(T)
 CCSD(T)= -0.15265973217D+03

 The electronic state is 1-A'.
 Alpha  occ. eigenvalues --  -20.55114 -20.54890  -1.32408  -1.32182  -0.69818
 Alpha  occ. eigenvalues --   -0.69584  -0.55812  -0.55585  -0.49513  -0.49288
 Alpha virt. eigenvalues --    0.14253   0.14918   0.20453   0.20817   0.54660
 Alpha virt. eigenvalues --    0.55038   0.57584   0.57818   0.67336   0.69896
 Alpha virt. eigenvalues --    0.79362   0.79587   0.80771   0.81102   0.82735

 Mulliken charges:
               1
     1  O   -0.503501
     2  H    0.250194
     3  H    0.253328
     4  O   -0.503158
     5  H    0.249340
     6  H    0.253798
 Sum of Mulliken charges =  -0.00000

 Dipole moment (field-independent basis, Debye):
    X=             -1.1884    Y=             -0.4155    Z=              0.0000  Tot=              1.2589
 Quadrupole moment (field-independent basis, Debye-Ang):
   XX=             -8.5704   YY=              6.4504   ZZ=            -14.7106
   XY=             -2.1388   XZ=              0.0000   YZ=              0.0000

 Normal termination of Gaussian 16 at Fri Aug 26 19:55:52 2022.
