 Gaussian 16, Revision A.03,
 Gaussian 16:  ES64L-G16RevA.03 25-Dec-2016

 ------------------
 #p CCSD(T)/cc-pVTZ
 ------------------

 ------------
 H2O_H2O_2140
 ------------
 Symbolic Z-matrix:
 Charge =  0 Multiplicity = 1

                         Standard orientation:
 ---------------------------------------------------------------------
 Center     Atomic      Atomic             Coordinates (Angstroms)
 Number     Number       Type             X           Y           Z
 ---------------------------------------------------------------------
      1          8           0        0.047542   -1.906288    0.000000
      2          1           0       -0.753236   -2.475727    0.000000
      3          1           0        0.845902   -2.479111    0.000000
      4          8           0        0.047542    1.956853    0.000000
      5          1           0        0.018959    2.939038    0.000000
      6          1           0       -0.872289    1.611284    0.000000
 ---------------------------------------------------------------------

 SCF Done:  E(RHF) =  -152.106596570     A.U. after   10 cycles
 E2 =    -0.5262974902D+00 EUMP2 =    -0.15263289406016D+03
 CCSD(T)
 CCSD(T)= -0.15266009901D+03

 The electronic state is 1-A'.
 Alpha  occ. eigenvalues --  -20.55251 -20.54388  -1.32530  -1.31665  -0.69945
 Alpha  occ. eigenvalues --   -0.69048  -0.55931  -0.55040  -0.49638  -0.48778
 Alpha virt. eigenvalues --    0.13566   0.15947   0.20200   0.21856   0.53586
 Alpha virt. eigenvalues --    0.54883   0.57497   0.58377   0.64473   0.75549
 Alpha virt. eigenvalues --    0.78965   0.79357   0.80334   0.81189   0.84169

 Mulliken charges:
               1
     1  O   -0.499013
     2  H    0.246139
     3  H    0.254223
     4  O   -0.500975
     5  H    0.243650
     6  H    0.255976
 Sum of Mulliken charges =  -0.00000

 Dipole moment (field-independent basis, Debye):
    X=             -1.6013    Y=             -0.9257    Z=              0.0000  Tot=              1.8496
 Quadrupole moment (field-independent basis, Debye-Ang):
   XX=             -9.2351   YY=              1.2727   ZZ=            -14.7129
   XY=             -2.4539   XZ=              0.0000   YZ=              0.0000

 Normal termination of Gaussian 16 at Sat Aug 27 08:48:44 2022.
