 Gaussian 16, Revision A.03,
 Gaussian 16:  ES64L-G16RevA.03 25-Dec-2016

 ------------------
 #p CCSD(T)/cc-pVTZ
 ------------------

 ------------
 H2O_H2O_3755
 ------------
 Symbolic Z-matrix:
 Charge =  0 Multiplicity = 1

                         Standard orientation:
 ---------------------------------------------------------------------
 Center     Atomic      Atomic             Coordinates (Angstroms)
 Number     Number       Type             X           Y           Z
 ---------------------------------------------------------------------
      1          8           0        0.018360   -2.794704    0.000000
      2          1           0       -0.781533   -3.365385    0.000000
      3          1           0        0.817608   -3.366288    0.000000
      4          8           0        0.018360    2.800746    0.000000
      5          1           0        0.592365    3.598257    0.000000
      6          1           0       -0.922201    3.085085    0.000000
 ---------------------------------------------------------------------

 SCF Done:  E(RHF) =  -152.106589044     A.U. after   10 cycles
 E2 =    -0.5259630100D+00 EUMP2 =    -0.15263255205358D+03
 CCSD(T)
 CCSD(T)= -0.15265978889D+03

 The electronic state is 1-A'.
 Alpha  occ. eigenvalues --  -20.55103 -20.55059  -1.32398  -1.32353  -0.69806
 Alpha  occ. eigenvalues --   -0.69760  -0.55807  -0.55762  -0.49504  -0.49459
 Alpha virt. eigenvalues --    0.14450   0.14605   0.20523   0.20600   0.54753
 Alpha virt. eigenvalues --    0.54825   0.57608   0.57661   0.68218   0.68724
 Alpha virt. eigenvalues --    0.79374   0.79418   0.80819   0.80874   0.82751

 Mulliken charges:
               1
     1  O   -0.504046
     2  H    0.251436
     3  H    0.252610
     4  O   -0.503982
     5  H    0.251183
     6  H    0.252798
 Sum of Mulliken charges =  -0.00000

 Dipole moment (field-independent basis, Debye):
    X=             -0.6293    Y=             -0.1059    Z=              0.0000  Tot=              0.6382
 Quadrupole moment (field-independent basis, Debye-Ang):
   XX=             -8.0193   YY=              9.9514   ZZ=            -14.7104
   XY=             -1.2267   XZ=              0.0000   YZ=              0.0000

 Normal termination of Gaussian 16 at Sat Aug 27 03:02:53 2022.
