 Gaussian 16, Revision A.03,
 Gaussian 16:  ES64L-G16RevA.03 25-Dec-2016

 ------------------
 #p CCSD(T)/cc-pVTZ
 ------------------

 ------------
 H2O_H2O_2369
 ------------
 Symbolic Z-matrix:
 Charge =  0 Multiplicity = 1

                         Standard orientation:
 ---------------------------------------------------------------------
 Center     Atomic      Atomic             Coordinates (Angstroms)
 Number     Number       Type             X           Y           Z
 ---------------------------------------------------------------------
      1          8           0        0.054170   -2.011451    0.000000
      2          1           0       -0.746696   -2.580766    0.000000
      3          1           0        0.852442   -2.584398    0.000000
      4          8           0        0.054170    2.088715    0.000000
      5          1           0       -0.227502    3.030080    0.000000
      6          1           0       -0.744966    1.516974    0.000000
 ---------------------------------------------------------------------

 SCF Done:  E(RHF) =  -152.107585343     A.U. after   10 cycles
 E2 =    -0.5261429795D+00 EUMP2 =    -0.15263372832203D+03
 CCSD(T)
 CCSD(T)= -0.15266091741D+03

 The electronic state is 1-A'.
 Alpha  occ. eigenvalues --  -20.55647 -20.54454  -1.32928  -1.31743  -0.70338
 Alpha  occ. eigenvalues --   -0.69118  -0.56363  -0.55181  -0.50042  -0.48863
 Alpha virt. eigenvalues --    0.13287   0.15834   0.20023   0.22054   0.54083
 Alpha virt. eigenvalues --    0.54531   0.57186   0.58361   0.65700   0.73983
 Alpha virt. eigenvalues --    0.78771   0.79477   0.80060   0.81879   0.82836

 Mulliken charges:
               1
     1  O   -0.504519
     2  H    0.249270
     3  H    0.256970
     4  O   -0.507748
     5  H    0.246214
     6  H    0.259814
 Sum of Mulliken charges =   0.00000

 Dipole moment (field-independent basis, Debye):
    X=             -1.8335    Y=             -1.4063    Z=              0.0000  Tot=              2.3107
 Quadrupole moment (field-independent basis, Debye-Ang):
   XX=             -9.6492   YY=              0.5291   ZZ=            -14.7146
   XY=             -3.4658   XZ=              0.0000   YZ=              0.0000

 Normal termination of Gaussian 16 at Sat Aug 27 10:10:42 2022.
