 Gaussian 16, Revision A.03,
 Gaussian 16:  ES64L-G16RevA.03 25-Dec-2016

 ------------------
 #p CCSD(T)/cc-pVTZ
 ------------------

 ------------
 H2O_H2O_2721
 ------------
 Symbolic Z-matrix:
 Charge =  0 Multiplicity = 1

                         Standard orientation:
 ---------------------------------------------------------------------
 Center     Atomic      Atomic             Coordinates (Angstroms)
 Number     Number       Type             X           Y           Z
 ---------------------------------------------------------------------
      1          8           0        0.056115   -2.189755    0.000000
      2          1           0       -0.744686   -2.759161    0.000000
      3          1           0        0.854452   -2.762610    0.000000
      4          8           0        0.056115    2.281455    0.000000
      5          1           0       -0.346121    3.177955    0.000000
      6          1           0       -0.661482    1.610216    0.000000
 ---------------------------------------------------------------------

 SCF Done:  E(RHF) =  -152.107885572     A.U. after   10 cycles
 E2 =    -0.5260095944D+00 EUMP2 =    -0.15263389516643D+03
 CCSD(T)
 CCSD(T)= -0.15266108695D+03

 The electronic state is 1-A'.
 Alpha  occ. eigenvalues --  -20.55783 -20.54615  -1.33070  -1.31912  -0.70477
 Alpha  occ. eigenvalues --   -0.69292  -0.56527  -0.55364  -0.50185  -0.49032
 Alpha virt. eigenvalues --    0.13265   0.15543   0.19972   0.21718   0.54014
 Alpha virt. eigenvalues --    0.54768   0.57068   0.58132   0.66432   0.71734
 Alpha virt. eigenvalues --    0.78700   0.79616   0.79829   0.80888   0.82643

 Mulliken charges:
               1
     1  O   -0.508418
     2  H    0.251611
     3  H    0.257915
     4  O   -0.510041
     5  H    0.248409
     6  H    0.260525
 Sum of Mulliken charges =  -0.00000

 Dipole moment (field-independent basis, Debye):
    X=             -1.9098    Y=             -1.6496    Z=              0.0000  Tot=              2.5236
 Quadrupole moment (field-independent basis, Debye-Ang):
   XX=             -9.7823   YY=              0.5192   ZZ=            -14.7145
   XY=             -4.1939   XZ=              0.0000   YZ=              0.0000

 Normal termination of Gaussian 16 at Fri Aug 26 15:27:27 2022.
