 Gaussian 16, Revision A.03,
 Gaussian 16:  ES64L-G16RevA.03 25-Dec-2016

 ------------------
 #p CCSD(T)/cc-pVTZ
 ------------------

 ------------
 H2O_H2O_3302
 ------------
 Symbolic Z-matrix:
 Charge =  0 Multiplicity = 1

                         Standard orientation:
 ---------------------------------------------------------------------
 Center     Atomic      Atomic             Coordinates (Angstroms)
 Number     Number       Type             X           Y           Z
 ---------------------------------------------------------------------
      1          8           0        0.007455   -2.558130    0.000000
      2          1           0       -0.792259   -3.129062    0.000000
      3          1           0        0.806883   -3.129463    0.000000
      4          8           0        0.007455    2.559104    0.000000
      5          1           0        0.725806    3.229535    0.000000
      6          1           0       -0.859708    3.021201    0.000000
 ---------------------------------------------------------------------

 SCF Done:  E(RHF) =  -152.106251867     A.U. after   10 cycles
 E2 =    -0.5260083444D+00 EUMP2 =    -0.15263226021147D+03
 CCSD(T)
 CCSD(T)= -0.15265950323D+03

 The electronic state is 1-A'.
 Alpha  occ. eigenvalues --  -20.54960 -20.54951  -1.32253  -1.32244  -0.69663
 Alpha  occ. eigenvalues --   -0.69654  -0.55651  -0.55630  -0.49356  -0.49347
 Alpha virt. eigenvalues --    0.14459   0.14789   0.20586   0.20695   0.54838
 Alpha virt. eigenvalues --    0.54992   0.57708   0.57760   0.67761   0.69516
 Alpha virt. eigenvalues --    0.79510   0.79538   0.80940   0.81019   0.82751

 Mulliken charges:
               1
     1  O   -0.502064
     2  H    0.250727
     3  H    0.251338
     4  O   -0.502047
     5  H    0.250625
     6  H    0.251422
 Sum of Mulliken charges =  -0.00000

 Dipole moment (field-independent basis, Debye):
    X=             -0.2549    Y=             -0.0171    Z=              0.0000  Tot=              0.2555
 Quadrupole moment (field-independent basis, Debye-Ang):
   XX=             -7.8477   YY=              8.3561   ZZ=            -14.7099
   XY=             -0.4259   XZ=              0.0000   YZ=              0.0000

 Normal termination of Gaussian 16 at Fri Aug 26 21:11:45 2022.
