 Gaussian 16, Revision A.03,
 Gaussian 16:  ES64L-G16RevA.03 25-Dec-2016

 ------------------
 #p CCSD(T)/cc-pVTZ
 ------------------

 ------------
 H2O_H2O_1990
 ------------
 Symbolic Z-matrix:
 Charge =  0 Multiplicity = 1

                         Standard orientation:
 ---------------------------------------------------------------------
 Center     Atomic      Atomic             Coordinates (Angstroms)
 Number     Number       Type             X           Y           Z
 ---------------------------------------------------------------------
      1          8           0        0.047544   -1.826517    0.000000
      2          1           0       -0.753286   -2.395883    0.000000
      3          1           0        0.845852   -2.399413    0.000000
      4          8           0        0.047544    1.877073    0.000000
      5          1           0        0.019051    2.859262    0.000000
      6          1           0       -0.872318    1.531588    0.000000
 ---------------------------------------------------------------------

 SCF Done:  E(RHF) =  -152.106488298     A.U. after   10 cycles
 E2 =    -0.5264097504D+00 EUMP2 =    -0.15263289804806D+03
 CCSD(T)
 CCSD(T)= -0.15266009817D+03

 The electronic state is 1-A'.
 Alpha  occ. eigenvalues --  -20.55231 -20.54286  -1.32508  -1.31559  -0.69924
 Alpha  occ. eigenvalues --   -0.68940  -0.55912  -0.54910  -0.49616  -0.48672
 Alpha virt. eigenvalues --    0.13574   0.16107   0.20185   0.22053   0.53538
 Alpha virt. eigenvalues --    0.54857   0.57509   0.58489   0.64248   0.76128
 Alpha virt. eigenvalues --    0.78790   0.78896   0.80600   0.80606   0.84785

 Mulliken charges:
               1
     1  O   -0.496533
     2  H    0.244694
     3  H    0.253624
     4  O   -0.499284
     5  H    0.241973
     6  H    0.255526
 Sum of Mulliken charges =  -0.00000

 Dipole moment (field-independent basis, Debye):
    X=             -1.5949    Y=             -0.9326    Z=              0.0000  Tot=              1.8476
 Quadrupole moment (field-independent basis, Debye-Ang):
   XX=             -9.2384   YY=              0.7564   ZZ=            -14.7133
   XY=             -2.3270   XZ=              0.0000   YZ=              0.0000

 Normal termination of Gaussian 16 at Sat Aug 27 07:57:36 2022.
