 Gaussian 16, Revision A.03,
 Gaussian 16:  ES64L-G16RevA.03 25-Dec-2016

 ------------------
 #p CCSD(T)/cc-pVTZ
 ------------------

 ------------
 H2O_H2O_3754
 ------------
 Symbolic Z-matrix:
 Charge =  0 Multiplicity = 1

                         Standard orientation:
 ---------------------------------------------------------------------
 Center     Atomic      Atomic             Coordinates (Angstroms)
 Number     Number       Type             X           Y           Z
 ---------------------------------------------------------------------
      1          8           0        0.014783   -2.795879    0.000000
      2          1           0       -0.785048   -3.366647    0.000000
      3          1           0        0.814094   -3.367374    0.000000
      4          8           0        0.014783    2.799758    0.000000
      5          1           0        0.639635    3.558089    0.000000
      6          1           0       -0.905207    3.144902    0.000000
 ---------------------------------------------------------------------

 SCF Done:  E(RHF) =  -152.106565267     A.U. after   10 cycles
 E2 =    -0.5259649022D+00 EUMP2 =    -0.15263253016889D+03
 CCSD(T)
 CCSD(T)= -0.15265976752D+03

 The electronic state is 1-A'.
 Alpha  occ. eigenvalues --  -20.55089 -20.55060  -1.32383  -1.32355  -0.69792
 Alpha  occ. eigenvalues --   -0.69762  -0.55791  -0.55762  -0.49489  -0.49460
 Alpha virt. eigenvalues --    0.14460   0.14604   0.20533   0.20596   0.54766
 Alpha virt. eigenvalues --    0.54825   0.57620   0.57659   0.68230   0.68731
 Alpha virt. eigenvalues --    0.79389   0.79418   0.80834   0.80873   0.82761

 Mulliken charges:
               1
     1  O   -0.503904
     2  H    0.251480
     3  H    0.252425
     4  O   -0.503862
     5  H    0.251287
     6  H    0.252575
 Sum of Mulliken charges =  -0.00000

 Dipole moment (field-independent basis, Debye):
    X=             -0.5067    Y=             -0.0680    Z=              0.0000  Tot=              0.5112
 Quadrupole moment (field-independent basis, Debye-Ang):
   XX=             -7.9450   YY=             10.0921   ZZ=            -14.7103
   XY=             -0.9776   XZ=              0.0000   YZ=              0.0000

 Normal termination of Gaussian 16 at Sat Aug 27 03:00:59 2022.
