 Gaussian 16, Revision A.03,
 Gaussian 16:  ES64L-G16RevA.03 25-Dec-2016

 ------------------
 #p CCSD(T)/cc-pVTZ
 ------------------

 ------------
 H2O_H2O_3692
 ------------
 Symbolic Z-matrix:
 Charge =  0 Multiplicity = 1

                         Standard orientation:
 ---------------------------------------------------------------------
 Center     Atomic      Atomic             Coordinates (Angstroms)
 Number     Number       Type             X           Y           Z
 ---------------------------------------------------------------------
      1          8           0        0.051274   -2.723588    0.000000
      2          1           0       -0.749210   -3.293440    0.000000
      3          1           0        0.849930   -3.295999    0.000000
      4          8           0        0.051274    2.787130    0.000000
      5          1           0       -0.105765    3.757101    0.000000
      6          1           0       -0.815342    2.324007    0.000000
 ---------------------------------------------------------------------

 SCF Done:  E(RHF) =  -152.107242118     A.U. after   10 cycles
 E2 =    -0.5259142269D+00 EUMP2 =    -0.15263315634452D+03
 CCSD(T)
 CCSD(T)= -0.15266037847D+03

 The electronic state is 1-A'.
 Alpha  occ. eigenvalues --  -20.55495 -20.55002  -1.32793  -1.32298  -0.70200
 Alpha  occ. eigenvalues --   -0.69695  -0.56232  -0.55736  -0.49903  -0.49410
 Alpha virt. eigenvalues --    0.14056   0.14742   0.20213   0.20790   0.54347
 Alpha virt. eigenvalues --    0.54879   0.57266   0.57750   0.67694   0.68784
 Alpha virt. eigenvalues --    0.78978   0.79460   0.80401   0.80851   0.82499

 Mulliken charges:
               1
     1  O   -0.507922
     2  H    0.252276
     3  H    0.255665
     4  O   -0.507520
     5  H    0.250793
     6  H    0.256708
 Sum of Mulliken charges =  -0.00000

 Dipole moment (field-independent basis, Debye):
    X=             -1.7578    Y=             -1.1170    Z=              0.0000  Tot=              2.0827
 Quadrupole moment (field-independent basis, Debye-Ang):
   XX=             -9.4576   YY=              5.4413   ZZ=            -14.7119
   XY=             -4.2806   XZ=              0.0000   YZ=              0.0000

 Normal termination of Gaussian 16 at Sat Aug 27 02:32:14 2022.
