 Gaussian 16, Revision A.03,
 Gaussian 16:  ES64L-G16RevA.03 25-Dec-2016

 ------------------
 #p CCSD(T)/cc-pVTZ
 ------------------

 ------------
 H2O_H2O_2410
 ------------
 Symbolic Z-matrix:
 Charge =  0 Multiplicity = 1

                         Standard orientation:
 ---------------------------------------------------------------------
 Center     Atomic      Atomic             Coordinates (Angstroms)
 Number     Number       Type             X           Y           Z
 ---------------------------------------------------------------------
      1          8           0        0.034785   -2.067240    0.000000
      2          1           0       -0.765607   -2.637220    0.000000
      3          1           0        0.833533   -2.639523    0.000000
      4          8           0        0.034785    2.090744    0.000000
      5          1           0        0.322798    3.030189    0.000000
      6          1           0       -0.947288    2.058520    0.000000
 ---------------------------------------------------------------------

 SCF Done:  E(RHF) =  -152.105946590     A.U. after   10 cycles
 E2 =    -0.5261849634D+00 EUMP2 =    -0.15263213155313D+03
 CCSD(T)
 CCSD(T)= -0.15265936607D+03

 The electronic state is 1-A'.
 Alpha  occ. eigenvalues --  -20.54928 -20.54598  -1.32214  -1.31881  -0.69628
 Alpha  occ. eigenvalues --   -0.69282  -0.55607  -0.55221  -0.49316  -0.48985
 Alpha virt. eigenvalues --    0.13966   0.15545   0.20439   0.21210   0.54073
 Alpha virt. eigenvalues --    0.55431   0.57727   0.58072   0.64359   0.73911
 Alpha virt. eigenvalues --    0.79415   0.80020   0.80603   0.81212   0.82637

 Mulliken charges:
               1
     1  O   -0.499097
     2  H    0.247173
     3  H    0.252173
     4  O   -0.498801
     5  H    0.245920
     6  H    0.252633
 Sum of Mulliken charges =   0.00000

 Dipole moment (field-independent basis, Debye):
    X=             -1.1785    Y=             -0.4236    Z=              0.0000  Tot=              1.2523
 Quadrupole moment (field-independent basis, Debye-Ang):
   XX=             -8.5805   YY=              3.5399   ZZ=            -14.7106
   XY=             -1.6722   XZ=              0.0000   YZ=              0.0000

 Normal termination of Gaussian 16 at Sat Aug 27 10:24:20 2022.
