 Gaussian 16, Revision A.03,
 Gaussian 16:  ES64L-G16RevA.03 25-Dec-2016

 ------------------
 #p CCSD(T)/cc-pVTZ
 ------------------

 ------------
 H2O_H2O_2319
 ------------
 Symbolic Z-matrix:
 Charge =  0 Multiplicity = 1

                         Standard orientation:
 ---------------------------------------------------------------------
 Center     Atomic      Atomic             Coordinates (Angstroms)
 Number     Number       Type             X           Y           Z
 ---------------------------------------------------------------------
      1          8           0        0.054171   -1.984862    0.000000
      2          1           0       -0.746712   -2.554152    0.000000
      3          1           0        0.852426   -2.557832    0.000000
      4          8           0        0.054171    2.062122    0.000000
      5          1           0       -0.227473    3.003495    0.000000
      6          1           0       -0.744982    1.490405    0.000000
 ---------------------------------------------------------------------

 SCF Done:  E(RHF) =  -152.107599244     A.U. after   10 cycles
 E2 =    -0.5261665574D+00 EUMP2 =    -0.15263376580160D+03
 CCSD(T)
 CCSD(T)= -0.15266095258D+03

 The electronic state is 1-A'.
 Alpha  occ. eigenvalues --  -20.55653 -20.54422  -1.32933  -1.31711  -0.70343
 Alpha  occ. eigenvalues --   -0.69085  -0.56366  -0.55148  -0.50046  -0.48831
 Alpha virt. eigenvalues --    0.13276   0.15887   0.20016   0.22142   0.54107
 Alpha virt. eigenvalues --    0.54477   0.57181   0.58405   0.65606   0.74227
 Alpha virt. eigenvalues --    0.78744   0.79401   0.80109   0.81677   0.83153

 Mulliken charges:
               1
     1  O   -0.503998
     2  H    0.248980
     3  H    0.256917
     4  O   -0.507655
     5  H    0.245876
     6  H    0.259880
 Sum of Mulliken charges =  -0.00000

 Dipole moment (field-independent basis, Debye):
    X=             -1.8318    Y=             -1.4095    Z=              0.0000  Tot=              2.3113
 Quadrupole moment (field-independent basis, Debye-Ang):
   XX=             -9.6494   YY=              0.3859   ZZ=            -14.7147
   XY=             -3.4176   XZ=              0.0000   YZ=              0.0000

 Normal termination of Gaussian 16 at Sat Aug 27 09:50:49 2022.
