 Gaussian 16, Revision A.03,
 Gaussian 16:  ES64L-G16RevA.03 25-Dec-2016

 ------------------
 #p CCSD(T)/cc-pVTZ
 ------------------

 ------------
 H2O_H2O_4377
 ------------
 Symbolic Z-matrix:
 Charge =  0 Multiplicity = 1

                         Standard orientation:
 ---------------------------------------------------------------------
 Center     Atomic      Atomic             Coordinates (Angstroms)
 Number     Number       Type             X           Y           Z
 ---------------------------------------------------------------------
      1          8           0        0.007455   -3.129854    0.000000
      2          1           0       -0.792233   -3.700822    0.000000
      3          1           0        0.806909   -3.701150    0.000000
      4          8           0        0.007455    3.130828    0.000000
      5          1           0        0.725775    3.801292    0.000000
      6          1           0       -0.859729    3.592887    0.000000
 ---------------------------------------------------------------------

 SCF Done:  E(RHF) =  -152.106802608     A.U. after   10 cycles
 E2 =    -0.5259322968D+00 EUMP2 =    -0.15263273490509D+03
 CCSD(T)
 CCSD(T)= -0.15265996790D+03

 The electronic state is 1-A'.
 Alpha  occ. eigenvalues --  -20.55184 -20.55178  -1.32480  -1.32474  -0.69887
 Alpha  occ. eigenvalues --   -0.69881  -0.55899  -0.55893  -0.49587  -0.49581
 Alpha virt. eigenvalues --    0.14431   0.14461   0.20482   0.20497   0.54681
 Alpha virt. eigenvalues --    0.54690   0.57546   0.57555   0.68308   0.68374
 Alpha virt. eigenvalues --    0.79292   0.79298   0.80736   0.80742   0.82665

 Mulliken charges:
               1
     1  O   -0.505293
     2  H    0.252473
     3  H    0.252820
     4  O   -0.505287
     5  H    0.252402
     6  H    0.252886
 Sum of Mulliken charges =  -0.00000

 Dipole moment (field-independent basis, Debye):
    X=             -0.2561    Y=             -0.0170    Z=              0.0000  Tot=              0.2566
 Quadrupole moment (field-independent basis, Debye-Ang):
   XX=             -7.8383   YY=             12.9352   ZZ=            -14.7106
   XY=             -0.5705   XZ=              0.0000   YZ=              0.0000

 4196\MP4DQ=-152.6418608\MP4SDQ=-152.644921\CCSD=-152.6443326\CCSD(T)=-
 Normal termination of Gaussian 16 at Sat Aug 27 06:58:20 2022.
