 Gaussian 16, Revision A.03,
 Gaussian 16:  ES64L-G16RevA.03 25-Dec-2016

 ------------------
 #p CCSD(T)/cc-pVTZ
 ------------------

 ----------
 H2O_H2O_46
 ----------
 Symbolic Z-matrix:
 Charge =  0 Multiplicity = 1

                         Standard orientation:
 ---------------------------------------------------------------------
 Center     Atomic      Atomic             Coordinates (Angstroms)
 Number     Number       Type             X           Y           Z
 ---------------------------------------------------------------------
      1          8           0        0.056287   -0.767314    0.000000
      2          1           0       -0.746657   -1.333693    0.000000
      3          1           0        0.852457   -1.343178    0.000000
      4          8           0        0.056287    0.858590    0.000000
      5          1           0       -0.342562    1.756601    0.000000
      6          1           0       -0.663838    0.190063    0.000000
 ---------------------------------------------------------------------

 SCF Done:  E(RHF) =  -151.876320544     A.U. after   12 cycles
 E2 =    -0.5541133551D+00 EUMP2 =    -0.15243043389934D+03
 CCSD(T)
 CCSD(T)= -0.15245436643D+03

 The electronic state is 1-A'.
 Alpha  occ. eigenvalues --  -20.56233 -20.47912  -1.43821  -1.25372  -0.80322
 Alpha  occ. eigenvalues --   -0.73695  -0.56680  -0.51190  -0.42385  -0.39606
 Alpha virt. eigenvalues --    0.12897   0.18008   0.20664   0.25855   0.49439
 Alpha virt. eigenvalues --    0.53475   0.62265   0.69735   0.73399   0.75732
 Alpha virt. eigenvalues --    0.77066   0.79878   0.84490   0.84823   0.89166

 Mulliken charges:
               1
     1  O   -0.256649
     2  H    0.144365
     3  H    0.201181
     4  O   -0.461349
     5  H    0.107074
     6  H    0.265377
 Sum of Mulliken charges =  -0.00000

 Dipole moment (field-independent basis, Debye):
    X=             -1.4106    Y=             -2.3675    Z=              0.0000  Tot=              2.7558
 Quadrupole moment (field-independent basis, Debye-Ang):
   XX=             -9.8591   YY=             -9.4705   ZZ=            -14.5180
   XY=             -1.3957   XZ=              0.0000   YZ=              0.0000

 Normal termination of Gaussian 16 at Fri Aug 26 12:14:04 2022.
