 Gaussian 16, Revision A.03,
 Gaussian 16:  ES64L-G16RevA.03 25-Dec-2016

 ------------------
 #p CCSD(T)/cc-pVTZ
 ------------------

 ------------
 H2O_H2O_2852
 ------------
 Symbolic Z-matrix:
 Charge =  0 Multiplicity = 1

                         Standard orientation:
 ---------------------------------------------------------------------
 Center     Atomic      Atomic             Coordinates (Angstroms)
 Number     Number       Type             X           Y           Z
 ---------------------------------------------------------------------
      1          8           0        0.007455   -2.318804    0.000000
      2          1           0       -0.792274   -2.889715    0.000000
      3          1           0        0.806868   -2.890157    0.000000
      4          8           0        0.007455    2.319777    0.000000
      5          1           0        0.725823    2.990189    0.000000
      6          1           0       -0.859696    2.781898    0.000000
 ---------------------------------------------------------------------

 SCF Done:  E(RHF) =  -152.105866937     A.U. after   10 cycles
 E2 =    -0.5260779223D+00 EUMP2 =    -0.15263194485951D+03
 CCSD(T)
 CCSD(T)= -0.15265919304D+03

 The electronic state is 1-A'.
 Alpha  occ. eigenvalues --  -20.54821 -20.54810  -1.32112  -1.32101  -0.69524
 Alpha  occ. eigenvalues --   -0.69512  -0.55516  -0.55437  -0.49214  -0.49201
 Alpha virt. eigenvalues --    0.14377   0.15074   0.20618   0.20836   0.54815
 Alpha virt. eigenvalues --    0.55295   0.57787   0.57896   0.66258   0.71273
 Alpha virt. eigenvalues --    0.79602   0.79730   0.81089   0.81168   0.82412

 Mulliken charges:
               1
     1  O   -0.499745
     2  H    0.249474
     3  H    0.250273
     4  O   -0.499718
     5  H    0.249359
     6  H    0.250357
 Sum of Mulliken charges =   0.00000

 Dipole moment (field-independent basis, Debye):
    X=             -0.2540    Y=             -0.0173    Z=              0.0000  Tot=              0.2546
 Quadrupole moment (field-independent basis, Debye-Ang):
   XX=             -7.8549   YY=              6.4230   ZZ=            -14.7096
   XY=             -0.3658   XZ=              0.0000   YZ=              0.0000

 Normal termination of Gaussian 16 at Fri Aug 26 16:47:04 2022.
