 Gaussian 16, Revision A.03,
 Gaussian 16:  ES64L-G16RevA.03 25-Dec-2016

 ------------------
 #p CCSD(T)/cc-pVTZ
 ------------------

 ------------
 H2O_H2O_1925
 ------------
 Symbolic Z-matrix:
 Charge =  0 Multiplicity = 1

                         Standard orientation:
 ---------------------------------------------------------------------
 Center     Atomic      Atomic             Coordinates (Angstroms)
 Number     Number       Type             X           Y           Z
 ---------------------------------------------------------------------
      1          8           0        0.000000   -0.000000    1.827384
      2          1           0        0.000000    0.799571    2.398516
      3          1           0       -0.000000   -0.799571    2.398516
      4          8           0        0.000000   -0.000000   -1.827384
      5          1           0       -0.000000   -0.799571   -2.398516
      6          1           0        0.000000    0.799571   -2.398516
 ---------------------------------------------------------------------

 SCF Done:  E(RHF) =  -152.104401818     A.U. after   10 cycles
 E2 =    -0.5265265002D+00 EUMP2 =    -0.15263092831871D+03
 CCSD(T)
 CCSD(T)= -0.15265818162D+03

 The electronic state is 1-AG.
 Alpha  occ. eigenvalues --  -20.54375 -20.54375  -1.31673  -1.31635  -0.69094
 Alpha  occ. eigenvalues --   -0.69060  -0.55307  -0.54541  -0.48803  -0.48692
 Alpha virt. eigenvalues --    0.14224   0.15946   0.20624   0.21315   0.53757
 Alpha virt. eigenvalues --    0.57188   0.57962   0.58333   0.60931   0.75652
 Alpha virt. eigenvalues --    0.79238   0.80035   0.80530   0.80911   0.83170

 Mulliken charges:
               1
     1  O   -0.488129
     2  H    0.244065
     3  H    0.244065
     4  O   -0.488129
     5  H    0.244065
     6  H    0.244065
 Sum of Mulliken charges =   0.00000

 Dipole moment (field-independent basis, Debye):
    X=             -0.0000    Y=              0.0000    Z=             -0.0000  Tot=              0.0000
 Quadrupole moment (field-independent basis, Debye-Ang):
   XX=            -14.7089   YY=             -7.8502   ZZ=              2.4174
   XY=              0.0000   XZ=              0.0000   YZ=             -0.0000

 \MP4DQ=-152.6399651\MP4SDQ=-152.6430639\CCSD=-152.6424584\CCSD(T)=-152
 Normal termination of Gaussian 16 at Sat Aug 27 07:34:59 2022.
