 Gaussian 16, Revision A.03,
 Gaussian 16:  ES64L-G16RevA.03 25-Dec-2016

 ------------------
 #p CCSD(T)/cc-pVTZ
 ------------------

 ------------
 H2O_H2O_3104
 ------------
 Symbolic Z-matrix:
 Charge =  0 Multiplicity = 1

                         Standard orientation:
 ---------------------------------------------------------------------
 Center     Atomic      Atomic             Coordinates (Angstroms)
 Number     Number       Type             X           Y           Z
 ---------------------------------------------------------------------
      1          8           0        0.014783   -2.450186    0.000000
      2          1           0       -0.785084   -3.020903    0.000000
      3          1           0        0.814058   -3.021733    0.000000
      4          8           0        0.014783    2.454063    0.000000
      5          1           0        0.639684    3.212355    0.000000
      6          1           0       -0.905185    2.799267    0.000000
 ---------------------------------------------------------------------

 SCF Done:  E(RHF) =  -152.106141447     A.U. after   10 cycles
 E2 =    -0.5260307705D+00 EUMP2 =    -0.15263217221787D+03
 CCSD(T)
 CCSD(T)= -0.15265941663D+03

 The electronic state is 1-A'.
 Alpha  occ. eigenvalues --  -20.54928 -20.54891  -1.32221  -1.32183  -0.69631
 Alpha  occ. eigenvalues --   -0.69592  -0.55613  -0.55561  -0.49323  -0.49285
 Alpha virt. eigenvalues --    0.14410   0.14906   0.20585   0.20759   0.54823
 Alpha virt. eigenvalues --    0.55096   0.57727   0.57814   0.67257   0.70132
 Alpha virt. eigenvalues --    0.79538   0.79604   0.80970   0.81092   0.82662

 Mulliken charges:
               1
     1  O   -0.501416
     2  H    0.250028
     3  H    0.251391
     4  O   -0.501335
     5  H    0.249782
     6  H    0.251551
 Sum of Mulliken charges =  -0.00000

 Dipole moment (field-independent basis, Debye):
    X=             -0.5048    Y=             -0.0685    Z=              0.0000  Tot=              0.5094
 Quadrupole moment (field-independent basis, Debye-Ang):
   XX=             -7.9522   YY=              7.3474   ZZ=            -14.7099
   XY=             -0.8049   XZ=              0.0000   YZ=              0.0000

 Normal termination of Gaussian 16 at Fri Aug 26 19:28:00 2022.
