 Gaussian 16, Revision A.03,
 Gaussian 16:  ES64L-G16RevA.03 25-Dec-2016

 ------------------
 #p CCSD(T)/cc-pVTZ
 ------------------

 ------------
 H2O_H2O_3074
 ------------
 Symbolic Z-matrix:
 Charge =  0 Multiplicity = 1

                         Standard orientation:
 ---------------------------------------------------------------------
 Center     Atomic      Atomic             Coordinates (Angstroms)
 Number     Number       Type             X           Y           Z
 ---------------------------------------------------------------------
      1          8           0        0.057229   -2.363791    0.000000
      2          1           0       -0.743500   -2.933298    0.000000
      3          1           0        0.855638   -2.936546    0.000000
      4          8           0        0.057229    2.477786    0.000000
      5          1           0       -0.512278    3.278515    0.000000
      6          1           0       -0.515526    1.679375    0.000000
 ---------------------------------------------------------------------

 SCF Done:  E(RHF) =  -152.108193730     A.U. after   10 cycles
 E2 =    -0.5259199155D+00 EUMP2 =    -0.15263411364507D+03
 CCSD(T)
 CCSD(T)= -0.15266130470D+03

 The electronic state is 1-A'.
 Alpha  occ. eigenvalues --  -20.55944 -20.54739  -1.33236  -1.32041  -0.70641
 Alpha  occ. eigenvalues --   -0.69427  -0.56713  -0.55503  -0.50353  -0.49162
 Alpha virt. eigenvalues --    0.13258   0.15311   0.19890   0.21472   0.53889
 Alpha virt. eigenvalues --    0.54872   0.56916   0.57960   0.66706   0.70047
 Alpha virt. eigenvalues --    0.78541   0.79569   0.79691   0.80183   0.82820

 Mulliken charges:
               1
     1  O   -0.511546
     2  H    0.253650
     3  H    0.258600
     4  O   -0.511903
     5  H    0.250157
     6  H    0.261041
 Sum of Mulliken charges =  -0.00000

 Dipole moment (field-independent basis, Debye):
    X=             -1.9551    Y=             -2.0325    Z=              0.0000  Tot=              2.8202
 Quadrupole moment (field-independent basis, Debye-Ang):
   XX=             -9.8623   YY=             -0.4237   ZZ=            -14.7148
   XY=             -5.0336   XZ=              0.0000   YZ=              0.0000

 Normal termination of Gaussian 16 at Fri Aug 26 19:10:15 2022.
