 Gaussian 16, Revision A.03,
 Gaussian 16:  ES64L-G16RevA.03 25-Dec-2016

 ------------------
 #p CCSD(T)/cc-pVTZ
 ------------------

 ------------
 H2O_H2O_4278
 ------------
 Symbolic Z-matrix:
 Charge =  0 Multiplicity = 1

                         Standard orientation:
 ---------------------------------------------------------------------
 Center     Atomic      Atomic             Coordinates (Angstroms)
 Number     Number       Type             X           Y           Z
 ---------------------------------------------------------------------
      1          8           0        0.011143   -3.076011    0.000000
      2          1           0       -0.788606   -3.646894    0.000000
      3          1           0        0.810536   -3.647392    0.000000
      4          8           0        0.011143    3.078199    0.000000
      5          1           0        0.684151    3.794136    0.000000
      6          1           0       -0.884361    3.482647    0.000000
 ---------------------------------------------------------------------

 SCF Done:  E(RHF) =  -152.106776915     A.U. after   10 cycles
 E2 =    -0.5259359615D+00 EUMP2 =    -0.15263271287647D+03
 CCSD(T)
 CCSD(T)= -0.15265994634D+03

 The electronic state is 1-A'.
 Alpha  occ. eigenvalues --  -20.55175 -20.55162  -1.32470  -1.32457  -0.69878
 Alpha  occ. eigenvalues --   -0.69864  -0.55888  -0.55875  -0.49577  -0.49564
 Alpha virt. eigenvalues --    0.14436   0.14477   0.20488   0.20510   0.54690
 Alpha virt. eigenvalues --    0.54708   0.57553   0.57569   0.68310   0.68405
 Alpha virt. eigenvalues --    0.79302   0.79315   0.80746   0.80761   0.82675

 Mulliken charges:
               1
     1  O   -0.505143
     2  H    0.252299
     3  H    0.252844
     4  O   -0.505128
     5  H    0.252184
     6  H    0.252943
 Sum of Mulliken charges =   0.00000

 Dipole moment (field-independent basis, Debye):
    X=             -0.3827    Y=             -0.0382    Z=              0.0000  Tot=              0.3846
 Quadrupole moment (field-independent basis, Debye-Ang):
   XX=             -7.8820   YY=             12.4214   ZZ=            -14.7106
   XY=             -0.8367   XZ=              0.0000   YZ=              0.0000

 Normal termination of Gaussian 16 at Sat Aug 27 06:24:33 2022.
