 Gaussian 16, Revision A.03,
 Gaussian 16:  ES64L-G16RevA.03 25-Dec-2016

 ------------------
 #p CCSD(T)/cc-pVTZ
 ------------------

 ------------
 H2O_H2O_2449
 ------------
 Symbolic Z-matrix:
 Charge =  0 Multiplicity = 1

                         Standard orientation:
 ---------------------------------------------------------------------
 Center     Atomic      Atomic             Coordinates (Angstroms)
 Number     Number       Type             X           Y           Z
 ---------------------------------------------------------------------
      1          8           0        0.057247   -2.031413    0.000000
      2          1           0       -0.743666   -2.600661    0.000000
      3          1           0        0.855472   -2.604426    0.000000
      4          8           0        0.057247    2.145370    0.000000
      5          1           0       -0.512001    2.946284    0.000000
      6          1           0       -0.515765    1.347146    0.000000
 ---------------------------------------------------------------------

 SCF Done:  E(RHF) =  -152.108808788     A.U. after   10 cycles
 E2 =    -0.5260824393D+00 EUMP2 =    -0.15263489122747D+03
 CCSD(T)
 CCSD(T)= -0.15266205032D+03

 The electronic state is 1-A'.
 Alpha  occ. eigenvalues --  -20.56135 -20.54396  -1.33410  -1.31701  -0.70815
 Alpha  occ. eigenvalues --   -0.69073  -0.56899  -0.55172  -0.50532  -0.48828
 Alpha virt. eigenvalues --    0.12919   0.15922   0.19785   0.22674   0.53806
 Alpha virt. eigenvalues --    0.55021   0.56794   0.58530   0.66740   0.72237
 Alpha virt. eigenvalues --    0.78320   0.79338   0.80041   0.80712   0.82418

 Mulliken charges:
               1
     1  O   -0.508085
     2  H    0.252019
     3  H    0.259044
     4  O   -0.514085
     5  H    0.247876
     6  H    0.263231
 Sum of Mulliken charges =  -0.00000

 Dipole moment (field-independent basis, Debye):
    X=             -1.9417    Y=             -2.0794    Z=              0.0000  Tot=              2.8450
 Quadrupole moment (field-independent basis, Debye-Ang):
   XX=             -9.8611   YY=             -1.7508   ZZ=            -14.7174
   XY=             -4.3931   XZ=              0.0000   YZ=              0.0000

 Normal termination of Gaussian 16 at Sat Aug 27 10:37:19 2022.
