 Gaussian 16, Revision A.03,
 Gaussian 16:  ES64L-G16RevA.03 25-Dec-2016

 ------------------
 #p CCSD(T)/cc-pVTZ
 ------------------

 ------------
 H2O_H2O_1411
 ------------
 Symbolic Z-matrix:
 Charge =  0 Multiplicity = 1

                         Standard orientation:
 ---------------------------------------------------------------------
 Center     Atomic      Atomic             Coordinates (Angstroms)
 Number     Number       Type             X           Y           Z
 ---------------------------------------------------------------------
      1          8           0        0.037687   -1.532859    0.000000
      2          1           0       -0.763079   -2.102314    0.000000
      3          1           0        0.836060   -2.105665    0.000000
      4          8           0        0.037687    1.561047    0.000000
      5          1           0        0.264267    2.517168    0.000000
      6          1           0       -0.940240    1.465302    0.000000
 ---------------------------------------------------------------------

 SCF Done:  E(RHF) =  -152.103787872     A.U. after   10 cycles
 E2 =    -0.5271971984D+00 EUMP2 =    -0.15263098507053D+03
 CCSD(T)
 CCSD(T)= -0.15265822276D+03

 The electronic state is 1-A'.
 Alpha  occ. eigenvalues --  -20.54560 -20.53864  -1.31868  -1.31118  -0.69294
 Alpha  occ. eigenvalues --   -0.68530  -0.55694  -0.53785  -0.48998  -0.48180
 Alpha virt. eigenvalues --    0.14003   0.16644   0.20341   0.22267   0.53208
 Alpha virt. eigenvalues --    0.57193   0.57977   0.58768   0.65583   0.76593
 Alpha virt. eigenvalues --    0.77685   0.78218   0.79508   0.82271   0.85584

 Mulliken charges:
               1
     1  O   -0.481120
     2  H    0.235894
     3  H    0.246793
     4  O   -0.479315
     5  H    0.231633
     6  H    0.246117
 Sum of Mulliken charges =  -0.00000

 Dipole moment (field-independent basis, Debye):
    X=             -1.2353    Y=             -0.5337    Z=              0.0000  Tot=              1.3457
 Quadrupole moment (field-independent basis, Debye-Ang):
   XX=             -8.7544   YY=             -0.6312   ZZ=            -14.7132
   XY=             -1.2017   XZ=              0.0000   YZ=              0.0000

 Normal termination of Gaussian 16 at Sat Aug 27 04:35:41 2022.
