 Gaussian 16, Revision A.03,
 Gaussian 16:  ES64L-G16RevA.03 25-Dec-2016

 ------------------
 #p CCSD(T)/cc-pVTZ
 ------------------

 ------------
 H2O_H2O_2679
 ------------
 Symbolic Z-matrix:
 Charge =  0 Multiplicity = 1

                         Standard orientation:
 ---------------------------------------------------------------------
 Center     Atomic      Atomic             Coordinates (Angstroms)
 Number     Number       Type             X           Y           Z
 ---------------------------------------------------------------------
      1          8           0        0.014783   -2.224156    0.000000
      2          1           0       -0.785114   -2.794831    0.000000
      3          1           0        0.814028   -2.795745    0.000000
      4          8           0        0.014783    2.228031    0.000000
      5          1           0        0.639724    2.986290    0.000000
      6          1           0       -0.905167    2.573284    0.000000
 ---------------------------------------------------------------------

 SCF Done:  E(RHF) =  -152.105745789     A.U. after   10 cycles
 E2 =    -0.5261162125D+00 EUMP2 =    -0.15263186200114D+03
 CCSD(T)
 CCSD(T)= -0.15265910999D+03

 The electronic state is 1-A'.
 Alpha  occ. eigenvalues --  -20.54788 -20.54743  -1.32078  -1.32032  -0.69491
 Alpha  occ. eigenvalues --   -0.69442  -0.55483  -0.55350  -0.49179  -0.49131
 Alpha virt. eigenvalues --    0.14297   0.15222   0.20605   0.20917   0.54712
 Alpha virt. eigenvalues --    0.55456   0.57804   0.57959   0.65327   0.72229
 Alpha virt. eigenvalues --    0.79602   0.79831   0.81147   0.81182   0.82217

 Mulliken charges:
               1
     1  O   -0.498906
     2  H    0.248573
     3  H    0.250346
     4  O   -0.498786
     5  H    0.248284
     6  H    0.250489
 Sum of Mulliken charges =  -0.00000

 Dipole moment (field-independent basis, Debye):
    X=             -0.5028    Y=             -0.0691    Z=              0.0000  Tot=              0.5075
 Quadrupole moment (field-independent basis, Debye-Ang):
   XX=             -7.9598   YY=              5.5408   ZZ=            -14.7097
   XY=             -0.6926   XZ=              0.0000   YZ=              0.0000

 Normal termination of Gaussian 16 at Fri Aug 26 14:59:47 2022.
