 Gaussian 16, Revision A.03,
 Gaussian 16:  ES64L-G16RevA.03 25-Dec-2016

 ------------------
 #p CCSD(T)/cc-pVTZ
 ------------------

 -----------
 H2O_H2O_999
 -----------
 Symbolic Z-matrix:
 Charge =  0 Multiplicity = 1

                         Standard orientation:
 ---------------------------------------------------------------------
 Center     Atomic      Atomic             Coordinates (Angstroms)
 Number     Number       Type             X           Y           Z
 ---------------------------------------------------------------------
      1          8           0        0.057326   -1.260332    0.000000
      2          1           0       -0.744371   -1.828476    0.000000
      3          1           0        0.854760   -1.834445    0.000000
      4          8           0        0.057326    1.374132    0.000000
      5          1           0       -0.510818    2.175829    0.000000
      6          1           0       -0.516786    0.576697    0.000000
 ---------------------------------------------------------------------

 SCF Done:  E(RHF) =  -152.105969598     A.U. after   10 cycles
 E2 =    -0.5293770507D+00 EUMP2 =    -0.15263534664869D+03
 CCSD(T)
 CCSD(T)= -0.15266226227D+03

 The electronic state is 1-A'.
 Alpha  occ. eigenvalues --  -20.57146 -20.52023  -1.34777  -1.29521  -0.72098
 Alpha  occ. eigenvalues --   -0.68178  -0.57155  -0.53053  -0.51811  -0.46614
 Alpha virt. eigenvalues --    0.12824   0.18107   0.19274   0.27184   0.50448
 Alpha virt. eigenvalues --    0.55864   0.59358   0.60707   0.70807   0.73464
 Alpha virt. eigenvalues --    0.74382   0.80244   0.82637   0.83478   0.86476

 Mulliken charges:
               1
     1  O   -0.473146
     2  H    0.240796
     3  H    0.257943
     4  O   -0.525836
     5  H    0.227707
     6  H    0.272536
 Sum of Mulliken charges =  -0.00000

 Dipole moment (field-independent basis, Debye):
    X=             -1.8243    Y=             -2.4082    Z=              0.0000  Tot=              3.0212
 Quadrupole moment (field-independent basis, Debye-Ang):
   XX=             -9.8523   YY=             -5.2044   ZZ=            -14.7209
   XY=             -2.9374   XZ=              0.0000   YZ=              0.0000

 Normal termination of Gaussian 16 at Sat Aug 27 01:16:23 2022.
