 Gaussian 16, Revision A.03,
 Gaussian 16:  ES64L-G16RevA.03 25-Dec-2016

 ------------------
 #p CCSD(T)/cc-pVTZ
 ------------------

 ------------
 H2O_H2O_2087
 ------------
 Symbolic Z-matrix:
 Charge =  0 Multiplicity = 1

                         Standard orientation:
 ---------------------------------------------------------------------
 Center     Atomic      Atomic             Coordinates (Angstroms)
 Number     Number       Type             X           Y           Z
 ---------------------------------------------------------------------
      1          8           0        0.040416   -1.889068    0.000000
      2          1           0       -0.760196   -2.458741    0.000000
      3          1           0        0.838943   -2.461658    0.000000
      4          8           0        0.040416    1.922377    0.000000
      5          1           0        0.203714    2.891314    0.000000
      6          1           0       -0.929111    1.762614    0.000000
 ---------------------------------------------------------------------

 SCF Done:  E(RHF) =  -152.105920148     A.U. after   10 cycles
 E2 =    -0.5263571917D+00 EUMP2 =    -0.15263227733925D+03
 CCSD(T)
 CCSD(T)= -0.15265949716D+03

 The electronic state is 1-A'.
 Alpha  occ. eigenvalues --  -20.54973 -20.54401  -1.32252  -1.31675  -0.69670
 Alpha  occ. eigenvalues --   -0.69069  -0.55662  -0.54974  -0.49357  -0.48782
 Alpha virt. eigenvalues --    0.13778   0.15920   0.20338   0.21607   0.53398
 Alpha virt. eigenvalues --    0.55332   0.57706   0.58316   0.63696   0.75750
 Alpha virt. eigenvalues --    0.79115   0.79571   0.80451   0.81031   0.83552

 Mulliken charges:
               1
     1  O   -0.496024
     2  H    0.244837
     3  H    0.252033
     4  O   -0.496738
     5  H    0.242924
     6  H    0.252968
 Sum of Mulliken charges =  -0.00000

 Dipole moment (field-independent basis, Debye):
    X=             -1.3599    Y=             -0.6098    Z=              0.0000  Tot=              1.4903
 Quadrupole moment (field-independent basis, Debye-Ang):
   XX=             -8.8499   YY=              1.8664   ZZ=            -14.7116
   XY=             -1.8324   XZ=              0.0000   YZ=              0.0000

 Normal termination of Gaussian 16 at Sat Aug 27 08:30:47 2022.
