 Gaussian 16, Revision A.03,
 Gaussian 16:  ES64L-G16RevA.03 25-Dec-2016

 ------------------
 #p CCSD(T)/cc-pVTZ
 ------------------

 ------------
 H2O_H2O_2440
 ------------
 Symbolic Z-matrix:
 Charge =  0 Multiplicity = 1

                         Standard orientation:
 ---------------------------------------------------------------------
 Center     Atomic      Atomic             Coordinates (Angstroms)
 Number     Number       Type             X           Y           Z
 ---------------------------------------------------------------------
      1          8           0        0.047537   -2.065831    0.000000
      2          1           0       -0.753149   -2.635399    0.000000
      3          1           0        0.845990   -2.638525    0.000000
      4          8           0        0.047537    2.116411    0.000000
      5          1           0        0.018796    3.098592    0.000000
      6          1           0       -0.872237    1.770693    0.000000
 ---------------------------------------------------------------------

 SCF Done:  E(RHF) =  -152.106733430     A.U. after   10 cycles
 E2 =    -0.5261387985D+00 EUMP2 =    -0.15263287222890D+03
 CCSD(T)
 CCSD(T)= -0.15266008711D+03

 The electronic state is 1-A'.
 Alpha  occ. eigenvalues --  -20.55283 -20.54561  -1.32569  -1.31845  -0.69981
 Alpha  occ. eigenvalues --   -0.69232  -0.55974  -0.55248  -0.49676  -0.48958
 Alpha virt. eigenvalues --    0.13628   0.15637   0.20225   0.21505   0.53902
 Alpha virt. eigenvalues --    0.54964   0.57469   0.58139   0.65289   0.73945
 Alpha virt. eigenvalues --    0.79130   0.79977   0.80041   0.81811   0.83461

 Mulliken charges:
               1
     1  O   -0.502579
     2  H    0.248308
     3  H    0.254973
     4  O   -0.503207
     5  H    0.246117
     6  H    0.256388
 Sum of Mulliken charges =  -0.00000

 Dipole moment (field-independent basis, Debye):
    X=             -1.6110    Y=             -0.9137    Z=              0.0000  Tot=              1.8521
 Quadrupole moment (field-independent basis, Debye-Ang):
   XX=             -9.2306   YY=              2.2918   ZZ=            -14.7123
   XY=             -2.7084   XZ=              0.0000   YZ=              0.0000

 Normal termination of Gaussian 16 at Sat Aug 27 10:34:25 2022.
