 Gaussian 16, Revision A.03,
 Gaussian 16:  ES64L-G16RevA.03 25-Dec-2016

 ------------------
 #p CCSD(T)/cc-pVTZ
 ------------------

 -----------
 H2O_H2O_798
 -----------
 Symbolic Z-matrix:
 Charge =  0 Multiplicity = 1

                         Standard orientation:
 ---------------------------------------------------------------------
 Center     Atomic      Atomic             Coordinates (Angstroms)
 Number     Number       Type             X           Y           Z
 ---------------------------------------------------------------------
      1          8           0        0.057207   -1.158040    0.000000
      2          1           0       -0.744671   -1.725929    0.000000
      3          1           0        0.854458   -1.732406    0.000000
      4          8           0        0.057207    1.264334    0.000000
      5          1           0       -0.457021    2.101636    0.000000
      6          1           0       -0.568073    0.506354    0.000000
 ---------------------------------------------------------------------

 SCF Done:  E(RHF) =  -152.097853252     A.U. after   11 cycles
 E2 =    -0.5310433000D+00 EUMP2 =    -0.15262889655176D+03
 CCSD(T)
 CCSD(T)= -0.15265570942D+03

 The electronic state is 1-A'.
 Alpha  occ. eigenvalues --  -20.56935 -20.51436  -1.34973  -1.29011  -0.72284
 Alpha  occ. eigenvalues --   -0.68666  -0.55986  -0.52633  -0.51898  -0.46059
 Alpha virt. eigenvalues --    0.12924   0.18419   0.19263   0.26898   0.50265
 Alpha virt. eigenvalues --    0.55755   0.60756   0.62366   0.71443   0.73471
 Alpha virt. eigenvalues --    0.75814   0.82518   0.82621   0.83528   0.86721

 Mulliken charges:
               1
     1  O   -0.451380
     2  H    0.231535
     3  H    0.252250
     4  O   -0.517569
     5  H    0.217527
     6  H    0.267638
 Sum of Mulliken charges =  -0.00000

 Dipole moment (field-independent basis, Debye):
    X=             -1.7769    Y=             -2.3162    Z=              0.0000  Tot=              2.9193
 Quadrupole moment (field-independent basis, Debye-Ang):
   XX=             -9.8464   YY=             -5.5274   ZZ=            -14.7083
   XY=             -2.5984   XZ=              0.0000   YZ=              0.0000

 Normal termination of Gaussian 16 at Fri Aug 26 20:07:41 2022.
