 Gaussian 16, Revision A.03,
 Gaussian 16:  ES64L-G16RevA.03 25-Dec-2016

 ------------------
 #p CCSD(T)/cc-pVTZ
 ------------------

 ------------
 H2O_H2O_4540
 ------------
 Symbolic Z-matrix:
 Charge =  0 Multiplicity = 1

                         Standard orientation:
 ---------------------------------------------------------------------
 Center     Atomic      Atomic             Coordinates (Angstroms)
 Number     Number       Type             X           Y           Z
 ---------------------------------------------------------------------
      1          8           0        0.047520   -3.182654    0.000000
      2          1           0       -0.752778   -3.752766    0.000000
      3          1           0        0.846363   -3.754804    0.000000
      4          8           0        0.047520    3.233298    0.000000
      5          1           0        0.018111    4.215460    0.000000
      6          1           0       -0.872019    2.886955    0.000000
 ---------------------------------------------------------------------

 SCF Done:  E(RHF) =  -152.107223382     A.U. after   10 cycles
 E2 =    -0.5258949566D+00 EUMP2 =    -0.15263311833816D+03
 CCSD(T)
 CCSD(T)= -0.15266034240D+03

 The electronic state is 1-A'.
 Alpha  occ. eigenvalues --  -20.55465 -20.55181  -1.32763  -1.32477  -0.70169
 Alpha  occ. eigenvalues --   -0.69879  -0.56202  -0.55916  -0.49873  -0.49588
 Alpha virt. eigenvalues --    0.14192   0.14484   0.20261   0.20562   0.54394
 Alpha virt. eigenvalues --    0.54697   0.57297   0.57582   0.67994   0.68300
 Alpha virt. eigenvalues --    0.79006   0.79287   0.80441   0.80747   0.82368

 Mulliken charges:
               1
     1  O   -0.507794
     2  H    0.252879
     3  H    0.254915
     4  O   -0.507605
     5  H    0.252081
     6  H    0.255524
 Sum of Mulliken charges =  -0.00000

 Dipole moment (field-independent basis, Debye):
    X=             -1.6335    Y=             -0.8841    Z=              0.0000  Tot=              1.8574
 Quadrupole moment (field-independent basis, Debye-Ang):
   XX=             -9.2244   YY=              9.2933   ZZ=            -14.7116
   XY=             -4.5070   XZ=              0.0000   YZ=              0.0000

 Normal termination of Gaussian 16 at Sat Aug 27 07:54:13 2022.
