 Gaussian 16, Revision A.03,
 Gaussian 16:  ES64L-G16RevA.03 25-Dec-2016

 ------------------
 #p CCSD(T)/cc-pVTZ
 ------------------

 -----------
 H2O_H2O_901
 -----------
 Symbolic Z-matrix:
 Charge =  0 Multiplicity = 1

                         Standard orientation:
 ---------------------------------------------------------------------
 Center     Atomic      Atomic             Coordinates (Angstroms)
 Number     Number       Type             X           Y           Z
 ---------------------------------------------------------------------
      1          8           0        0.003735   -1.282120    0.000000
      2          1           0       -0.795979   -1.853051    0.000000
      3          1           0        0.803163   -1.853452    0.000000
      4          8           0        0.003735    1.282362    0.000000
      5          1           0        0.764397    1.904376    0.000000
      6          1           0       -0.831348    1.800187    0.000000
 ---------------------------------------------------------------------

 SCF Done:  E(RHF) =  -152.094095182     A.U. after   10 cycles
 E2 =    -0.5288505397D+00 EUMP2 =    -0.15262294572161D+03
 CCSD(T)
 CCSD(T)= -0.15265025913D+03

 The electronic state is 1-A'.
 Alpha  occ. eigenvalues --  -20.53180 -20.53173  -1.31014  -1.30269  -0.68325
 Alpha  occ. eigenvalues --   -0.67821  -0.56721  -0.50516  -0.48297  -0.47057
 Alpha virt. eigenvalues --    0.14496   0.17401   0.20574   0.22263   0.50461
 Alpha virt. eigenvalues --    0.58744   0.58873   0.62767   0.73142   0.76741
 Alpha virt. eigenvalues --    0.76836   0.78962   0.82323   0.83872   0.86459

 Mulliken charges:
               1
     1  O   -0.461014
     2  H    0.229624
     3  H    0.231347
     4  O   -0.460695
     5  H    0.229427
     6  H    0.231311
 Sum of Mulliken charges =  -0.00000

 Dipole moment (field-independent basis, Debye):
    X=             -0.1180    Y=             -0.0047    Z=              0.0000  Tot=              0.1181
 Quadrupole moment (field-independent basis, Debye-Ang):
   XX=             -7.9769   YY=             -2.5206   ZZ=            -14.7219
   XY=             -0.0565   XZ=              0.0000   YZ=              0.0000

 394242\MP4DQ=-152.631603\MP4SDQ=-152.6348298\CCSD=-152.634183\CCSD(T)=
 Normal termination of Gaussian 16 at Fri Aug 26 21:00:51 2022.
