 Gaussian 16, Revision A.03,
 Gaussian 16:  ES64L-G16RevA.03 25-Dec-2016

 ------------------
 #p CCSD(T)/cc-pVTZ
 ------------------

 ------------
 H2O_H2O_4179
 ------------
 Symbolic Z-matrix:
 Charge =  0 Multiplicity = 1

                         Standard orientation:
 ---------------------------------------------------------------------
 Center     Atomic      Atomic             Coordinates (Angstroms)
 Number     Number       Type             X           Y           Z
 ---------------------------------------------------------------------
      1          8           0        0.014783   -3.021909    0.000000
      2          1           0       -0.785028   -3.592704    0.000000
      3          1           0        0.814113   -3.593377    0.000000
      4          8           0        0.014783    3.025789    0.000000
      5          1           0        0.639609    3.784141    0.000000
      6          1           0       -0.905219    3.370903    0.000000
 ---------------------------------------------------------------------

 SCF Done:  E(RHF) =  -152.106753898     A.U. after   10 cycles
 E2 =    -0.5259396040D+00 EUMP2 =    -0.15263269350207D+03
 CCSD(T)
 CCSD(T)= -0.15265992736D+03

 The electronic state is 1-A'.
 Alpha  occ. eigenvalues --  -20.55168 -20.55144  -1.32464  -1.32439  -0.69871
 Alpha  occ. eigenvalues --   -0.69846  -0.55880  -0.55856  -0.49570  -0.49546
 Alpha virt. eigenvalues --    0.14438   0.14496   0.20491   0.20526   0.54697
 Alpha virt. eigenvalues --    0.54728   0.57558   0.57585   0.68306   0.68441
 Alpha virt. eigenvalues --    0.79308   0.79333   0.80753   0.80781   0.82684

 Mulliken charges:
               1
     1  O   -0.505010
     2  H    0.252125
     3  H    0.252884
     4  O   -0.504981
     5  H    0.251961
     6  H    0.253020
 Sum of Mulliken charges =  -0.00000

 Dipole moment (field-independent basis, Debye):
    X=             -0.5075    Y=             -0.0678    Z=              0.0000  Tot=              0.5120
 Quadrupole moment (field-independent basis, Debye-Ang):
   XX=             -7.9419   YY=             11.8767   ZZ=            -14.7106
   XY=             -1.0912   XZ=              0.0000   YZ=              0.0000

 Normal termination of Gaussian 16 at Sat Aug 27 05:49:58 2022.
