 Gaussian 16, Revision A.03,
 Gaussian 16:  ES64L-G16RevA.03 25-Dec-2016

 ------------------
 #p CCSD(T)/cc-pVTZ
 ------------------

 -----------
 H2O_H2O_291
 -----------
 Symbolic Z-matrix:
 Charge =  0 Multiplicity = 1

                         Standard orientation:
 ---------------------------------------------------------------------
 Center     Atomic      Atomic             Coordinates (Angstroms)
 Number     Number       Type             X           Y           Z
 ---------------------------------------------------------------------
      1          8           0        0.049589   -0.919071    0.000000
      2          1           0       -0.752541   -1.486604    0.000000
      3          1           0        0.846585   -1.493791    0.000000
      4          8           0        0.049589    0.975739    0.000000
      5          1           0       -0.040843    1.954170    0.000000
      6          1           0       -0.846630    0.572880    0.000000
 ---------------------------------------------------------------------

 SCF Done:  E(RHF) =  -152.033698035     A.U. after   11 cycles
 E2 =    -0.5386081070D+00 EUMP2 =    -0.15257230614187D+03
 CCSD(T)
 CCSD(T)= -0.15259874481D+03

 The electronic state is 1-A'.
 Alpha  occ. eigenvalues --  -20.53795 -20.51267  -1.34845  -1.27939  -0.72153
 Alpha  occ. eigenvalues --   -0.68975  -0.56514  -0.51321  -0.45758  -0.44741
 Alpha virt. eigenvalues --    0.13848   0.18633   0.19760   0.24322   0.52253
 Alpha virt. eigenvalues --    0.56760   0.59605   0.64356   0.72569   0.76280
 Alpha virt. eigenvalues --    0.80600   0.82236   0.83490   0.84211   0.88395

 Mulliken charges:
               1
     1  O   -0.399886
     2  H    0.190401
     3  H    0.220358
     4  O   -0.410607
     5  H    0.158823
     6  H    0.240912
 Sum of Mulliken charges =  -0.00000

 Dipole moment (field-independent basis, Debye):
    X=             -1.3938    Y=             -1.2069    Z=              0.0000  Tot=              1.8437
 Quadrupole moment (field-independent basis, Debye-Ang):
   XX=             -9.4907   YY=             -6.7116   ZZ=            -14.6796
   XY=             -1.0560   XZ=              0.0000   YZ=              0.0000

 Normal termination of Gaussian 16 at Fri Aug 26 14:55:08 2022.
