 Gaussian 16, Revision A.03,
 Gaussian 16:  ES64L-G16RevA.03 25-Dec-2016

 ------------------
 #p CCSD(T)/cc-pVTZ
 ------------------

 ------------
 H2O_H2O_1407
 ------------
 Symbolic Z-matrix:
 Charge =  0 Multiplicity = 1

                         Standard orientation:
 ---------------------------------------------------------------------
 Center     Atomic      Atomic             Coordinates (Angstroms)
 Number     Number       Type             X           Y           Z
 ---------------------------------------------------------------------
      1          8           0        0.025269   -1.541810    0.000000
      2          1           0       -0.775104   -2.111818    0.000000
      3          1           0        0.824037   -2.114065    0.000000
      4          8           0        0.025269    1.553519    0.000000
      5          1           0        0.490993    2.418739    0.000000
      6          1           0       -0.944226    1.713472    0.000000
 ---------------------------------------------------------------------

 SCF Done:  E(RHF) =  -152.102716062     A.U. after   11 cycles
 E2 =    -0.5272083784D+00 EUMP2 =    -0.15262992444042D+03
 CCSD(T)
 CCSD(T)= -0.15265719311D+03

 The electronic state is 1-A'.
 Alpha  occ. eigenvalues --  -20.54185 -20.53907  -1.31508  -1.31163  -0.68931
 Alpha  occ. eigenvalues --   -0.68594  -0.55584  -0.53480  -0.48667  -0.48179
 Alpha virt. eigenvalues --    0.14212   0.16602   0.20489   0.21935   0.52447
 Alpha virt. eigenvalues --    0.58195   0.58220   0.58895   0.65223   0.76790
 Alpha virt. eigenvalues --    0.77904   0.78721   0.79029   0.82375   0.85879

 Mulliken charges:
               1
     1  O   -0.477742
     2  H    0.235233
     3  H    0.242950
     4  O   -0.475488
     5  H    0.233330
     6  H    0.241716
 Sum of Mulliken charges =  -0.00000

 Dipole moment (field-independent basis, Debye):
    X=             -0.8297    Y=             -0.2208    Z=              0.0000  Tot=              0.8586
 Quadrupole moment (field-independent basis, Debye-Ang):
   XX=             -8.2790   YY=             -0.2354   ZZ=            -14.7109
   XY=             -0.6778   XZ=              0.0000   YZ=              0.0000

 Normal termination of Gaussian 16 at Sat Aug 27 04:34:02 2022.
