 Gaussian 16, Revision A.03,
 Gaussian 16:  ES64L-G16RevA.03 25-Dec-2016

 ------------------
 #p CCSD(T)/cc-pVTZ
 ------------------

 ------------
 H2O_H2O_4512
 ------------
 Symbolic Z-matrix:
 Charge =  0 Multiplicity = 1

                         Standard orientation:
 ---------------------------------------------------------------------
 Center     Atomic      Atomic             Coordinates (Angstroms)
 Number     Number       Type             X           Y           Z
 ---------------------------------------------------------------------
      1          8           0        0.040403   -3.178740    0.000000
      2          1           0       -0.759789   -3.749002    0.000000
      3          1           0        0.839352   -3.750742    0.000000
      4          8           0        0.040403    3.212108    0.000000
      5          1           0        0.202989    4.181166    0.000000
      6          1           0       -0.929006    3.051632    0.000000
 ---------------------------------------------------------------------

 SCF Done:  E(RHF) =  -152.107087396     A.U. after   10 cycles
 E2 =    -0.5259068971D+00 EUMP2 =    -0.15263299429268D+03
 CCSD(T)
 CCSD(T)= -0.15266022126D+03

 The electronic state is 1-A'.
 Alpha  occ. eigenvalues --  -20.55373 -20.55185  -1.32670  -1.32481  -0.70077
 Alpha  occ. eigenvalues --   -0.69884  -0.56103  -0.55913  -0.49780  -0.49591
 Alpha virt. eigenvalues --    0.14274   0.14468   0.20334   0.20534   0.54488
 Alpha virt. eigenvalues --    0.54691   0.57379   0.57568   0.68105   0.68310
 Alpha virt. eigenvalues --    0.79100   0.79286   0.80537   0.80742   0.82464

 Mulliken charges:
               1
     1  O   -0.506986
     2  H    0.252610
     3  H    0.254376
     4  O   -0.506843
     5  H    0.252026
     6  H    0.254817
 Sum of Mulliken charges =  -0.00000

 Dipole moment (field-independent basis, Debye):
    X=             -1.3886    Y=             -0.5824    Z=              0.0000  Tot=              1.5058
 Quadrupole moment (field-independent basis, Debye-Ang):
   XX=             -8.8302   YY=             10.7783   ZZ=            -14.7113
   XY=             -3.5945   XZ=              0.0000   YZ=              0.0000

 Normal termination of Gaussian 16 at Sat Aug 27 07:44:35 2022.
