 Gaussian 16, Revision A.03,
 Gaussian 16:  ES64L-G16RevA.03 25-Dec-2016

 ------------------
 #p CCSD(T)/cc-pVTZ
 ------------------

 ------------
 H2O_H2O_4746
 ------------
 Symbolic Z-matrix:
 Charge =  0 Multiplicity = 1

                         Standard orientation:
 ---------------------------------------------------------------------
 Center     Atomic      Atomic             Coordinates (Angstroms)
 Number     Number       Type             X           Y           Z
 ---------------------------------------------------------------------
      1          8           0        0.056083   -3.266683    0.000000
      2          1           0       -0.744319   -3.836650    0.000000
      3          1           0        0.854821   -3.838978    0.000000
      4          8           0        0.056083    3.358461    0.000000
      5          1           0       -0.346782    4.254679    0.000000
      6          1           0       -0.661043    2.686719    0.000000
 ---------------------------------------------------------------------

 SCF Done:  E(RHF) =  -152.107529641     A.U. after   10 cycles
 E2 =    -0.5258653907D+00 EUMP2 =    -0.15263339503200D+03
 CCSD(T)
 CCSD(T)= -0.15266061275D+03

 The electronic state is 1-A'.
 Alpha  occ. eigenvalues --  -20.55671 -20.55192  -1.32971  -1.32491  -0.70377
 Alpha  occ. eigenvalues --   -0.69891  -0.56424  -0.55941  -0.50083  -0.49605
 Alpha virt. eigenvalues --    0.14011   0.14496   0.20095   0.20604   0.54183
 Alpha virt. eigenvalues --    0.54680   0.57113   0.57592   0.67749   0.68256
 Alpha virt. eigenvalues --    0.78796   0.79268   0.80225   0.80731   0.82152

 Mulliken charges:
               1
     1  O   -0.509606
     2  H    0.253762
     3  H    0.255845
     4  O   -0.509340
     5  H    0.252568
     6  H    0.256772
 Sum of Mulliken charges =  -0.00000

 Dipole moment (field-independent basis, Debye):
    X=             -1.9289    Y=             -1.6013    Z=              0.0000  Tot=              2.5070
 Quadrupole moment (field-independent basis, Debye-Ang):
   XX=             -9.7846   YY=              5.6710   ZZ=            -14.7123
   XY=             -6.2469   XZ=              0.0000   YZ=              0.0000

 Normal termination of Gaussian 16 at Sat Aug 27 09:06:47 2022.
