 Gaussian 16, Revision A.03,
 Gaussian 16:  ES64L-G16RevA.03 25-Dec-2016

 ------------------
 #p CCSD(T)/cc-pVTZ
 ------------------

 ------------
 H2O_H2O_4711
 ------------
 Symbolic Z-matrix:
 Charge =  0 Multiplicity = 1

                         Standard orientation:
 ---------------------------------------------------------------------
 Center     Atomic      Atomic             Coordinates (Angstroms)
 Number     Number       Type             X           Y           Z
 ---------------------------------------------------------------------
      1          8           0        0.037671   -3.287875    0.000000
      2          1           0       -0.762460   -3.858222    0.000000
      3          1           0        0.836681   -3.859792    0.000000
      4          8           0        0.037671    3.316148    0.000000
      5          1           0        0.263186    4.272520    0.000000
      6          1           0       -0.940148    3.219313    0.000000
 ---------------------------------------------------------------------

 SCF Done:  E(RHF) =  -152.107089489     A.U. after   10 cycles
 E2 =    -0.5259042727D+00 EUMP2 =    -0.15263299376208D+03
 CCSD(T)
 CCSD(T)= -0.15266022084D+03

 The electronic state is 1-A'.
 Alpha  occ. eigenvalues --  -20.55366 -20.55217  -1.32663  -1.32513  -0.70070
 Alpha  occ. eigenvalues --   -0.69917  -0.56096  -0.55946  -0.49772  -0.49623
 Alpha virt. eigenvalues --    0.14284   0.14435   0.20343   0.20499   0.54496
 Alpha virt. eigenvalues --    0.54656   0.57386   0.57536   0.68117   0.68272
 Alpha virt. eigenvalues --    0.79107   0.79255   0.80545   0.80707   0.82471

 Mulliken charges:
               1
     1  O   -0.506994
     2  H    0.252747
     3  H    0.254247
     4  O   -0.506884
     5  H    0.252271
     6  H    0.254612
 Sum of Mulliken charges =  -0.00000

 Dipole moment (field-independent basis, Debye):
    X=             -1.2953    Y=             -0.4929    Z=              0.0000  Tot=              1.3859
 Quadrupole moment (field-independent basis, Debye-Ang):
   XX=             -8.6954   YY=             11.9677   ZZ=            -14.7112
   XY=             -3.4279   XZ=              0.0000   YZ=              0.0000

 Normal termination of Gaussian 16 at Sat Aug 27 08:53:34 2022.
