 Gaussian 16, Revision A.03,
 Gaussian 16:  ES64L-G16RevA.03 25-Dec-2016

 ------------------
 #p CCSD(T)/cc-pVTZ
 ------------------

 ------------
 H2O_H2O_1565
 ------------
 Symbolic Z-matrix:
 Charge =  0 Multiplicity = 1

                         Standard orientation:
 ---------------------------------------------------------------------
 Center     Atomic      Atomic             Coordinates (Angstroms)
 Number     Number       Type             X           Y           Z
 ---------------------------------------------------------------------
      1          8           0        0.047552   -1.600502    0.000000
      2          1           0       -0.753453   -2.169622    0.000000
      3          1           0        0.845684   -2.173643    0.000000
      4          8           0        0.047552    1.651028    0.000000
      5          1           0        0.019360    2.633226    0.000000
      6          1           0       -0.872416    1.305826    0.000000
 ---------------------------------------------------------------------

 SCF Done:  E(RHF) =  -152.105796027     A.U. after   10 cycles
 E2 =    -0.5269092904D+00 EUMP2 =    -0.15263270531761D+03
 CCSD(T)
 CCSD(T)= -0.15265990017D+03

 The electronic state is 1-A'.
 Alpha  occ. eigenvalues --  -20.55141 -20.53925  -1.32426  -1.31183  -0.69849
 Alpha  occ. eigenvalues --   -0.68572  -0.55902  -0.54377  -0.49540  -0.48289
 Alpha virt. eigenvalues --    0.13687   0.16580   0.20136   0.22646   0.54019
 Alpha virt. eigenvalues --    0.55344   0.57554   0.58522   0.65132   0.76471
 Alpha virt. eigenvalues --    0.77811   0.78058   0.78845   0.81674   0.85143

 Mulliken charges:
               1
     1  O   -0.487634
     2  H    0.239597
     3  H    0.251421
     4  O   -0.491574
     5  H    0.235243
     6  H    0.252946
 Sum of Mulliken charges =  -0.00000

 Dipole moment (field-independent basis, Debye):
    X=             -1.5695    Y=             -0.9550    Z=              0.0000  Tot=              1.8372
 Quadrupole moment (field-independent basis, Debye-Ang):
   XX=             -9.2539   YY=             -0.7481   ZZ=            -14.7154
   XY=             -1.9707   XZ=              0.0000   YZ=              0.0000

 Normal termination of Gaussian 16 at Sat Aug 27 05:30:07 2022.
