 Gaussian 16, Revision A.03,
 Gaussian 16:  ES64L-G16RevA.03 25-Dec-2016

 ------------------
 #p CCSD(T)/cc-pVTZ
 ------------------

 ------------
 H2O_H2O_3483
 ------------
 Symbolic Z-matrix:
 Charge =  0 Multiplicity = 1

                         Standard orientation:
 ---------------------------------------------------------------------
 Center     Atomic      Atomic             Coordinates (Angstroms)
 Number     Number       Type             X           Y           Z
 ---------------------------------------------------------------------
      1          8           0        0.028564   -2.643447    0.000000
      2          1           0       -0.771537   -3.213838    0.000000
      3          1           0        0.827605   -3.215321    0.000000
      4          8           0        0.028564    2.658698    0.000000
      5          1           0        0.436277    3.552721    0.000000
      6          1           0       -0.949363    2.754434    0.000000
 ---------------------------------------------------------------------

 SCF Done:  E(RHF) =  -152.106556507     A.U. after   10 cycles
 E2 =    -0.5259759461D+00 EUMP2 =    -0.15263253245302D+03
 CCSD(T)
 CCSD(T)= -0.15265976936D+03

 The electronic state is 1-A'.
 Alpha  occ. eigenvalues --  -20.55114 -20.54988  -1.32409  -1.32281  -0.69817
 Alpha  occ. eigenvalues --   -0.69686  -0.55816  -0.55689  -0.49514  -0.49388
 Alpha virt. eigenvalues --    0.14383   0.14721   0.20494   0.20684   0.54725
 Alpha virt. eigenvalues --    0.54914   0.57592   0.57730   0.67945   0.69082
 Alpha virt. eigenvalues --    0.79363   0.79488   0.80803   0.80959   0.82743

 Mulliken charges:
               1
     1  O   -0.503872
     2  H    0.250873
     3  H    0.253001
     4  O   -0.503684
     5  H    0.250347
     6  H    0.253335
 Sum of Mulliken charges =   0.00000

 Dipole moment (field-independent basis, Debye):
    X=             -0.9778    Y=             -0.2681    Z=              0.0000  Tot=              1.0139
 Quadrupole moment (field-independent basis, Debye-Ang):
   XX=             -8.3215   YY=              8.2360   ZZ=            -14.7105
   XY=             -1.8493   XZ=              0.0000   YZ=              0.0000

 Normal termination of Gaussian 16 at Fri Aug 26 22:42:41 2022.
