 Gaussian 16, Revision A.03,
 Gaussian 16:  ES64L-G16RevA.03 25-Dec-2016

 ------------------
 #p CCSD(T)/cc-pVTZ
 ------------------

 ------------
 H2O_H2O_2713
 ------------
 Symbolic Z-matrix:
 Charge =  0 Multiplicity = 1

                         Standard orientation:
 ---------------------------------------------------------------------
 Center     Atomic      Atomic             Coordinates (Angstroms)
 Number     Number       Type             X           Y           Z
 ---------------------------------------------------------------------
      1          8           0        0.042972   -2.218501    0.000000
      2          1           0       -0.757541   -2.788311    0.000000
      3          1           0        0.841599   -2.790953    0.000000
      4          8           0        0.042972    2.257270    0.000000
      5          1           0        0.142381    3.234831    0.000000
      6          1           0       -0.913992    2.034274    0.000000
 ---------------------------------------------------------------------

 SCF Done:  E(RHF) =  -152.106541909     A.U. after   10 cycles
 E2 =    -0.5260633000D+00 EUMP2 =    -0.15263260520918D+03
 CCSD(T)
 CCSD(T)= -0.15265983401D+03

 The electronic state is 1-A'.
 Alpha  occ. eigenvalues --  -20.55178 -20.54710  -1.32469  -1.31998  -0.69880
 Alpha  occ. eigenvalues --   -0.69393  -0.55871  -0.55399  -0.49574  -0.49107
 Alpha virt. eigenvalues --    0.13900   0.15324   0.20332   0.21142   0.54292
 Alpha virt. eigenvalues --    0.55121   0.57538   0.57960   0.65993   0.72114
 Alpha virt. eigenvalues --    0.79283   0.79783   0.80518   0.81526   0.82913

 Mulliken charges:
               1
     1  O   -0.503200
     2  H    0.249158
     3  H    0.254258
     4  O   -0.502867
     5  H    0.247562
     6  H    0.255089
 Sum of Mulliken charges =  -0.00000

 Dipole moment (field-independent basis, Debye):
    X=             -1.4621    Y=             -0.6927    Z=              0.0000  Tot=              1.6179
 Quadrupole moment (field-independent basis, Debye-Ang):
   XX=             -8.9713   YY=              3.8960   ZZ=            -14.7113
   XY=             -2.5009   XZ=              0.0000   YZ=              0.0000

 Normal termination of Gaussian 16 at Fri Aug 26 15:21:53 2022.
