 Gaussian 16, Revision A.03,
 Gaussian 16:  ES64L-G16RevA.03 25-Dec-2016

 ------------------
 #p CCSD(T)/cc-pVTZ
 ------------------

 ------------
 H2O_H2O_3040
 ------------
 Symbolic Z-matrix:
 Charge =  0 Multiplicity = 1

                         Standard orientation:
 ---------------------------------------------------------------------
 Center     Atomic      Atomic             Coordinates (Angstroms)
 Number     Number       Type             X           Y           Z
 ---------------------------------------------------------------------
      1          8           0        0.047531   -2.384920    0.000000
      2          1           0       -0.753008   -2.954695    0.000000
      3          1           0        0.846132   -2.957408    0.000000
      4          8           0        0.047531    2.435525    0.000000
      5          1           0        0.018536    3.417698    0.000000
      6          1           0       -0.872154    2.089569    0.000000
 ---------------------------------------------------------------------

 SCF Done:  E(RHF) =  -152.106918424     A.U. after   10 cycles
 E2 =    -0.5259864939D+00 EUMP2 =    -0.15263290491800D+03
 CCSD(T)
 CCSD(T)= -0.15266012994D+03

 The electronic state is 1-A'.
 Alpha  occ. eigenvalues --  -20.55343 -20.54820  -1.32637  -1.32112  -0.70046
 Alpha  occ. eigenvalues --   -0.69506  -0.56059  -0.55534  -0.49745  -0.49223
 Alpha virt. eigenvalues --    0.13925   0.15098   0.20266   0.21022   0.54378
 Alpha virt. eigenvalues --    0.55011   0.57400   0.57871   0.66940   0.70399
 Alpha virt. eigenvalues --    0.79134   0.79647   0.80432   0.81138   0.82863

 Mulliken charges:
               1
     1  O   -0.505762
     2  H    0.250637
     3  H    0.255252
     4  O   -0.505352
     5  H    0.248929
     6  H    0.256296
 Sum of Mulliken charges =   0.00000

 Dipole moment (field-independent basis, Debye):
    X=             -1.6227    Y=             -0.8979    Z=              0.0000  Tot=              1.8546
 Quadrupole moment (field-independent basis, Debye-Ang):
   XX=             -9.2265   YY=              4.3062   ZZ=            -14.7116
   XY=             -3.2191   XZ=              0.0000   YZ=              0.0000

 Normal termination of Gaussian 16 at Fri Aug 26 18:46:48 2022.
