 Gaussian 16, Revision A.03,
 Gaussian 16:  ES64L-G16RevA.03 25-Dec-2016

 ------------------
 #p CCSD(T)/cc-pVTZ
 ------------------

 -----------
 H2O_H2O_192
 -----------
 Symbolic Z-matrix:
 Charge =  0 Multiplicity = 1

                         Standard orientation:
 ---------------------------------------------------------------------
 Center     Atomic      Atomic             Coordinates (Angstroms)
 Number     Number       Type             X           Y           Z
 ---------------------------------------------------------------------
      1          8           0        0.051380   -0.862339    0.000000
      2          1           0       -0.750999   -1.429520    0.000000
      3          1           0        0.848124   -1.437408    0.000000
      4          8           0        0.051380    0.925538    0.000000
      5          1           0       -0.102426    1.896028    0.000000
      6          1           0       -0.816775    0.465307    0.000000
 ---------------------------------------------------------------------

 SCF Done:  E(RHF) =  -151.997410083     A.U. after   11 cycles
 E2 =    -0.5427772293D+00 EUMP2 =    -0.15254018731262D+03
 CCSD(T)
 CCSD(T)= -0.15256611484D+03

 The electronic state is 1-A'.
 Alpha  occ. eigenvalues --  -20.53926 -20.50738  -1.36665  -1.27215  -0.73957
 Alpha  occ. eigenvalues --   -0.69931  -0.55603  -0.52498  -0.44087  -0.43781
 Alpha virt. eigenvalues --    0.13702   0.18950   0.19615   0.24574   0.51669
 Alpha virt. eigenvalues --    0.56212   0.60146   0.65515   0.72963   0.76601
 Alpha virt. eigenvalues --    0.80922   0.81030   0.84035   0.84041   0.88576

 Mulliken charges:
               1
     1  O   -0.366437
     2  H    0.173888
     3  H    0.213007
     4  O   -0.404153
     5  H    0.140198
     6  H    0.243497
 Sum of Mulliken charges =  -0.00000

 Dipole moment (field-independent basis, Debye):
    X=             -1.3988    Y=             -1.4012    Z=              0.0000  Tot=              1.9799
 Quadrupole moment (field-independent basis, Debye-Ang):
   XX=             -9.5984   YY=             -7.5728   ZZ=            -14.6419
   XY=             -1.0822   XZ=              0.0000   YZ=              0.0000

 Normal termination of Gaussian 16 at Fri Aug 26 13:50:20 2022.
