 Gaussian 16, Revision A.03,
 Gaussian 16:  ES64L-G16RevA.03 25-Dec-2016

 ------------------
 #p CCSD(T)/cc-pVTZ
 ------------------

 ------------
 H2O_H2O_1444
 ------------
 Symbolic Z-matrix:
 Charge =  0 Multiplicity = 1

                         Standard orientation:
 ---------------------------------------------------------------------
 Center     Atomic      Atomic             Coordinates (Angstroms)
 Number     Number       Type             X           Y           Z
 ---------------------------------------------------------------------
      1          8           0        0.054198   -1.519543    0.000000
      2          1           0       -0.747076   -2.088284    0.000000
      3          1           0        0.852059   -2.093062    0.000000
      4          8           0        0.054198    1.596729    0.000000
      5          1           0       -0.226799    2.538296    0.000000
      6          1           0       -0.745348    1.025562    0.000000
 ---------------------------------------------------------------------

 SCF Done:  E(RHF) =  -152.107213951     A.U. after   10 cycles
 E2 =    -0.5271441367D+00 EUMP2 =    -0.15263435808814D+03
 CCSD(T)
 CCSD(T)= -0.15266150417D+03

 The electronic state is 1-A'.
 Alpha  occ. eigenvalues --  -20.55761 -20.53609  -1.33060  -1.30883  -0.70475
 Alpha  occ. eigenvalues --   -0.68306  -0.56434  -0.54275  -0.50176  -0.48003
 Alpha virt. eigenvalues --    0.13381   0.16927   0.19861   0.23790   0.53764
 Alpha virt. eigenvalues --    0.55420   0.57073   0.58331   0.67210   0.75710
 Alpha virt. eigenvalues --    0.76686   0.76785   0.79722   0.81840   0.84655

 Mulliken charges:
               1
     1  O   -0.488614
     2  H    0.240972
     3  H    0.255330
     4  O   -0.500604
     5  H    0.234981
     6  H    0.257935
 Sum of Mulliken charges =  -0.00000

 Dipole moment (field-independent basis, Debye):
    X=             -1.7778    Y=             -1.4879    Z=              0.0000  Tot=              2.3183
 Quadrupole moment (field-independent basis, Debye-Ang):
   XX=             -9.6638   YY=             -2.2234   ZZ=            -14.7210
   XY=             -2.5815   XZ=              0.0000   YZ=              0.0000

 6508333\MP4DQ=-152.643197\MP4SDQ=-152.646321\CCSD=-152.645701\CCSD(T)=
 Normal termination of Gaussian 16 at Sat Aug 27 04:48:00 2022.
