 Gaussian 16, Revision A.03,
 Gaussian 16:  ES64L-G16RevA.03 25-Dec-2016

 ------------------
 #p CCSD(T)/cc-pVTZ
 ------------------

 ------------
 H2O_H2O_3055
 ------------
 Symbolic Z-matrix:
 Charge =  0 Multiplicity = 1

                         Standard orientation:
 ---------------------------------------------------------------------
 Center     Atomic      Atomic             Coordinates (Angstroms)
 Number     Number       Type             X           Y           Z
 ---------------------------------------------------------------------
      1          8           0        0.018360   -2.422420    0.000000
      2          1           0       -0.781583   -2.993031    0.000000
      3          1           0        0.817559   -2.994073    0.000000
      4          8           0        0.018360    2.428459    0.000000
      5          1           0        0.592434    3.225921    0.000000
      6          1           0       -0.922176    2.712879    0.000000
 ---------------------------------------------------------------------

 SCF Done:  E(RHF) =  -152.106136410     A.U. after   10 cycles
 E2 =    -0.5260355673D+00 EUMP2 =    -0.15263217197762D+03
 CCSD(T)
 CCSD(T)= -0.15265941614D+03

 The electronic state is 1-A'.
 Alpha  occ. eigenvalues --  -20.54933 -20.54873  -1.32225  -1.32165  -0.69636
 Alpha  occ. eigenvalues --   -0.69573  -0.55617  -0.55544  -0.49328  -0.49268
 Alpha virt. eigenvalues --    0.14382   0.14942   0.20575   0.20782   0.54802
 Alpha virt. eigenvalues --    0.55122   0.57723   0.57830   0.67096   0.70314
 Alpha virt. eigenvalues --    0.79533   0.79621   0.80964   0.81113   0.82635

 Mulliken charges:
               1
     1  O   -0.501383
     2  H    0.249821
     3  H    0.251567
     4  O   -0.501255
     5  H    0.249487
     6  H    0.251763
 Sum of Mulliken charges =  -0.00000

 Dipole moment (field-independent basis, Debye):
    X=             -0.6267    Y=             -0.1067    Z=              0.0000  Tot=              0.6357
 Quadrupole moment (field-independent basis, Debye-Ang):
   XX=             -8.0269   YY=              7.0233   ZZ=            -14.7099
   XY=             -0.9956   XZ=              0.0000   YZ=              0.0000

 Normal termination of Gaussian 16 at Fri Aug 26 18:56:13 2022.
