 Gaussian 16, Revision A.03,
 Gaussian 16:  ES64L-G16RevA.03 25-Dec-2016

 ------------------
 #p CCSD(T)/cc-pVTZ
 ------------------

 ------------
 H2O_H2O_2830
 ------------
 Symbolic Z-matrix:
 Charge =  0 Multiplicity = 1

                         Standard orientation:
 ---------------------------------------------------------------------
 Center     Atomic      Atomic             Coordinates (Angstroms)
 Number     Number       Type             X           Y           Z
 ---------------------------------------------------------------------
      1          8           0        0.018360   -2.302758    0.000000
      2          1           0       -0.781602   -2.873342    0.000000
      3          1           0        0.817540   -2.874438    0.000000
      4          8           0        0.018360    2.308795    0.000000
      5          1           0        0.592461    3.106238    0.000000
      6          1           0       -0.922167    2.593248    0.000000
 ---------------------------------------------------------------------

 SCF Done:  E(RHF) =  -152.105939660     A.U. after   10 cycles
 E2 =    -0.5260765111D+00 EUMP2 =    -0.15263201617119D+03
 CCSD(T)
 CCSD(T)= -0.15265926233D+03

 The electronic state is 1-A'.
 Alpha  occ. eigenvalues --  -20.54863 -20.54797  -1.32154  -1.32087  -0.69566
 Alpha  occ. eigenvalues --   -0.69496  -0.55546  -0.55442  -0.49256  -0.49189
 Alpha virt. eigenvalues --    0.14322   0.15105   0.20585   0.20864   0.54752
 Alpha virt. eigenvalues --    0.55292   0.57763   0.57902   0.66175   0.71368
 Alpha virt. eigenvalues --    0.79574   0.79728   0.81038   0.81183   0.82430

 Mulliken charges:
               1
     1  O   -0.500162
     2  H    0.249085
     3  H    0.251089
     4  O   -0.500003
     5  H    0.248718
     6  H    0.251273
 Sum of Mulliken charges =  -0.00000

 Dipole moment (field-independent basis, Debye):
    X=             -0.6255    Y=             -0.1072    Z=              0.0000  Tot=              0.6346
 Quadrupole moment (field-independent basis, Debye-Ang):
   XX=             -8.0305   YY=              6.0769   ZZ=            -14.7098
   XY=             -0.9218   XZ=              0.0000   YZ=              0.0000

 Normal termination of Gaussian 16 at Fri Aug 26 16:34:23 2022.
