 Gaussian 16, Revision A.03,
 Gaussian 16:  ES64L-G16RevA.03 25-Dec-2016

 ------------------
 #p CCSD(T)/cc-pVTZ
 ------------------

 -----------
 H2O_H2O_299
 -----------
 Symbolic Z-matrix:
 Charge =  0 Multiplicity = 1

                         Standard orientation:
 ---------------------------------------------------------------------
 Center     Atomic      Atomic             Coordinates (Angstroms)
 Number     Number       Type             X           Y           Z
 ---------------------------------------------------------------------
      1          8           0        0.057410   -0.888135    0.000000
      2          1           0       -0.745122   -1.455099    0.000000
      3          1           0        0.853998   -1.463419    0.000000
      4          8           0        0.057410    1.001766    0.000000
      5          1           0       -0.509555    1.804297    0.000000
      6          1           0       -0.517875    0.205176    0.000000
 ---------------------------------------------------------------------

 SCF Done:  E(RHF) =  -152.002712991     A.U. after   11 cycles
 E2 =    -0.5421303075D+00 EUMP2 =    -0.15254484329884D+03
 CCSD(T)
 CCSD(T)= -0.15257013132D+03

 The electronic state is 1-A'.
 Alpha  occ. eigenvalues --  -20.57799 -20.47070  -1.40328  -1.25881  -0.78081
 Alpha  occ. eigenvalues --   -0.72706  -0.55233  -0.50254  -0.47600  -0.42694
 Alpha virt. eigenvalues --    0.12325   0.17952   0.20361   0.27982   0.48307
 Alpha virt. eigenvalues --    0.53394   0.63520   0.69644   0.73131   0.74454
 Alpha virt. eigenvalues --    0.77213   0.78790   0.83968   0.85786   0.88342

 Mulliken charges:
               1
     1  O   -0.321922
     2  H    0.194124
     3  H    0.235377
     4  O   -0.554498
     5  H    0.171647
     6  H    0.275271
 Sum of Mulliken charges =  -0.00000

 Dipole moment (field-independent basis, Debye):
    X=             -1.5921    Y=             -3.0281    Z=              0.0000  Tot=              3.4212
 Quadrupole moment (field-independent basis, Debye-Ang):
   XX=             -9.8041   YY=             -8.0017   ZZ=            -14.5742
   XY=             -2.1870   XZ=              0.0000   YZ=              0.0000

 Normal termination of Gaussian 16 at Fri Aug 26 14:59:38 2022.
