 Gaussian 16, Revision A.03,
 Gaussian 16:  ES64L-G16RevA.03 25-Dec-2016

 ------------------
 #p CCSD(T)/cc-pVTZ
 ------------------

 -----------
 H2O_H2O_743
 -----------
 Symbolic Z-matrix:
 Charge =  0 Multiplicity = 1

                         Standard orientation:
 ---------------------------------------------------------------------
 Center     Atomic      Atomic             Coordinates (Angstroms)
 Number     Number       Type             X           Y           Z
 ---------------------------------------------------------------------
      1          8           0        0.052900   -1.151099    0.000000
      2          1           0       -0.748852   -1.719165    0.000000
      3          1           0        0.850278   -1.725289    0.000000
      4          8           0        0.052900    1.221208    0.000000
      5          1           0       -0.165106    2.179321    0.000000
      6          1           0       -0.782726    0.704261    0.000000
 ---------------------------------------------------------------------

 SCF Done:  E(RHF) =  -152.094090624     A.U. after   11 cycles
 E2 =    -0.5305875818D+00 EUMP2 =    -0.15262467820586D+03
 CCSD(T)
 CCSD(T)= -0.15265173080D+03

 The electronic state is 1-A'.
 Alpha  occ. eigenvalues --  -20.55268 -20.52345  -1.33252  -1.29615  -0.70629
 Alpha  occ. eigenvalues --   -0.68130  -0.55947  -0.52162  -0.50312  -0.46600
 Alpha virt. eigenvalues --    0.13565   0.17922   0.19813   0.24524   0.52144
 Alpha virt. eigenvalues --    0.57002   0.59743   0.60872   0.71419   0.74477
 Alpha virt. eigenvalues --    0.77965   0.82948   0.83544   0.84507   0.87458

 Mulliken charges:
               1
     1  O   -0.458572
     2  H    0.225881
     3  H    0.245279
     4  O   -0.473003
     5  H    0.208082
     6  H    0.252332
 Sum of Mulliken charges =  -0.00000

 Dipole moment (field-independent basis, Debye):
    X=             -1.6281    Y=             -1.4295    Z=              0.0000  Tot=              2.1666
 Quadrupole moment (field-independent basis, Debye-Ang):
   XX=             -9.6184   YY=             -4.5170   ZZ=            -14.7204
   XY=             -1.7634   XZ=              0.0000   YZ=              0.0000

 Normal termination of Gaussian 16 at Fri Aug 26 19:36:30 2022.
