 Gaussian 16, Revision A.03,
 Gaussian 16:  ES64L-G16RevA.03 25-Dec-2016

 ------------------
 #p CCSD(T)/cc-pVTZ
 ------------------

 -----------
 H2O_H2O_413
 -----------
 Symbolic Z-matrix:
 Charge =  0 Multiplicity = 1

                         Standard orientation:
 ---------------------------------------------------------------------
 Center     Atomic      Atomic             Coordinates (Angstroms)
 Number     Number       Type             X           Y           Z
 ---------------------------------------------------------------------
      1          8           0        0.043011   -0.995366    0.000000
      2          1           0       -0.758636   -1.563581    0.000000
      3          1           0        0.840496   -1.569407    0.000000
      4          8           0        0.043011    1.033965    0.000000
      5          1           0        0.144366    2.011325    0.000000
      6          1           0       -0.914395    0.812875    0.000000
 ---------------------------------------------------------------------

 SCF Done:  E(RHF) =  -152.061481169     A.U. after   11 cycles
 E2 =    -0.5347116465D+00 EUMP2 =    -0.15259619281515D+03
 CCSD(T)
 CCSD(T)= -0.15262303976D+03

 The electronic state is 1-A'.
 Alpha  occ. eigenvalues --  -20.53359 -20.51934  -1.32983  -1.28743  -0.70114
 Alpha  occ. eigenvalues --   -0.67874  -0.58046  -0.49997  -0.46785  -0.45439
 Alpha virt. eigenvalues --    0.14139   0.18150   0.20072   0.23696   0.53195
 Alpha virt. eigenvalues --    0.57391   0.58464   0.63344   0.71684   0.76289
 Alpha virt. eigenvalues --    0.79889   0.81960   0.83273   0.85195   0.88201

 Mulliken charges:
               1
     1  O   -0.436882
     2  H    0.208446
     3  H    0.228779
     4  O   -0.414111
     5  H    0.175538
     6  H    0.238232
 Sum of Mulliken charges =  -0.00000

 Dipole moment (field-independent basis, Debye):
    X=             -1.2495    Y=             -0.7888    Z=              0.0000  Tot=              1.4776
 Quadrupole moment (field-independent basis, Debye-Ang):
   XX=             -9.1482   YY=             -5.6672   ZZ=            -14.7181
   XY=             -0.7986   XZ=              0.0000   YZ=              0.0000

 Normal termination of Gaussian 16 at Fri Aug 26 16:14:01 2022.
