 Gaussian 16, Revision A.03,
 Gaussian 16:  ES64L-G16RevA.03 25-Dec-2016

 ------------------
 #p CCSD(T)/cc-pVTZ
 ------------------

 ------------
 H2O_H2O_3967
 ------------
 Symbolic Z-matrix:
 Charge =  0 Multiplicity = 1

                         Standard orientation:
 ---------------------------------------------------------------------
 Center     Atomic      Atomic             Coordinates (Angstroms)
 Number     Number       Type             X           Y           Z
 ---------------------------------------------------------------------
      1          8           0        0.051272   -2.869839    0.000000
      2          1           0       -0.749166   -3.439755    0.000000
      3          1           0        0.849974   -3.442186    0.000000
      4          8           0        0.051272    2.933389    0.000000
      5          1           0       -0.105846    3.903348    0.000000
      6          1           0       -0.815307    2.470197    0.000000
 ---------------------------------------------------------------------

 SCF Done:  E(RHF) =  -152.107271369     A.U. after   10 cycles
 E2 =    -0.5259021486D+00 EUMP2 =    -0.15263317351780D+03
 CCSD(T)
 CCSD(T)= -0.15266039578D+03

 The electronic state is 1-A'.
 Alpha  occ. eigenvalues --  -20.55508 -20.55067  -1.32806  -1.32363  -0.70213
 Alpha  occ. eigenvalues --   -0.69761  -0.56247  -0.55802  -0.49916  -0.49475
 Alpha virt. eigenvalues --    0.14106   0.14636   0.20215   0.20708   0.54344
 Alpha virt. eigenvalues --    0.54817   0.57256   0.57697   0.67836   0.68528
 Alpha virt. eigenvalues --    0.78964   0.79397   0.80395   0.80840   0.82381

 Mulliken charges:
               1
     1  O   -0.508100
     2  H    0.252595
     3  H    0.255511
     4  O   -0.507766
     5  H    0.251315
     6  H    0.256445
 Sum of Mulliken charges =  -0.00000

 Dipole moment (field-independent basis, Debye):
    X=             -1.7597    Y=             -1.1141    Z=              0.0000  Tot=              2.0827
 Quadrupole moment (field-independent basis, Debye-Ang):
   XX=             -9.4576   YY=              6.2880   ZZ=            -14.7118
   XY=             -4.5356   XZ=              0.0000   YZ=              0.0000

 Normal termination of Gaussian 16 at Sat Aug 27 04:37:46 2022.
