 Gaussian 16, Revision A.03,
 Gaussian 16:  ES64L-G16RevA.03 25-Dec-2016

 ------------------
 #p CCSD(T)/cc-pVTZ
 ------------------

 ------------
 H2O_H2O_2015
 ------------
 Symbolic Z-matrix:
 Charge =  0 Multiplicity = 1

                         Standard orientation:
 ---------------------------------------------------------------------
 Center     Atomic      Atomic             Coordinates (Angstroms)
 Number     Number       Type             X           Y           Z
 ---------------------------------------------------------------------
      1          8           0        0.047543   -1.839812    0.000000
      2          1           0       -0.753277   -2.409190    0.000000
      3          1           0        0.845861   -2.412696    0.000000
      4          8           0        0.047543    1.890370    0.000000
      5          1           0        0.019035    2.872558    0.000000
      6          1           0       -0.872313    1.544870    0.000000
 ---------------------------------------------------------------------

 SCF Done:  E(RHF) =  -152.106509215     A.U. after   10 cycles
 E2 =    -0.5263892351D+00 EUMP2 =    -0.15263289844975D+03
 CCSD(T)
 CCSD(T)= -0.15266009932D+03

 The electronic state is 1-A'.
 Alpha  occ. eigenvalues --  -20.55235 -20.54304  -1.32511  -1.31577  -0.69928
 Alpha  occ. eigenvalues --   -0.68959  -0.55915  -0.54934  -0.49620  -0.48691
 Alpha virt. eigenvalues --    0.13571   0.16080   0.20188   0.22019   0.53537
 Alpha virt. eigenvalues --    0.54860   0.57507   0.58472   0.64272   0.76041
 Alpha virt. eigenvalues --    0.78825   0.78973   0.80551   0.80716   0.84669

 Mulliken charges:
               1
     1  O   -0.496978
     2  H    0.244951
     3  H    0.253733
     4  O   -0.499598
     5  H    0.242276
     6  H    0.255616
 Sum of Mulliken charges =  -0.00000

 Dipole moment (field-independent basis, Debye):
    X=             -1.5960    Y=             -0.9314    Z=              0.0000  Tot=              1.8479
 Quadrupole moment (field-independent basis, Debye-Ang):
   XX=             -9.2378   YY=              0.8428   ZZ=            -14.7133
   XY=             -2.3482   XZ=              0.0000   YZ=              0.0000

 Normal termination of Gaussian 16 at Sat Aug 27 08:06:57 2022.
