 Gaussian 16, Revision A.03,
 Gaussian 16:  ES64L-G16RevA.03 25-Dec-2016

 ------------------
 #p CCSD(T)/cc-pVTZ
 ------------------

 -----------
 H2O_H2O_771
 -----------
 Symbolic Z-matrix:
 Charge =  0 Multiplicity = 1

                         Standard orientation:
 ---------------------------------------------------------------------
 Center     Atomic      Atomic             Coordinates (Angstroms)
 Number     Number       Type             X           Y           Z
 ---------------------------------------------------------------------
      1          8           0        0.056200   -1.152783    0.000000
      2          1           0       -0.745662   -1.720694    0.000000
      3          1           0        0.853467   -1.727128    0.000000
      4          8           0        0.056200    1.244274    0.000000
      5          1           0       -0.344362    2.141523    0.000000
      6          1           0       -0.662648    0.574375    0.000000
 ---------------------------------------------------------------------

 SCF Done:  E(RHF) =  -152.096088646     A.U. after   11 cycles
 E2 =    -0.5308922810D+00 EUMP2 =    -0.15262698092703D+03
 CCSD(T)
 CCSD(T)= -0.15265390227D+03

 The electronic state is 1-A'.
 Alpha  occ. eigenvalues --  -20.56216 -20.51862  -1.34233  -1.29291  -0.71595
 Alpha  occ. eigenvalues --   -0.68416  -0.55647  -0.52779  -0.51207  -0.46325
 Alpha virt. eigenvalues --    0.13202   0.18216   0.19505   0.25745   0.51055
 Alpha virt. eigenvalues --    0.56273   0.60477   0.61614   0.71591   0.73834
 Alpha virt. eigenvalues --    0.76877   0.82718   0.83579   0.83850   0.87077

 Mulliken charges:
               1
     1  O   -0.453573
     2  H    0.228442
     3  H    0.248642
     4  O   -0.497462
     5  H    0.213381
     6  H    0.260570
 Sum of Mulliken charges =  -0.00000

 Dipole moment (field-independent basis, Debye):
    X=             -1.7378    Y=             -1.9364    Z=              0.0000  Tot=              2.6018
 Quadrupole moment (field-independent basis, Debye-Ang):
   XX=             -9.8007   YY=             -5.0670   ZZ=            -14.7138
   XY=             -2.2710   XZ=              0.0000   YZ=              0.0000

 Normal termination of Gaussian 16 at Fri Aug 26 19:50:18 2022.
