 Gaussian 16, Revision A.03,
 Gaussian 16:  ES64L-G16RevA.03 25-Dec-2016

 ------------------
 #p CCSD(T)/cc-pVTZ
 ------------------

 ------------
 H2O_H2O_1737
 ------------
 Symbolic Z-matrix:
 Charge =  0 Multiplicity = 1

                         Standard orientation:
 ---------------------------------------------------------------------
 Center     Atomic      Atomic             Coordinates (Angstroms)
 Number     Number       Type             X           Y           Z
 ---------------------------------------------------------------------
      1          8           0        0.040419   -1.702934    0.000000
      2          1           0       -0.760305   -2.272448    0.000000
      3          1           0        0.838834   -2.275681    0.000000
      4          8           0        0.040419    1.736226    0.000000
      5          1           0        0.203909    2.705132    0.000000
      6          1           0       -0.929140    1.576655    0.000000
 ---------------------------------------------------------------------

 SCF Done:  E(RHF) =  -152.105317363     A.U. after   10 cycles
 E2 =    -0.5266870384D+00 EUMP2 =    -0.15263200440097D+03
 CCSD(T)
 CCSD(T)= -0.15265922227D+03

 The electronic state is 1-A'.
 Alpha  occ. eigenvalues --  -20.54851 -20.54152  -1.32130  -1.31415  -0.69553
 Alpha  occ. eigenvalues --   -0.68809  -0.55636  -0.54540  -0.49240  -0.48514
 Alpha virt. eigenvalues --    0.13836   0.16296   0.20314   0.21988   0.53267
 Alpha virt. eigenvalues --    0.55652   0.57790   0.58583   0.63813   0.76932
 Alpha virt. eigenvalues --    0.78543   0.78602   0.79850   0.81256   0.85274

 Mulliken charges:
               1
     1  O   -0.489049
     2  H    0.240693
     3  H    0.249891
     4  O   -0.490296
     5  H    0.238046
     6  H    0.250715
 Sum of Mulliken charges =  -0.00000

 Dipole moment (field-independent basis, Debye):
    X=             -1.3451    Y=             -0.6206    Z=              0.0000  Tot=              1.4813
 Quadrupole moment (field-independent basis, Debye-Ang):
   XX=             -8.8633   YY=              0.5246   ZZ=            -14.7122
   XY=             -1.5819   XZ=              0.0000   YZ=              0.0000

 Normal termination of Gaussian 16 at Sat Aug 27 06:30:10 2022.
