 Gaussian 16, Revision A.03,
 Gaussian 16:  ES64L-G16RevA.03 25-Dec-2016

 ------------------
 #p CCSD(T)/cc-pVTZ
 ------------------

 -----------
 H2O_H2O_921
 -----------
 Symbolic Z-matrix:
 Charge =  0 Multiplicity = 1

                         Standard orientation:
 ---------------------------------------------------------------------
 Center     Atomic      Atomic             Coordinates (Angstroms)
 Number     Number       Type             X           Y           Z
 ---------------------------------------------------------------------
      1          8           0        0.056189   -1.232544    0.000000
      2          1           0       -0.745531   -1.800656    0.000000
      3          1           0        0.853600   -1.806688    0.000000
      4          8           0        0.056189    1.324063    0.000000
      5          1           0       -0.344599    2.221211    0.000000
      6          1           0       -0.662491    0.653983    0.000000
 ---------------------------------------------------------------------

 SCF Done:  E(RHF) =  -152.102321025     A.U. after   10 cycles
 E2 =    -0.5295162637D+00 EUMP2 =    -0.15263183728911D+03
 CCSD(T)
 CCSD(T)= -0.15265884724D+03

 The electronic state is 1-A'.
 Alpha  occ. eigenvalues --  -20.56246 -20.52361  -1.33923  -1.29734  -0.71297
 Alpha  occ. eigenvalues --   -0.68103  -0.56284  -0.53222  -0.50976  -0.46805
 Alpha virt. eigenvalues --    0.13203   0.17925   0.19578   0.25488   0.51483
 Alpha virt. eigenvalues --    0.56477   0.59443   0.60390   0.71225   0.73963
 Alpha virt. eigenvalues --    0.75937   0.82043   0.82741   0.84022   0.85527

 Mulliken charges:
               1
     1  O   -0.469144
     2  H    0.234926
     3  H    0.252825
     4  O   -0.501719
     5  H    0.221291
     6  H    0.261821
 Sum of Mulliken charges =  -0.00000

 Dipole moment (field-independent basis, Debye):
    X=             -1.7697    Y=             -1.8906    Z=              0.0000  Tot=              2.5896
 Quadrupole moment (field-independent basis, Debye-Ang):
   XX=             -9.7986   YY=             -4.5171   ZZ=            -14.7222
   XY=             -2.4198   XZ=              0.0000   YZ=              0.0000

 Normal termination of Gaussian 16 at Fri Aug 26 21:12:44 2022.
