 Gaussian 16, Revision A.03,
 Gaussian 16:  ES64L-G16RevA.03 25-Dec-2016

 ------------------
 #p CCSD(T)/cc-pVTZ
 ------------------

 ------------
 H2O_H2O_4107
 ------------
 Symbolic Z-matrix:
 Charge =  0 Multiplicity = 1

                         Standard orientation:
 ---------------------------------------------------------------------
 Center     Atomic      Atomic             Coordinates (Angstroms)
 Number     Number       Type             X           Y           Z
 ---------------------------------------------------------------------
      1          8           0        0.025265   -2.977750    0.000000
      2          1           0       -0.774722   -3.548299    0.000000
      3          1           0        0.824419   -3.549465    0.000000
      4          8           0        0.025265    2.989493    0.000000
      5          1           0        0.490404    3.855029    0.000000
      6          1           0       -0.944338    3.148791    0.000000
 ---------------------------------------------------------------------

 SCF Done:  E(RHF) =  -152.106796249     A.U. after   10 cycles
 E2 =    -0.5259376022D+00 EUMP2 =    -0.15263273385163D+03
 CCSD(T)
 CCSD(T)= -0.15265996671D+03

 The electronic state is 1-A'.
 Alpha  occ. eigenvalues --  -20.55202 -20.55127  -1.32498  -1.32422  -0.69906
 Alpha  occ. eigenvalues --   -0.69827  -0.55917  -0.55841  -0.49605  -0.49529
 Alpha virt. eigenvalues --    0.14407   0.14516   0.20463   0.20550   0.54661
 Alpha virt. eigenvalues --    0.54748   0.57527   0.57606   0.68260   0.68458
 Alpha virt. eigenvalues --    0.79273   0.79349   0.80717   0.80801   0.82648

 Mulliken charges:
               1
     1  O   -0.505265
     2  H    0.251958
     3  H    0.253307
     4  O   -0.505179
     5  H    0.251624
     6  H    0.253555
 Sum of Mulliken charges =  -0.00000

 Dipole moment (field-independent basis, Debye):
    X=             -0.8672    Y=             -0.2053    Z=              0.0000  Tot=              0.8912
 Quadrupole moment (field-independent basis, Debye-Ang):
   XX=             -8.2061   YY=             10.9920   ZZ=            -14.7107
   XY=             -1.8930   XZ=              0.0000   YZ=              0.0000

 Normal termination of Gaussian 16 at Sat Aug 27 05:25:11 2022.
