 Gaussian 16, Revision A.03,
 Gaussian 16:  ES64L-G16RevA.03 25-Dec-2016

 ------------------
 #p CCSD(T)/cc-pVTZ
 ------------------

 ------------
 H2O_H2O_2589
 ------------
 Symbolic Z-matrix:
 Charge =  0 Multiplicity = 1

                         Standard orientation:
 ---------------------------------------------------------------------
 Center     Atomic      Atomic             Coordinates (Angstroms)
 Number     Number       Type             X           Y           Z
 ---------------------------------------------------------------------
      1          8           0        0.045351   -2.148894    0.000000
      2          1           0       -0.755245   -2.718589    0.000000
      3          1           0        0.843895   -2.721462    0.000000
      4          8           0        0.045351    2.193421    0.000000
      5          1           0        0.080754    3.175385    0.000000
      6          1           0       -0.895020    1.908451    0.000000
 ---------------------------------------------------------------------

 SCF Done:  E(RHF) =  -152.106624789     A.U. after   10 cycles
 E2 =    -0.5260918832D+00 EUMP2 =    -0.15263271667171D+03
 CCSD(T)
 CCSD(T)= -0.15265993976D+03

 The electronic state is 1-A'.
 Alpha  occ. eigenvalues --  -20.55225 -20.54646  -1.32514  -1.31932  -0.69925
 Alpha  occ. eigenvalues --   -0.69324  -0.55918  -0.55334  -0.49620  -0.49043
 Alpha virt. eigenvalues --    0.13767   0.15464   0.20281   0.21291   0.54107
 Alpha virt. eigenvalues --    0.55069   0.57508   0.58025   0.65647   0.72951
 Alpha virt. eigenvalues --    0.79221   0.79861   0.80335   0.81700   0.83175

 Mulliken charges:
               1
     1  O   -0.503086
     2  H    0.248833
     3  H    0.254641
     4  O   -0.503045
     5  H    0.246955
     6  H    0.255703
 Sum of Mulliken charges =  -0.00000

 Dipole moment (field-independent basis, Debye):
    X=             -1.5405    Y=             -0.7992    Z=              0.0000  Tot=              1.7355
 Quadrupole moment (field-independent basis, Debye-Ang):
   XX=             -9.1031   YY=              3.1358   ZZ=            -14.7117
   XY=             -2.6196   XZ=              0.0000   YZ=              0.0000

 Normal termination of Gaussian 16 at Fri Aug 26 14:07:13 2022.
