 Gaussian 16, Revision A.03,
 Gaussian 16:  ES64L-G16RevA.03 25-Dec-2016

 ------------------
 #p CCSD(T)/cc-pVTZ
 ------------------

 -----------
 H2O_H2O_123
 -----------
 Symbolic Z-matrix:
 Charge =  0 Multiplicity = 1

                         Standard orientation:
 ---------------------------------------------------------------------
 Center     Atomic      Atomic             Coordinates (Angstroms)
 Number     Number       Type             X           Y           Z
 ---------------------------------------------------------------------
      1          8           0        0.057297   -0.799153    0.000000
      2          1           0       -0.745548   -1.365672    0.000000
      3          1           0        0.853567   -1.374878    0.000000
      4          8           0        0.057297    0.905250    0.000000
      5          1           0       -0.455501    1.743429    0.000000
      6          1           0       -0.569275    0.148339    0.000000
 ---------------------------------------------------------------------

 SCF Done:  E(RHF) =  -151.910898264     A.U. after   11 cycles
 E2 =    -0.5500839267D+00 EUMP2 =    -0.15246098219056D+03
 CCSD(T)
 CCSD(T)= -0.15248520776D+03

 The electronic state is 1-A'.
 Alpha  occ. eigenvalues --  -20.57454 -20.46238  -1.43700  -1.25056  -0.80925
 Alpha  occ. eigenvalues --   -0.73860  -0.56768  -0.49664  -0.42335  -0.41873
 Alpha virt. eigenvalues --    0.12412   0.17593   0.20884   0.27114   0.48488
 Alpha virt. eigenvalues --    0.52793   0.63478   0.70218   0.74062   0.74492
 Alpha virt. eigenvalues --    0.77547   0.78407   0.84675   0.85331   0.89058

 Mulliken charges:
               1
     1  O   -0.265573
     2  H    0.167792
     3  H    0.221265
     4  O   -0.536291
     5  H    0.136336
     6  H    0.276471
 Sum of Mulliken charges =  -0.00000

 Dipole moment (field-independent basis, Debye):
    X=             -1.4756    Y=             -2.9237    Z=              0.0000  Tot=              3.2749
 Quadrupole moment (field-independent basis, Debye-Ang):
   XX=             -9.8265   YY=             -9.0291   ZZ=            -14.5117
   XY=             -1.8153   XZ=              0.0000   YZ=              0.0000

 Normal termination of Gaussian 16 at Fri Aug 26 12:58:46 2022.
