 Gaussian 16, Revision A.03,
 Gaussian 16:  ES64L-G16RevA.03 25-Dec-2016

 ------------------
 #p CCSD(T)/cc-pVTZ
 ------------------

 -----------
 H2O_H2O_930
 -----------
 Symbolic Z-matrix:
 Charge =  0 Multiplicity = 1

                         Standard orientation:
 ---------------------------------------------------------------------
 Center     Atomic      Atomic             Coordinates (Angstroms)
 Number     Number       Type             X           Y           Z
 ---------------------------------------------------------------------
      1          8           0        0.018362   -1.292279    0.000000
      2          1           0       -0.781905   -1.862435    0.000000
      3          1           0        0.817236   -1.864386    0.000000
      4          8           0        0.018362    1.298296    0.000000
      5          1           0        0.592889    2.095432    0.000000
      6          1           0       -0.922013    1.583253    0.000000
 ---------------------------------------------------------------------

 SCF Done:  E(RHF) =  -152.095509274     A.U. after   11 cycles
 E2 =    -0.5287239480D+00 EUMP2 =    -0.15262423322165D+03
 CCSD(T)
 CCSD(T)= -0.15265153415D+03

 The electronic state is 1-A'.
 Alpha  occ. eigenvalues --  -20.53402 -20.53231  -1.31119  -1.30382  -0.68452
 Alpha  occ. eigenvalues --   -0.67924  -0.56589  -0.50929  -0.48394  -0.47197
 Alpha virt. eigenvalues --    0.14422   0.17300   0.20536   0.22347   0.51121
 Alpha virt. eigenvalues --    0.58653   0.58835   0.62099   0.71823   0.76682
 Alpha virt. eigenvalues --    0.76685   0.79011   0.82650   0.83754   0.86326

 Mulliken charges:
               1
     1  O   -0.464838
     2  H    0.228012
     3  H    0.236102
     4  O   -0.458488
     5  H    0.224641
     6  H    0.234571
 Sum of Mulliken charges =  -0.00000

 Dipole moment (field-independent basis, Debye):
    X=             -0.5809    Y=             -0.1158    Z=              0.0000  Tot=              0.5923
 Quadrupole moment (field-independent basis, Debye-Ang):
   XX=             -8.1649   YY=             -2.4372   ZZ=            -14.7207
   XY=             -0.3158   XZ=              0.0000   YZ=              0.0000

 Normal termination of Gaussian 16 at Fri Aug 26 21:17:09 2022.
