 Gaussian 16, Revision A.03,
 Gaussian 16:  ES64L-G16RevA.03 25-Dec-2016

 ------------------
 #p CCSD(T)/cc-pVTZ
 ------------------

 ------------
 H2O_H2O_3568
 ------------
 Symbolic Z-matrix:
 Charge =  0 Multiplicity = 1

                         Standard orientation:
 ---------------------------------------------------------------------
 Center     Atomic      Atomic             Coordinates (Angstroms)
 Number     Number       Type             X           Y           Z
 ---------------------------------------------------------------------
      1          8           0        0.052825   -2.653419    0.000000
      2          1           0       -0.747710   -3.223199    0.000000
      3          1           0        0.851430   -3.225901    0.000000
      4          8           0        0.052825    2.723755    0.000000
      5          1           0       -0.167231    3.681398    0.000000
      6          1           0       -0.781692    2.205019    0.000000
 ---------------------------------------------------------------------

 SCF Done:  E(RHF) =  -152.107321420     A.U. after   10 cycles
 E2 =    -0.5259145134D+00 EUMP2 =    -0.15263323593382D+03
 CCSD(T)
 CCSD(T)= -0.15266045564D+03

 The electronic state is 1-A'.
 Alpha  occ. eigenvalues --  -20.55540 -20.54964  -1.32838  -1.32259  -0.70245
 Alpha  occ. eigenvalues --   -0.69654  -0.56281  -0.55700  -0.49949  -0.49373
 Alpha virt. eigenvalues --    0.13964   0.14821   0.20172   0.20863   0.54291
 Alpha virt. eigenvalues --    0.54905   0.57228   0.57781   0.67521   0.68972
 Alpha virt. eigenvalues --    0.78933   0.79496   0.80338   0.80803   0.82589

 Mulliken charges:
               1
     1  O   -0.508356
     2  H    0.252335
     3  H    0.256062
     4  O   -0.507905
     5  H    0.250591
     6  H    0.257272
 Sum of Mulliken charges =  -0.00000

 Dipole moment (field-independent basis, Debye):
    X=             -1.8100    Y=             -1.2387    Z=              0.0000  Tot=              2.1933
 Quadrupole moment (field-independent basis, Debye-Ang):
   XX=             -9.5589   YY=              4.5073   ZZ=            -14.7121
   XY=             -4.4032   XZ=              0.0000   YZ=              0.0000

 Normal termination of Gaussian 16 at Sat Aug 27 01:34:21 2022.
