 Gaussian 16, Revision A.03,
 Gaussian 16:  ES64L-G16RevA.03 25-Dec-2016

 ------------------
 #p CCSD(T)/cc-pVTZ
 ------------------

 ------------
 H2O_H2O_1481
 ------------
 Symbolic Z-matrix:
 Charge =  0 Multiplicity = 1

                         Standard orientation:
 ---------------------------------------------------------------------
 Center     Atomic      Atomic             Coordinates (Angstroms)
 Number     Number       Type             X           Y           Z
 ---------------------------------------------------------------------
      1          8           0        0.021861   -1.583363    0.000000
      2          1           0       -0.778386   -2.153547    0.000000
      3          1           0        0.820755   -2.155442    0.000000
      4          8           0        0.021861    1.592006    0.000000
      5          1           0        0.542994    2.425029    0.000000
      6          1           0       -0.935145    1.814814    0.000000
 ---------------------------------------------------------------------

 SCF Done:  E(RHF) =  -152.102999356     A.U. after   10 cycles
 E2 =    -0.5270741932D+00 EUMP2 =    -0.15263007354926D+03
 CCSD(T)
 CCSD(T)= -0.15265734134D+03

 The electronic state is 1-A'.
 Alpha  occ. eigenvalues --  -20.54188 -20.53992  -1.31502  -1.31249  -0.68925
 Alpha  occ. eigenvalues --   -0.68680  -0.55503  -0.53657  -0.48657  -0.48270
 Alpha virt. eigenvalues --    0.14230   0.16502   0.20517   0.21807   0.52482
 Alpha virt. eigenvalues --    0.58098   0.58197   0.58740   0.64230   0.76737
 Alpha virt. eigenvalues --    0.78168   0.78488   0.79394   0.82148   0.85887

 Mulliken charges:
               1
     1  O   -0.478732
     2  H    0.236392
     3  H    0.242691
     4  O   -0.477507
     5  H    0.235254
     6  H    0.241902
 Sum of Mulliken charges =  -0.00000

 Dipole moment (field-independent basis, Debye):
    X=             -0.7209    Y=             -0.1624    Z=              0.0000  Tot=              0.7390
 Quadrupole moment (field-independent basis, Debye-Ang):
   XX=             -8.1740   YY=              0.1716   ZZ=            -14.7101
   XY=             -0.5940   XZ=              0.0000   YZ=              0.0000

 Normal termination of Gaussian 16 at Sat Aug 27 05:00:25 2022.
