 Gaussian 16, Revision A.03,
 Gaussian 16:  ES64L-G16RevA.03 25-Dec-2016

 ------------------
 #p CCSD(T)/cc-pVTZ
 ------------------

 ------------
 H2O_H2O_2354
 ------------
 Symbolic Z-matrix:
 Charge =  0 Multiplicity = 1

                         Standard orientation:
 ---------------------------------------------------------------------
 Center     Atomic      Atomic             Coordinates (Angstroms)
 Number     Number       Type             X           Y           Z
 ---------------------------------------------------------------------
      1          8           0        0.014783   -2.051310    0.000000
      2          1           0       -0.785142   -2.621947    0.000000
      3          1           0        0.814000   -2.622938    0.000000
      4          8           0        0.014783    2.055184    0.000000
      5          1           0        0.639760    2.813412    0.000000
      6          1           0       -0.905150    2.400482    0.000000
 ---------------------------------------------------------------------

 SCF Done:  E(RHF) =  -152.105353012     A.U. after   10 cycles
 E2 =    -0.5262362510D+00 EUMP2 =    -0.15263158926292D+03
 CCSD(T)
 CCSD(T)= -0.15265883690D+03

 The electronic state is 1-A'.
 Alpha  occ. eigenvalues --  -20.54658 -20.54603  -1.31944  -1.31887  -0.69360
 Alpha  occ. eigenvalues --   -0.69301  -0.55394  -0.55105  -0.49047  -0.48981
 Alpha virt. eigenvalues --    0.14201   0.15520   0.20608   0.21076   0.54418
 Alpha virt. eigenvalues --    0.55908   0.57866   0.58100   0.63193   0.74118
 Alpha virt. eigenvalues --    0.79559   0.80144   0.80895   0.81312   0.81978

 Mulliken charges:
               1
     1  O   -0.495857
     2  H    0.246853
     3  H    0.249044
     4  O   -0.495733
     5  H    0.246514
     6  H    0.249179
 Sum of Mulliken charges =  -0.00000

 Dipole moment (field-independent basis, Debye):
    X=             -0.5005    Y=             -0.0699    Z=              0.0000  Tot=              0.5053
 Quadrupole moment (field-independent basis, Debye-Ang):
   XX=             -7.9680   YY=              4.1504   ZZ=            -14.7096
   XY=             -0.6071   XZ=              0.0000   YZ=              0.0000

 Normal termination of Gaussian 16 at Sat Aug 27 10:05:46 2022.
