 Gaussian 16, Revision A.03,
 Gaussian 16:  ES64L-G16RevA.03 25-Dec-2016

 ------------------
 #p CCSD(T)/cc-pVTZ
 ------------------

 ------------
 H2O_H2O_1520
 ------------
 Symbolic Z-matrix:
 Charge =  0 Multiplicity = 1

                         Standard orientation:
 ---------------------------------------------------------------------
 Center     Atomic      Atomic             Coordinates (Angstroms)
 Number     Number       Type             X           Y           Z
 ---------------------------------------------------------------------
      1          8           0        0.055293   -1.555549    0.000000
      2          1           0       -0.745972   -2.124302    0.000000
      3          1           0        0.853163   -2.129056    0.000000
      4          8           0        0.055293    1.639884    0.000000
      5          1           0       -0.286698    2.561050    0.000000
      6          1           0       -0.705175    1.017634    0.000000
 ---------------------------------------------------------------------

 SCF Done:  E(RHF) =  -152.107892879     A.U. after   10 cycles
 E2 =    -0.5269959742D+00 EUMP2 =    -0.15263488885289D+03
 CCSD(T)
 CCSD(T)= -0.15266202491D+03

 The electronic state is 1-A'.
 Alpha  occ. eigenvalues --  -20.55931 -20.53650  -1.33219  -1.30933  -0.70631
 Alpha  occ. eigenvalues --   -0.68345  -0.56607  -0.54371  -0.50336  -0.48059
 Alpha virt. eigenvalues --    0.13273   0.16887   0.19809   0.23989   0.53551
 Alpha virt. eigenvalues --    0.55248   0.56944   0.58301   0.67011   0.75815
 Alpha virt. eigenvalues --    0.76620   0.76800   0.79638   0.81617   0.84532

 Mulliken charges:
               1
     1  O   -0.491223
     2  H    0.242744
     3  H    0.256490
     4  O   -0.505046
     5  H    0.237111
     6  H    0.259924
 Sum of Mulliken charges =  -0.00000

 Dipole moment (field-independent basis, Debye):
    X=             -1.8217    Y=             -1.6219    Z=              0.0000  Tot=              2.4391
 Quadrupole moment (field-independent basis, Debye-Ang):
   XX=             -9.7326   YY=             -2.3090   ZZ=            -14.7213
   XY=             -2.8298   XZ=              0.0000   YZ=              0.0000

 Normal termination of Gaussian 16 at Sat Aug 27 05:14:59 2022.
