 Gaussian 16, Revision A.03,
 Gaussian 16:  ES64L-G16RevA.03 25-Dec-2016

 ------------------
 #p CCSD(T)/cc-pVTZ
 ------------------

 -----------
 H2O_H2O_949
 -----------
 Symbolic Z-matrix:
 Charge =  0 Multiplicity = 1

                         Standard orientation:
 ---------------------------------------------------------------------
 Center     Atomic      Atomic             Coordinates (Angstroms)
 Number     Number       Type             X           Y           Z
 ---------------------------------------------------------------------
      1          8           0        0.057330   -1.233745    0.000000
      2          1           0       -0.744410   -1.801827    0.000000
      3          1           0        0.854720   -1.807919    0.000000
      4          8           0        0.057330    1.347536    0.000000
      5          1           0       -0.510752    2.149276    0.000000
      6          1           0       -0.516843    0.550145    0.000000
 ---------------------------------------------------------------------

 SCF Done:  E(RHF) =  -152.104600731     A.U. after   10 cycles
 E2 =    -0.5297695844D+00 EUMP2 =    -0.15263437031508D+03
 CCSD(T)
 CCSD(T)= -0.15266125241D+03

 The electronic state is 1-A'.
 Alpha  occ. eigenvalues --  -20.57191 -20.51827  -1.34908  -1.29359  -0.72215
 Alpha  occ. eigenvalues --   -0.68297  -0.56989  -0.52898  -0.51916  -0.46442
 Alpha virt. eigenvalues --    0.12814   0.18214   0.19239   0.27300   0.50288
 Alpha virt. eigenvalues --    0.55784   0.59849   0.61109   0.70962   0.73373
 Alpha virt. eigenvalues --    0.74568   0.80687   0.82650   0.83434   0.86459

 Mulliken charges:
               1
     1  O   -0.468120
     2  H    0.239140
     3  H    0.257044
     4  O   -0.526510
     5  H    0.225819
     6  H    0.272628
 Sum of Mulliken charges =   0.00000

 Dipole moment (field-independent basis, Debye):
    X=             -1.8150    Y=             -2.4340    Z=              0.0000  Tot=              3.0362
 Quadrupole moment (field-independent basis, Debye-Ang):
   XX=             -9.8507   YY=             -5.3551   ZZ=            -14.7178
   XY=             -2.8872   XZ=              0.0000   YZ=              0.0000

 03831\MP4DQ=-152.6425315\MP4SDQ=-152.645738\CCSD=-152.6450799\CCSD(T)=
 Normal termination of Gaussian 16 at Fri Aug 26 21:26:27 2022.
