 Gaussian 16, Revision A.03,
 Gaussian 16:  ES64L-G16RevA.03 25-Dec-2016

 ------------------
 #p CCSD(T)/cc-pVTZ
 ------------------

 ------------
 H2O_H2O_1289
 ------------
 Symbolic Z-matrix:
 Charge =  0 Multiplicity = 1

                         Standard orientation:
 ---------------------------------------------------------------------
 Center     Atomic      Atomic             Coordinates (Angstroms)
 Number     Number       Type             X           Y           Z
 ---------------------------------------------------------------------
      1          8           0        0.045370   -1.457547    0.000000
      2          1           0       -0.755704   -2.026569    0.000000
      3          1           0        0.843432   -2.030784    0.000000
      4          8           0        0.045370    1.501998    0.000000
      5          1           0        0.081597    2.483930    0.000000
      6          1           0       -0.895241    1.217816    0.000000
 ---------------------------------------------------------------------

 SCF Done:  E(RHF) =  -152.104122680     A.U. after   10 cycles
 E2 =    -0.5274750322D+00 EUMP2 =    -0.15263159771197D+03
 CCSD(T)
 CCSD(T)= -0.15265880885D+03

 The electronic state is 1-A'.
 Alpha  occ. eigenvalues --  -20.54876 -20.53645  -1.32206  -1.30893  -0.69631
 Alpha  occ. eigenvalues --   -0.68322  -0.55919  -0.53707  -0.49335  -0.47966
 Alpha virt. eigenvalues --    0.13841   0.16870   0.20167   0.22849   0.53825
 Alpha virt. eigenvalues --    0.57142   0.57717   0.58422   0.67235   0.75959
 Alpha virt. eigenvalues --    0.76941   0.77030   0.80346   0.82498   0.85317

 Mulliken charges:
               1
     1  O   -0.480740
     2  H    0.235309
     3  H    0.249050
     4  O   -0.480979
     5  H    0.228553
     6  H    0.248808
 Sum of Mulliken charges =  -0.00000

 Dipole moment (field-independent basis, Debye):
    X=             -1.4741    Y=             -0.8522    Z=              0.0000  Tot=              1.7027
 Quadrupole moment (field-independent basis, Debye-Ang):
   XX=             -9.1493   YY=             -1.5901   ZZ=            -14.7172
   XY=             -1.5777   XZ=              0.0000   YZ=              0.0000

 Normal termination of Gaussian 16 at Sat Aug 27 03:39:25 2022.
