 Gaussian 16, Revision A.03,
 Gaussian 16:  ES64L-G16RevA.03 25-Dec-2016

 ------------------
 #p CCSD(T)/cc-pVTZ
 ------------------

 ------------
 H2O_H2O_2318
 ------------
 Symbolic Z-matrix:
 Charge =  0 Multiplicity = 1

                         Standard orientation:
 ---------------------------------------------------------------------
 Center     Atomic      Atomic             Coordinates (Angstroms)
 Number     Number       Type             X           Y           Z
 ---------------------------------------------------------------------
      1          8           0        0.052845   -1.988654    0.000000
      2          1           0       -0.748006   -2.557990    0.000000
      3          1           0        0.851132   -2.561579    0.000000
      4          8           0        0.052845    2.058931    0.000000
      5          1           0       -0.166680    3.016696    0.000000
      6          1           0       -0.781961    1.540658    0.000000
 ---------------------------------------------------------------------

 SCF Done:  E(RHF) =  -152.107350815     A.U. after   10 cycles
 E2 =    -0.5261733667D+00 EUMP2 =    -0.15263352418115D+03
 CCSD(T)
 CCSD(T)= -0.15266071753D+03

 The electronic state is 1-A'.
 Alpha  occ. eigenvalues --  -20.55552 -20.54442  -1.32832  -1.31728  -0.70243
 Alpha  occ. eigenvalues --   -0.69105  -0.56256  -0.55156  -0.49944  -0.48847
 Alpha virt. eigenvalues --    0.13355   0.15854   0.20067   0.21997   0.53992
 Alpha virt. eigenvalues --    0.54575   0.57262   0.58358   0.65432   0.74419
 Alpha virt. eigenvalues --    0.78837   0.79480   0.80104   0.81736   0.83427

 Mulliken charges:
               1
     1  O   -0.503352
     2  H    0.248563
     3  H    0.256400
     4  O   -0.506258
     5  H    0.245665
     6  H    0.258983
 Sum of Mulliken charges =   0.00000

 Dipole moment (field-independent basis, Debye):
    X=             -1.7868    Y=             -1.2804    Z=              0.0000  Tot=              2.1982
 Quadrupole moment (field-independent basis, Debye-Ang):
   XX=             -9.5617   YY=              0.7954   ZZ=            -14.7141
   XY=             -3.2185   XZ=              0.0000   YZ=              0.0000

 Normal termination of Gaussian 16 at Sat Aug 27 09:50:27 2022.
