 Gaussian 16, Revision A.03,
 Gaussian 16:  ES64L-G16RevA.03 25-Dec-2016

 ------------------
 #p CCSD(T)/cc-pVTZ
 ------------------

 -----------
 H2O_H2O_632
 -----------
 Symbolic Z-matrix:
 Charge =  0 Multiplicity = 1

                         Standard orientation:
 ---------------------------------------------------------------------
 Center     Atomic      Atomic             Coordinates (Angstroms)
 Number     Number       Type             X           Y           Z
 ---------------------------------------------------------------------
      1          8           0        0.025272   -1.129650    0.000000
      2          1           0       -0.775391   -1.699250    0.000000
      3          1           0        0.823748   -1.702312    0.000000
      4          8           0        0.025272    1.141333    0.000000
      5          1           0        0.491437    2.006316    0.000000
      6          1           0       -0.944142    1.301781    0.000000
 ---------------------------------------------------------------------

 SCF Done:  E(RHF) =  -152.082640678     A.U. after   11 cycles
 E2 =    -0.5310303112D+00 EUMP2 =    -0.15261367098960D+03
 CCSD(T)
 CCSD(T)= -0.15264084848D+03

 The electronic state is 1-A'.
 Alpha  occ. eigenvalues --  -20.52949 -20.52578  -1.31392  -1.29597  -0.68544
 Alpha  occ. eigenvalues --   -0.67375  -0.58097  -0.48689  -0.48309  -0.46261
 Alpha virt. eigenvalues --    0.14460   0.17744   0.20469   0.22811   0.51561
 Alpha virt. eigenvalues --    0.58693   0.58716   0.63613   0.70784   0.76637
 Alpha virt. eigenvalues --    0.77487   0.81154   0.84015   0.86380   0.87210

 Mulliken charges:
               1
     1  O   -0.456621
     2  H    0.220737
     3  H    0.233964
     4  O   -0.439559
     5  H    0.206529
     6  H    0.234950
 Sum of Mulliken charges =  -0.00000

 Dipole moment (field-independent basis, Debye):
    X=             -0.7680    Y=             -0.2317    Z=              0.0000  Tot=              0.8022
 Quadrupole moment (field-independent basis, Debye-Ang):
   XX=             -8.4145   YY=             -4.1174   ZZ=            -14.7338
   XY=             -0.3625   XZ=              0.0000   YZ=              0.0000

 Normal termination of Gaussian 16 at Fri Aug 26 18:29:34 2022.
