 Gaussian 16, Revision A.03,
 Gaussian 16:  ES64L-G16RevA.03 25-Dec-2016

 ------------------
 #p CCSD(T)/cc-pVTZ
 ------------------

 ------------
 H2O_H2O_3067
 ------------
 Symbolic Z-matrix:
 Charge =  0 Multiplicity = 1

                         Standard orientation:
 ---------------------------------------------------------------------
 Center     Atomic      Atomic             Coordinates (Angstroms)
 Number     Number       Type             X           Y           Z
 ---------------------------------------------------------------------
      1          8           0        0.051281   -2.391203    0.000000
      2          1           0       -0.749328   -2.960879    0.000000
      3          1           0        0.849811   -2.963789    0.000000
      4          8           0        0.051281    2.454721    0.000000
      5          1           0       -0.105545    3.424727    0.000000
      6          1           0       -0.815437    1.991789    0.000000
 ---------------------------------------------------------------------

 SCF Done:  E(RHF) =  -152.107173144     A.U. after   10 cycles
 E2 =    -0.5259688448D+00 EUMP2 =    -0.15263314198916D+03
 CCSD(T)
 CCSD(T)= -0.15266036072D+03

 The electronic state is 1-A'.
 Alpha  occ. eigenvalues --  -20.55468 -20.54813  -1.32762  -1.32106  -0.70170
 Alpha  occ. eigenvalues --   -0.69497  -0.56196  -0.55539  -0.49872  -0.49219
 Alpha virt. eigenvalues --    0.13795   0.15126   0.20183   0.21091   0.54270
 Alpha virt. eigenvalues --    0.54967   0.57299   0.57874   0.66929   0.70304
 Alpha virt. eigenvalues --    0.79010   0.79647   0.80260   0.80978   0.82810

 Mulliken charges:
               1
     1  O   -0.507094
     2  H    0.251205
     3  H    0.256079
     4  O   -0.506762
     5  H    0.249148
     6  H    0.257424
 Sum of Mulliken charges =  -0.00000

 Dipole moment (field-independent basis, Debye):
    X=             -1.7513    Y=             -1.1278    Z=              0.0000  Tot=              2.0830
 Quadrupole moment (field-independent basis, Debye-Ang):
   XX=             -9.4580   YY=              3.5113   ZZ=            -14.7122
   XY=             -3.7033   XZ=              0.0000   YZ=              0.0000

 Normal termination of Gaussian 16 at Fri Aug 26 19:05:57 2022.
