 Gaussian 16, Revision A.03,
 Gaussian 16:  ES64L-G16RevA.03 25-Dec-2016

 ------------------
 #p CCSD(T)/cc-pVTZ
 ------------------

 ------------
 H2O_H2O_1253
 ------------
 Symbolic Z-matrix:
 Charge =  0 Multiplicity = 1

                         Standard orientation:
 ---------------------------------------------------------------------
 Center     Atomic      Atomic             Coordinates (Angstroms)
 Number     Number       Type             X           Y           Z
 ---------------------------------------------------------------------
      1          8           0        0.011143   -1.467210    0.000000
      2          1           0       -0.788801   -2.037820    0.000000
      3          1           0        0.810341   -2.038864    0.000000
      4          8           0        0.011143    1.469390    0.000000
      5          1           0        0.684396    2.185097    0.000000
      6          1           0       -0.884223    1.874144    0.000000
 ---------------------------------------------------------------------

 SCF Done:  E(RHF) =  -152.100740655     A.U. after   11 cycles
 E2 =    -0.5275435508D+00 EUMP2 =    -0.15262828420588D+03
 CCSD(T)
 CCSD(T)= -0.15265558647D+03

 The electronic state is 1-A'.
 Alpha  occ. eigenvalues --  -20.53794 -20.53740  -1.31227  -1.30946  -0.68629
 Alpha  occ. eigenvalues --   -0.68416  -0.55734  -0.52691  -0.48439  -0.47882
 Alpha virt. eigenvalues --    0.14389   0.16812   0.20556   0.21937   0.51534
 Alpha virt. eigenvalues --    0.58385   0.58687   0.60258   0.67303   0.76350
 Alpha virt. eigenvalues --    0.77547   0.78127   0.79123   0.82913   0.86152

 Mulliken charges:
               1
     1  O   -0.471151
     2  H    0.233564
     3  H    0.237582
     4  O   -0.470036
     5  H    0.233285
     6  H    0.236756
 Sum of Mulliken charges =  -0.00000

 Dipole moment (field-independent basis, Debye):
    X=             -0.3630    Y=             -0.0412    Z=              0.0000  Tot=              0.3653
 Quadrupole moment (field-independent basis, Debye-Ang):
   XX=             -7.9828   YY=             -0.7631   ZZ=            -14.7115
   XY=             -0.2382   XZ=              0.0000   YZ=              0.0000

 Normal termination of Gaussian 16 at Sat Aug 27 03:23:20 2022.
