 Gaussian 16, Revision A.03,
 Gaussian 16:  ES64L-G16RevA.03 25-Dec-2016

 ------------------
 #p CCSD(T)/cc-pVTZ
 ------------------

 ------------
 H2O_H2O_3116
 ------------
 Symbolic Z-matrix:
 Charge =  0 Multiplicity = 1

                         Standard orientation:
 ---------------------------------------------------------------------
 Center     Atomic      Atomic             Coordinates (Angstroms)
 Number     Number       Type             X           Y           Z
 ---------------------------------------------------------------------
      1          8           0        0.049511   -2.421367    0.000000
      2          1           0       -0.751051   -2.991108    0.000000
      3          1           0        0.848088   -2.993887    0.000000
      4          8           0        0.049511    2.478308    0.000000
      5          1           0       -0.043618    3.456486    0.000000
      6          1           0       -0.845595    2.072979    0.000000
 ---------------------------------------------------------------------

 SCF Done:  E(RHF) =  -152.107055521     A.U. after   10 cycles
 E2 =    -0.5259692673D+00 EUMP2 =    -0.15263302478835D+03
 CCSD(T)
 CCSD(T)= -0.15266024725D+03

 The electronic state is 1-A'.
 Alpha  occ. eigenvalues --  -20.55409 -20.54839  -1.32704  -1.32131  -0.70112
 Alpha  occ. eigenvalues --   -0.69525  -0.56132  -0.55560  -0.49813  -0.49244
 Alpha virt. eigenvalues --    0.13894   0.15064   0.20229   0.21018   0.54342
 Alpha virt. eigenvalues --    0.54985   0.57345   0.57857   0.67055   0.70103
 Alpha virt. eigenvalues --    0.79068   0.79625   0.80371   0.81017   0.82809

 Mulliken charges:
               1
     1  O   -0.506576
     2  H    0.251059
     3  H    0.255644
     4  O   -0.506168
     5  H    0.249235
     6  H    0.256805
 Sum of Mulliken charges =  -0.00000

 Dipole moment (field-independent basis, Debye):
    X=             -1.6915    Y=             -1.0094    Z=              0.0000  Tot=              1.9697
 Quadrupole moment (field-independent basis, Debye-Ang):
   XX=             -9.3464   YY=              4.1265   ZZ=            -14.7119
   XY=             -3.5180   XZ=              0.0000   YZ=              0.0000

 Normal termination of Gaussian 16 at Fri Aug 26 19:34:05 2022.
