 Gaussian 16, Revision A.03,
 Gaussian 16:  ES64L-G16RevA.03 25-Dec-2016

 ------------------
 #p CCSD(T)/cc-pVTZ
 ------------------

 -----------
 H2O_H2O_525
 -----------
 Symbolic Z-matrix:
 Charge =  0 Multiplicity = 1

                         Standard orientation:
 ---------------------------------------------------------------------
 Center     Atomic      Atomic             Coordinates (Angstroms)
 Number     Number       Type             X           Y           Z
 ---------------------------------------------------------------------
      1          8           0        0.000000   -0.000000    1.082813
      2          1           0        0.000000    0.799571    1.653945
      3          1           0       -0.000000   -0.799571    1.653945
      4          8           0        0.000000   -0.000000   -1.082813
      5          1           0       -0.000000   -0.799571   -1.653945
      6          1           0        0.000000    0.799571   -1.653945
 ---------------------------------------------------------------------

 SCF Done:  E(RHF) =  -152.071319129     A.U. after   11 cycles
 E2 =    -0.5323831577D+00 EUMP2 =    -0.15260370228702D+03
 CCSD(T)
 CCSD(T)= -0.15263079964D+03

 The electronic state is 1-AG.
 Alpha  occ. eigenvalues --  -20.52239 -20.52238  -1.31320  -1.29123  -0.68252
 Alpha  occ. eigenvalues --   -0.66882  -0.59331  -0.48625  -0.46222  -0.45665
 Alpha virt. eigenvalues --    0.14619   0.18131   0.20553   0.22645   0.50125
 Alpha virt. eigenvalues --    0.59087   0.59179   0.65393   0.71337   0.77299
 Alpha virt. eigenvalues --    0.78485   0.81753   0.84424   0.86689   0.86994

 Mulliken charges:
               1
     1  O   -0.443197
     2  H    0.221598
     3  H    0.221598
     4  O   -0.443197
     5  H    0.221598
     6  H    0.221598
 Sum of Mulliken charges =  -0.00000

 Dipole moment (field-independent basis, Debye):
    X=             -0.0000    Y=              0.0000    Z=             -0.0000  Tot=              0.0000
 Quadrupole moment (field-independent basis, Debye-Ang):
   XX=            -14.7447   YY=             -8.0837   ZZ=             -4.7058
   XY=              0.0000   XZ=             -0.0000   YZ=             -0.0000

 \MP4DQ=-152.6115901\MP4SDQ=-152.6149914\CCSD=-152.6142753\CCSD(T)=-152
 Normal termination of Gaussian 16 at Fri Aug 26 17:20:11 2022.
