 Gaussian 16, Revision A.03,
 Gaussian 16:  ES64L-G16RevA.03 25-Dec-2016

 ------------------
 #p CCSD(T)/cc-pVTZ
 ------------------

 -----------
 H2O_H2O_702
 -----------
 Symbolic Z-matrix:
 Charge =  0 Multiplicity = 1

                         Standard orientation:
 ---------------------------------------------------------------------
 Center     Atomic      Atomic             Coordinates (Angstroms)
 Number     Number       Type             X           Y           Z
 ---------------------------------------------------------------------
      1          8           0        0.007455   -1.175358    0.000000
      2          1           0       -0.792427   -1.746054    0.000000
      3          1           0        0.806714   -1.746926    0.000000
      4          8           0        0.007455    1.176327    0.000000
      5          1           0        0.726004    1.846546    0.000000
      6          1           0       -0.859572    1.638681    0.000000
 ---------------------------------------------------------------------

 SCF Done:  E(RHF) =  -152.085693553     A.U. after   11 cycles
 E2 =    -0.5302846766D+00 EUMP2 =    -0.15261597822965D+03
 CCSD(T)
 CCSD(T)= -0.15264322714D+03

 The electronic state is 1-A'.
 Alpha  occ. eigenvalues --  -20.52759 -20.52730  -1.31070  -1.29740  -0.68245
 Alpha  occ. eigenvalues --   -0.67383  -0.57818  -0.48634  -0.48385  -0.46412
 Alpha virt. eigenvalues --    0.14545   0.17758   0.20573   0.22484   0.50306
 Alpha virt. eigenvalues --    0.58959   0.58984   0.64100   0.72570   0.76765
 Alpha virt. eigenvalues --    0.77508   0.80432   0.84209   0.86599   0.86761

 Mulliken charges:
               1
     1  O   -0.454330
     2  H    0.225168
     3  H    0.228891
     4  O   -0.452618
     5  H    0.223179
     6  H    0.229711
 Sum of Mulliken charges =  -0.00000

 Dipole moment (field-independent basis, Debye):
    X=             -0.2295    Y=             -0.0191    Z=              0.0000  Tot=              0.2303
 Quadrupole moment (field-independent basis, Debye-Ang):
   XX=             -8.0538   YY=             -3.6379   ZZ=            -14.7331
   XY=             -0.0925   XZ=              0.0000   YZ=              0.0000

 Normal termination of Gaussian 16 at Fri Aug 26 19:14:20 2022.
