 Gaussian 16, Revision A.03,
 Gaussian 16:  ES64L-G16RevA.03 25-Dec-2016

 ------------------
 #p CCSD(T)/cc-pVTZ
 ------------------

 ------------
 H2O_H2O_4013
 ------------
 Symbolic Z-matrix:
 Charge =  0 Multiplicity = 1

                         Standard orientation:
 ---------------------------------------------------------------------
 Center     Atomic      Atomic             Coordinates (Angstroms)
 Number     Number       Type             X           Y           Z
 ---------------------------------------------------------------------
      1          8           0        0.042965   -2.909870    0.000000
      2          1           0       -0.757327   -3.479993    0.000000
      3          1           0        0.841814   -3.482011    0.000000
      4          8           0        0.042965    2.948673    0.000000
      5          1           0        0.141992    3.926272    0.000000
      6          1           0       -0.913912    2.725305    0.000000
 ---------------------------------------------------------------------

 SCF Done:  E(RHF) =  -152.107024929     A.U. after   10 cycles
 E2 =    -0.5259211186D+00 EUMP2 =    -0.15263294604739D+03
 CCSD(T)
 CCSD(T)= -0.15266017380D+03

 The electronic state is 1-A'.
 Alpha  occ. eigenvalues --  -20.55356 -20.55093  -1.32653  -1.32388  -0.70060
 Alpha  occ. eigenvalues --   -0.69789  -0.56082  -0.55818  -0.49761  -0.49498
 Alpha virt. eigenvalues --    0.14260   0.14576   0.20337   0.20629   0.54503
 Alpha virt. eigenvalues --    0.54791   0.57390   0.57656   0.68057   0.68488
 Alpha virt. eigenvalues --    0.79118   0.79377   0.80556   0.80838   0.82495

 Mulliken charges:
               1
     1  O   -0.506634
     2  H    0.252113
     3  H    0.254522
     4  O   -0.506400
     5  H    0.251287
     6  H    0.255112
 Sum of Mulliken charges =  -0.00000

 Dipole moment (field-independent basis, Debye):
    X=             -1.4746    Y=             -0.6795    Z=              0.0000  Tot=              1.6236
 Quadrupole moment (field-independent basis, Debye-Ang):
   XX=             -8.9653   YY=              8.5272   ZZ=            -14.7113
   XY=             -3.5062   XZ=              0.0000   YZ=              0.0000

 496275\MP4DQ=-152.6420704\MP4SDQ=-152.645129\CCSD=-152.644541\CCSD(T)=
 Normal termination of Gaussian 16 at Sat Aug 27 04:53:08 2022.
