 Gaussian 16, Revision A.03,
 Gaussian 16:  ES64L-G16RevA.03 25-Dec-2016

 ------------------
 #p CCSD(T)/cc-pVTZ
 ------------------

 ------------
 H2O_H2O_2395
 ------------
 Symbolic Z-matrix:
 Charge =  0 Multiplicity = 1

                         Standard orientation:
 ---------------------------------------------------------------------
 Center     Atomic      Atomic             Coordinates (Angstroms)
 Number     Number       Type             X           Y           Z
 ---------------------------------------------------------------------
      1          8           0        0.055264   -2.020868    0.000000
      2          1           0       -0.745619   -2.590158    0.000000
      3          1           0        0.853519   -2.593839    0.000000
      4          8           0        0.055264    2.105276    0.000000
      5          1           0       -0.287344    3.026213    0.000000
      6          1           0       -0.704786    1.482517    0.000000
 ---------------------------------------------------------------------

 SCF Done:  E(RHF) =  -152.107823695     A.U. after   10 cycles
 E2 =    -0.5261255100D+00 EUMP2 =    -0.15263394920457D+03
 CCSD(T)
 CCSD(T)= -0.15266113283D+03

 The electronic state is 1-A'.
 Alpha  occ. eigenvalues --  -20.55744 -20.54449  -1.33025  -1.31741  -0.70434
 Alpha  occ. eigenvalues --   -0.69115  -0.56470  -0.55188  -0.50140  -0.48863
 Alpha virt. eigenvalues --    0.13213   0.15840   0.19976   0.22154   0.54120
 Alpha virt. eigenvalues --    0.54530   0.57108   0.58388   0.65906   0.73633
 Alpha virt. eigenvalues --    0.78688   0.79436   0.80044   0.81861   0.82451

 Mulliken charges:
               1
     1  O   -0.505384
     2  H    0.249837
     3  H    0.257466
     4  O   -0.509115
     5  H    0.246591
     6  H    0.260606
 Sum of Mulliken charges =  -0.00000

 Dipole moment (field-independent basis, Debye):
    X=             -1.8716    Y=             -1.5366    Z=              0.0000  Tot=              2.4216
 Quadrupole moment (field-independent basis, Debye-Ang):
   XX=             -9.7232   YY=              0.1555   ZZ=            -14.7151
   XY=             -3.6839   XZ=              0.0000   YZ=              0.0000

 Normal termination of Gaussian 16 at Sat Aug 27 10:19:23 2022.
