 Gaussian 16, Revision A.03,
 Gaussian 16:  ES64L-G16RevA.03 25-Dec-2016

 ------------------
 #p CCSD(T)/cc-pVTZ
 ------------------

 ------------
 H2O_H2O_4474
 ------------
 Symbolic Z-matrix:
 Charge =  0 Multiplicity = 1

                         Standard orientation:
 ---------------------------------------------------------------------
 Center     Atomic      Atomic             Coordinates (Angstroms)
 Number     Number       Type             X           Y           Z
 ---------------------------------------------------------------------
      1          8           0        0.057202   -3.108334    0.000000
      2          1           0       -0.743255   -3.678223    0.000000
      3          1           0        0.855885   -3.680707    0.000000
      4          8           0        0.057202    3.222383    0.000000
      5          1           0       -0.512688    4.022840    0.000000
      6          1           0       -0.515171    2.423699    0.000000
 ---------------------------------------------------------------------

 SCF Done:  E(RHF) =  -152.107711458     A.U. after   10 cycles
 E2 =    -0.5258526216D+00 EUMP2 =    -0.15263356407938D+03
 CCSD(T)
 CCSD(T)= -0.15266077775D+03

 The electronic state is 1-A'.
 Alpha  occ. eigenvalues --  -20.55785 -20.55134  -1.33086  -1.32435  -0.70491
 Alpha  occ. eigenvalues --   -0.69834  -0.56547  -0.55890  -0.50199  -0.49551
 Alpha virt. eigenvalues --    0.13896   0.14578   0.20005   0.20704   0.54066
 Alpha virt. eigenvalues --    0.54735   0.57012   0.57660   0.67581   0.68328
 Alpha virt. eigenvalues --    0.78681   0.79319   0.80105   0.80766   0.82073

 Mulliken charges:
               1
     1  O   -0.510691
     2  H    0.254193
     3  H    0.256500
     4  O   -0.510288
     5  H    0.252536
     6  H    0.257749
 Sum of Mulliken charges =  -0.00000

 Dipole moment (field-independent basis, Debye):
    X=             -1.9663    Y=             -1.9933    Z=              0.0000  Tot=              2.7999
 Quadrupole moment (field-independent basis, Debye-Ang):
   XX=             -9.8645   YY=              2.5449   ZZ=            -14.7128
   XY=             -6.4841   XZ=              0.0000   YZ=              0.0000

 Normal termination of Gaussian 16 at Sat Aug 27 07:31:02 2022.
