 Gaussian 16, Revision A.03,
 Gaussian 16:  ES64L-G16RevA.03 25-Dec-2016

 ------------------
 #p CCSD(T)/cc-pVTZ
 ------------------

 ------------
 H2O_H2O_2908
 ------------
 Symbolic Z-matrix:
 Charge =  0 Multiplicity = 1

                         Standard orientation:
 ---------------------------------------------------------------------
 Center     Atomic      Atomic             Coordinates (Angstroms)
 Number     Number       Type             X           Y           Z
 ---------------------------------------------------------------------
      1          8           0        0.028565   -2.337645    0.000000
      2          1           0       -0.771605   -2.907939    0.000000
      3          1           0        0.827536   -2.909615    0.000000
      4          8           0        0.028565    2.352889    0.000000
      5          1           0        0.436386    3.246863    0.000000
      6          1           0       -0.949350    2.448743    0.000000
 ---------------------------------------------------------------------

 SCF Done:  E(RHF) =  -152.106179745     A.U. after   10 cycles
 E2 =    -0.5260495140D+00 EUMP2 =    -0.15263222925895D+03
 CCSD(T)
 CCSD(T)= -0.15265947085D+03

 The electronic state is 1-A'.
 Alpha  occ. eigenvalues --  -20.54977 -20.54815  -1.32269  -1.32105  -0.69680
 Alpha  occ. eigenvalues --   -0.69510  -0.55660  -0.55488  -0.49372  -0.49209
 Alpha virt. eigenvalues --    0.14254   0.15072   0.20515   0.20877   0.54681
 Alpha virt. eigenvalues --    0.55191   0.57686   0.57881   0.66564   0.70949
 Alpha virt. eigenvalues --    0.79487   0.79680   0.80897   0.81204   0.82578

 Mulliken charges:
               1
     1  O   -0.501597
     2  H    0.249319
     3  H    0.252306
     4  O   -0.501283
     5  H    0.248626
     6  H    0.252629
 Sum of Mulliken charges =  -0.00000

 Dipole moment (field-independent basis, Debye):
    X=             -0.9738    Y=             -0.2703    Z=              0.0000  Tot=              1.0107
 Quadrupole moment (field-independent basis, Debye-Ang):
   XX=             -8.3275   YY=              5.9256   ZZ=            -14.7102
   XY=             -1.5545   XZ=              0.0000   YZ=              0.0000

 Normal termination of Gaussian 16 at Fri Aug 26 17:21:48 2022.
