 Gaussian 16, Revision A.03,
 Gaussian 16:  ES64L-G16RevA.03 25-Dec-2016

 ------------------
 #p CCSD(T)/cc-pVTZ
 ------------------

 ------------
 H2O_H2O_1465
 ------------
 Symbolic Z-matrix:
 Charge =  0 Multiplicity = 1

                         Standard orientation:
 ---------------------------------------------------------------------
 Center     Atomic      Atomic             Coordinates (Angstroms)
 Number     Number       Type             X           Y           Z
 ---------------------------------------------------------------------
      1          8           0        0.047554   -1.547323    0.000000
      2          1           0       -0.753499   -2.116374    0.000000
      3          1           0        0.845637   -2.120531    0.000000
      4          8           0        0.047554    1.597841    0.000000
      5          1           0        0.019446    2.580040    0.000000
      6          1           0       -0.872444    1.252716    0.000000
 ---------------------------------------------------------------------

 SCF Done:  E(RHF) =  -152.105466413     A.U. after   10 cycles
 E2 =    -0.5270849975D+00 EUMP2 =    -0.15263255141040D+03
 CCSD(T)
 CCSD(T)= -0.15265974728D+03

 The electronic state is 1-A'.
 Alpha  occ. eigenvalues --  -20.55109 -20.53819  -1.32403  -1.31074  -0.69827
 Alpha  occ. eigenvalues --   -0.68473  -0.55919  -0.54197  -0.49520  -0.48174
 Alpha virt. eigenvalues --    0.13718   0.16697   0.20124   0.22786   0.54060
 Alpha virt. eigenvalues --    0.55798   0.57567   0.58452   0.65805   0.76224
 Alpha virt. eigenvalues --    0.77469   0.77495   0.79290   0.81962   0.85161

 Mulliken charges:
               1
     1  O   -0.485386
     2  H    0.238274
     3  H    0.250921
     4  O   -0.489008
     5  H    0.233158
     6  H    0.252040
 Sum of Mulliken charges =  -0.00000

 Dipole moment (field-independent basis, Debye):
    X=             -1.5615    Y=             -0.9607    Z=              0.0000  Tot=              1.8333
 Quadrupole moment (field-independent basis, Debye-Ang):
   XX=             -9.2592   YY=             -1.1144   ZZ=            -14.7163
   XY=             -1.8877   XZ=              0.0000   YZ=              0.0000

 Normal termination of Gaussian 16 at Sat Aug 27 04:54:58 2022.
