 Gaussian 16, Revision A.03,
 Gaussian 16:  ES64L-G16RevA.03 25-Dec-2016

 ------------------
 #p CCSD(T)/cc-pVTZ
 ------------------

 ------------
 H2O_H2O_4582
 ------------
 Symbolic Z-matrix:
 Charge =  0 Multiplicity = 1

                         Standard orientation:
 ---------------------------------------------------------------------
 Center     Atomic      Atomic             Coordinates (Angstroms)
 Number     Number       Type             X           Y           Z
 ---------------------------------------------------------------------
      1          8           0        0.025265   -3.230371    0.000000
      2          1           0       -0.774690   -3.800966    0.000000
      3          1           0        0.824452   -3.802040    0.000000
      4          8           0        0.025265    3.242117    0.000000
      5          1           0        0.490354    4.107679    0.000000
      6          1           0       -0.944348    3.401360    0.000000
 ---------------------------------------------------------------------

 SCF Done:  E(RHF) =  -152.106944686     A.U. after   10 cycles
 E2 =    -0.5259178528D+00 EUMP2 =    -0.15263286253838D+03
 CCSD(T)
 CCSD(T)= -0.15266009264D+03

 The electronic state is 1-A'.
 Alpha  occ. eigenvalues --  -20.55269 -20.55205  -1.32566  -1.32501  -0.69973
 Alpha  occ. eigenvalues --   -0.69906  -0.55992  -0.55927  -0.49674  -0.49609
 Alpha virt. eigenvalues --    0.14367   0.14436   0.20420   0.20488   0.54595
 Alpha virt. eigenvalues --    0.54665   0.57472   0.57537   0.68229   0.68304
 Alpha virt. eigenvalues --    0.79205   0.79269   0.80646   0.80717   0.82573

 Mulliken charges:
               1
     1  O   -0.506134
     2  H    0.252532
     3  H    0.253602
     4  O   -0.506076
     5  H    0.252256
     6  H    0.253820
 Sum of Mulliken charges =  -0.00000

 Dipole moment (field-independent basis, Debye):
    X=             -0.8684    Y=             -0.2049    Z=              0.0000  Tot=              0.8922
 Quadrupole moment (field-independent basis, Debye-Ang):
   XX=             -8.2040   YY=             12.9107   ZZ=            -14.7109
   XY=             -2.1104   XZ=              0.0000   YZ=              0.0000

 Normal termination of Gaussian 16 at Sat Aug 27 08:10:25 2022.
