 Gaussian 16, Revision A.03,
 Gaussian 16:  ES64L-G16RevA.03 25-Dec-2016

 ------------------
 #p CCSD(T)/cc-pVTZ
 ------------------

 ------------
 H2O_H2O_1022
 ------------
 Symbolic Z-matrix:
 Charge =  0 Multiplicity = 1

                         Standard orientation:
 ---------------------------------------------------------------------
 Center     Atomic      Atomic             Coordinates (Angstroms)
 Number     Number       Type             X           Y           Z
 ---------------------------------------------------------------------
      1          8           0        0.056806   -1.281719    0.000000
      2          1           0       -0.744851   -1.849919    0.000000
      3          1           0        0.854280   -1.855775    0.000000
      4          8           0        0.056806    1.380620    0.000000
      5          1           0       -0.401896    2.249585    0.000000
      6          1           0       -0.616430    0.664898    0.000000
 ---------------------------------------------------------------------

 SCF Done:  E(RHF) =  -152.105334501     A.U. after   10 cycles
 E2 =    -0.5289495517D+00 EUMP2 =    -0.15263428405251D+03
 CCSD(T)
 CCSD(T)= -0.15266129465D+03

 The electronic state is 1-A'.
 Alpha  occ. eigenvalues --  -20.56526 -20.52483  -1.34080  -1.29867  -0.71450
 Alpha  occ. eigenvalues --   -0.68041  -0.56728  -0.53404  -0.51148  -0.46962
 Alpha virt. eigenvalues --    0.13083   0.17845   0.19516   0.25831   0.51386
 Alpha virt. eigenvalues --    0.56347   0.58658   0.60138   0.70849   0.73978
 Alpha virt. eigenvalues --    0.75055   0.80607   0.82615   0.83917   0.85188

 Mulliken charges:
               1
     1  O   -0.476244
     2  H    0.238995
     3  H    0.256044
     4  O   -0.510446
     5  H    0.226431
     6  H    0.265222
 Sum of Mulliken charges =  -0.00000

 Dipole moment (field-independent basis, Debye):
    X=             -1.8088    Y=             -2.0355    Z=              0.0000  Tot=              2.7230
 Quadrupole moment (field-independent basis, Debye-Ang):
   XX=             -9.8322   YY=             -4.4725   ZZ=            -14.7244
   XY=             -2.6755   XZ=              0.0000   YZ=              0.0000

 Normal termination of Gaussian 16 at Sat Aug 27 01:27:10 2022.
