 Gaussian 16, Revision A.03,
 Gaussian 16:  ES64L-G16RevA.03 25-Dec-2016

 ------------------
 #p CCSD(T)/cc-pVTZ
 ------------------

 ------------
 H2O_H2O_1031
 ------------
 Symbolic Z-matrix:
 Charge =  0 Multiplicity = 1

                         Standard orientation:
 ---------------------------------------------------------------------
 Center     Atomic      Atomic             Coordinates (Angstroms)
 Number     Number       Type             X           Y           Z
 ---------------------------------------------------------------------
      1          8           0        0.021862   -1.344041    0.000000
      2          1           0       -0.778505   -1.914057    0.000000
      3          1           0        0.820636   -1.916288    0.000000
      4          8           0        0.021862    1.352675    0.000000
      5          1           0        0.543170    2.185589    0.000000
      6          1           0       -0.935097    1.575685    0.000000
 ---------------------------------------------------------------------

 SCF Done:  E(RHF) =  -152.098072179     A.U. after   11 cycles
 E2 =    -0.5282693816D+00 EUMP2 =    -0.15262634156098D+03
 CCSD(T)
 CCSD(T)= -0.15265364054D+03

 The electronic state is 1-A'.
 Alpha  occ. eigenvalues --  -20.53646 -20.53407  -1.31205  -1.30603  -0.68576
 Alpha  occ. eigenvalues --   -0.68109  -0.56245  -0.51696  -0.48452  -0.47476
 Alpha virt. eigenvalues --    0.14362   0.17127   0.20513   0.22289   0.51527
 Alpha virt. eigenvalues --    0.58525   0.58777   0.61224   0.70603   0.76594
 Alpha virt. eigenvalues --    0.76829   0.78443   0.81185   0.83503   0.86192

 Mulliken charges:
               1
     1  O   -0.468433
     2  H    0.229480
     3  H    0.238431
     4  O   -0.461613
     5  H    0.225919
     6  H    0.236215
 Sum of Mulliken charges =  -0.00000

 Dipole moment (field-independent basis, Debye):
    X=             -0.6985    Y=             -0.1653    Z=              0.0000  Tot=              0.7178
 Quadrupole moment (field-independent basis, Debye-Ang):
   XX=             -8.2307   YY=             -1.9579   ZZ=            -14.7172
   XY=             -0.4282   XZ=              0.0000   YZ=              0.0000

 Normal termination of Gaussian 16 at Sat Aug 27 01:32:32 2022.
