 Gaussian 16, Revision A.03,
 Gaussian 16:  ES64L-G16RevA.03 25-Dec-2016

 ------------------
 #p CCSD(T)/cc-pVTZ
 ------------------

 ------------
 H2O_H2O_1296
 ------------
 Symbolic Z-matrix:
 Charge =  0 Multiplicity = 1

                         Standard orientation:
 ---------------------------------------------------------------------
 Center     Atomic      Atomic             Coordinates (Angstroms)
 Number     Number       Type             X           Y           Z
 ---------------------------------------------------------------------
      1          8           0        0.056166   -1.431953    0.000000
      2          1           0       -0.745265   -2.000473    0.000000
      3          1           0        0.853869   -2.005691    0.000000
      4          8           0        0.056166    1.523529    0.000000
      5          1           0       -0.345079    2.420473    0.000000
      6          1           0       -0.662173    0.853083    0.000000
 ---------------------------------------------------------------------

 SCF Done:  E(RHF) =  -152.107776041     A.U. after   10 cycles
 E2 =    -0.5275942051D+00 EUMP2 =    -0.15263537024602D+03
 CCSD(T)
 CCSD(T)= -0.15266247118D+03

 The electronic state is 1-A'.
 Alpha  occ. eigenvalues --  -20.56187 -20.53232  -1.33529  -1.30537  -0.70932
 Alpha  occ. eigenvalues --   -0.68095  -0.56794  -0.54008  -0.50640  -0.47658
 Alpha virt. eigenvalues --    0.13192   0.17284   0.19692   0.24793   0.52640
 Alpha virt. eigenvalues --    0.56153   0.56869   0.58841   0.68997   0.74953
 Alpha virt. eigenvalues --    0.75450   0.77944   0.81392   0.82108   0.84311

 Mulliken charges:
               1
     1  O   -0.487749
     2  H    0.241850
     3  H    0.257888
     4  O   -0.506831
     5  H    0.233364
     6  H    0.261478
 Sum of Mulliken charges =  -0.00000

 Dipole moment (field-independent basis, Debye):
    X=             -1.8270    Y=             -1.8061    Z=              0.0000  Tot=              2.5690
 Quadrupole moment (field-independent basis, Debye-Ang):
   XX=             -9.7924   YY=             -3.3090   ZZ=            -14.7253
   XY=             -2.7835   XZ=              0.0000   YZ=              0.0000

 Normal termination of Gaussian 16 at Sat Aug 27 03:42:35 2022.
