 Gaussian 16, Revision A.03,
 Gaussian 16:  ES64L-G16RevA.03 25-Dec-2016

 ------------------
 #p CCSD(T)/cc-pVTZ
 ------------------

 ------------
 H2O_H2O_4754
 ------------
 Symbolic Z-matrix:
 Charge =  0 Multiplicity = 1

                         Standard orientation:
 ---------------------------------------------------------------------
 Center     Atomic      Atomic             Coordinates (Angstroms)
 Number     Number       Type             X           Y           Z
 ---------------------------------------------------------------------
      1          8           0        0.014783   -3.327714    0.000000
      2          1           0       -0.785006   -3.898541    0.000000
      3          1           0        0.814135   -3.899152    0.000000
      4          8           0        0.014783    3.331595    0.000000
      5          1           0        0.639580    4.089972    0.000000
      6          1           0       -0.905232    3.676673    0.000000
 ---------------------------------------------------------------------

 SCF Done:  E(RHF) =  -152.106937010     A.U. after   10 cycles
 E2 =    -0.5259165193D+00 EUMP2 =    -0.15263285352969D+03
 CCSD(T)
 CCSD(T)= -0.15266008392D+03

 The electronic state is 1-A'.
 Alpha  occ. eigenvalues --  -20.55252 -20.55232  -1.32549  -1.32529  -0.69956
 Alpha  occ. eigenvalues --   -0.69935  -0.55974  -0.55954  -0.49657  -0.49637
 Alpha virt. eigenvalues --    0.14384   0.14408   0.20436   0.20457   0.54613
 Alpha virt. eigenvalues --    0.54634   0.57489   0.57509   0.68248   0.68276
 Alpha virt. eigenvalues --    0.79222   0.79242   0.80664   0.80686   0.82590

 Mulliken charges:
               1
     1  O   -0.506085
     2  H    0.252754
     3  H    0.253331
     4  O   -0.506067
     5  H    0.252620
     6  H    0.253447
 Sum of Mulliken charges =  -0.00000

 Dipole moment (field-independent basis, Debye):
    X=             -0.5083    Y=             -0.0676    Z=              0.0000  Tot=              0.5128
 Quadrupole moment (field-independent basis, Debye-Ang):
   XX=             -7.9390   YY=             14.2819   ZZ=            -14.7109
   XY=             -1.2453   XZ=              0.0000   YZ=              0.0000

 Normal termination of Gaussian 16 at Sat Aug 27 09:09:25 2022.
