 Gaussian 16, Revision A.03,
 Gaussian 16:  ES64L-G16RevA.03 25-Dec-2016

 ------------------
 #p CCSD(T)/cc-pVTZ
 ------------------

 ------------
 H2O_H2O_3975
 ------------
 Symbolic Z-matrix:
 Charge =  0 Multiplicity = 1

                         Standard orientation:
 ---------------------------------------------------------------------
 Center     Atomic      Atomic             Coordinates (Angstroms)
 Number     Number       Type             X           Y           Z
 ---------------------------------------------------------------------
      1          8           0        0.000000   -0.000000    2.917649
      2          1           0        0.000000    0.799571    3.488781
      3          1           0       -0.000000   -0.799571    3.488781
      4          8           0        0.000000   -0.000000   -2.917649
      5          1           0       -0.000000   -0.799571   -3.488781
      6          1           0        0.000000    0.799571   -3.488781
 ---------------------------------------------------------------------

 SCF Done:  E(RHF) =  -152.106634618     A.U. after   10 cycles
 E2 =    -0.5259533685D+00 EUMP2 =    -0.15263258798608D+03
 CCSD(T)
 CCSD(T)= -0.15265982418D+03

 The electronic state is 1-AG.
 Alpha  occ. eigenvalues --  -20.55108 -20.55108  -1.32403  -1.32403  -0.69811
 Alpha  occ. eigenvalues --   -0.69811  -0.55815  -0.55814  -0.49509  -0.49509
 Alpha virt. eigenvalues --    0.14466   0.14543   0.20525   0.20555   0.54748
 Alpha virt. eigenvalues --    0.54771   0.57603   0.57618   0.68314   0.68559
 Alpha virt. eigenvalues --    0.79368   0.79370   0.80811   0.80821   0.82741

 Mulliken charges:
               1
     1  O   -0.504305
     2  H    0.252153
     3  H    0.252153
     4  O   -0.504305
     5  H    0.252153
     6  H    0.252153
 Sum of Mulliken charges =  -0.00000

 Dipole moment (field-independent basis, Debye):
    X=             -0.0000    Y=              0.0000    Z=              0.0000  Tot=              0.0000
 Quadrupole moment (field-independent basis, Debye-Ang):
   XX=            -14.7104   YY=             -7.8061   ZZ=             11.3028
   XY=              0.0000   XZ=              0.0000   YZ=             -0.0000

 \MP4DQ=-152.6417128\MP4SDQ=-152.6447746\CCSD=-152.6441856\CCSD(T)=-152
 Normal termination of Gaussian 16 at Sat Aug 27 04:40:45 2022.
