 Gaussian 16, Revision A.03,
 Gaussian 16:  ES64L-G16RevA.03 25-Dec-2016

 ------------------
 #p CCSD(T)/cc-pVTZ
 ------------------

 ------------
 H2O_H2O_2706
 ------------
 Symbolic Z-matrix:
 Charge =  0 Multiplicity = 1

                         Standard orientation:
 ---------------------------------------------------------------------
 Center     Atomic      Atomic             Coordinates (Angstroms)
 Number     Number       Type             X           Y           Z
 ---------------------------------------------------------------------
      1          8           0        0.021860   -2.234855    0.000000
      2          1           0       -0.778191   -2.805315    0.000000
      3          1           0        0.820951   -2.806658    0.000000
      4          8           0        0.021860    2.243513    0.000000
      5          1           0        0.542705    3.076716    0.000000
      6          1           0       -0.935224    2.465991    0.000000
 ---------------------------------------------------------------------

 SCF Done:  E(RHF) =  -152.105873382     A.U. after   10 cycles
 E2 =    -0.5261027825D+00 EUMP2 =    -0.15263197616436D+03
 CCSD(T)
 CCSD(T)= -0.15265922166D+03

 The electronic state is 1-A'.
 Alpha  occ. eigenvalues --  -20.54849 -20.54748  -1.32139  -1.32036  -0.69551
 Alpha  occ. eigenvalues --   -0.69445  -0.55532  -0.55381  -0.49240  -0.49138
 Alpha virt. eigenvalues --    0.14254   0.15214   0.20568   0.20930   0.54659
 Alpha virt. eigenvalues --    0.55389   0.57770   0.57947   0.65553   0.72053
 Alpha virt. eigenvalues --    0.79568   0.79799   0.81048   0.81198   0.82330

 Mulliken charges:
               1
     1  O   -0.499669
     2  H    0.248557
     3  H    0.251141
     4  O   -0.499432
     5  H    0.248054
     6  H    0.251349
 Sum of Mulliken charges =  -0.00000

 Dipole moment (field-independent basis, Debye):
    X=             -0.7437    Y=             -0.1542    Z=              0.0000  Tot=              0.7595
 Quadrupole moment (field-independent basis, Debye-Ang):
   XX=             -8.1204   YY=              5.4295   ZZ=            -14.7099
   XY=             -1.0666   XZ=              0.0000   YZ=              0.0000

 Normal termination of Gaussian 16 at Fri Aug 26 15:17:19 2022.
