 Gaussian 16, Revision A.03,
 Gaussian 16:  ES64L-G16RevA.03 25-Dec-2016

 ------------------
 #p CCSD(T)/cc-pVTZ
 ------------------

 ------------
 H2O_H2O_4073
 ------------
 Symbolic Z-matrix:
 Charge =  0 Multiplicity = 1

                         Standard orientation:
 ---------------------------------------------------------------------
 Center     Atomic      Atomic             Coordinates (Angstroms)
 Number     Number       Type             X           Y           Z
 ---------------------------------------------------------------------
      1          8           0        0.057080   -2.899662    0.000000
      2          1           0       -0.743439   -3.469465    0.000000
      3          1           0        0.855701   -3.472122    0.000000
      4          8           0        0.057080    3.006228    0.000000
      5          1           0       -0.459147    3.842301    0.000000
      6          1           0       -0.566387    2.246758    0.000000
 ---------------------------------------------------------------------

 SCF Done:  E(RHF) =  -152.107709021     A.U. after   10 cycles
 E2 =    -0.5258624802D+00 EUMP2 =    -0.15263357150080D+03
 CCSD(T)
 CCSD(T)= -0.15266078443D+03

 The electronic state is 1-A'.
 Alpha  occ. eigenvalues --  -20.55768 -20.55058  -1.33068  -1.32358  -0.70474
 Alpha  occ. eigenvalues --   -0.69754  -0.56530  -0.55812  -0.50182  -0.49474
 Alpha virt. eigenvalues --    0.13863   0.14685   0.20018   0.20800   0.54080
 Alpha virt. eigenvalues --    0.54808   0.57028   0.57726   0.67498   0.68510
 Alpha virt. eigenvalues --    0.78700   0.79394   0.80121   0.80740   0.82262

 Mulliken charges:
               1
     1  O   -0.510677
     2  H    0.253906
     3  H    0.256787
     4  O   -0.510183
     5  H    0.251961
     6  H    0.258206
 Sum of Mulliken charges =  -0.00000

 Dipole moment (field-independent basis, Debye):
    X=             -1.9600    Y=             -1.8683    Z=              0.0000  Tot=              2.7078
 Quadrupole moment (field-independent basis, Debye-Ang):
   XX=             -9.8546   YY=              2.4715   ZZ=            -14.7129
   XY=             -5.9214   XZ=              0.0000   YZ=              0.0000

 Normal termination of Gaussian 16 at Sat Aug 27 05:14:02 2022.
