 Gaussian 16, Revision A.03,
 Gaussian 16:  ES64L-G16RevA.03 25-Dec-2016

 ------------------
 #p CCSD(T)/cc-pVTZ
 ------------------

 ------------
 H2O_H2O_3181
 ------------
 Symbolic Z-matrix:
 Charge =  0 Multiplicity = 1

                         Standard orientation:
 ---------------------------------------------------------------------
 Center     Atomic      Atomic             Coordinates (Angstroms)
 Number     Number       Type             X           Y           Z
 ---------------------------------------------------------------------
      1          8           0        0.021860   -2.487475    0.000000
      2          1           0       -0.778142   -3.058003    0.000000
      3          1           0        0.820999   -3.059210    0.000000
      4          8           0        0.021860    2.496137    0.000000
      5          1           0        0.542634    3.329384    0.000000
      6          1           0       -0.935243    2.718534    0.000000
 ---------------------------------------------------------------------

 SCF Done:  E(RHF) =  -152.106274619     A.U. after   10 cycles
 E2 =    -0.5260149256D+00 EUMP2 =    -0.15263228954476D+03
 CCSD(T)
 CCSD(T)= -0.15265953145D+03

 The electronic state is 1-A'.
 Alpha  occ. eigenvalues --  -20.54990 -20.54910  -1.32284  -1.32202  -0.69694
 Alpha  occ. eigenvalues --   -0.69609  -0.55678  -0.55593  -0.49387  -0.49306
 Alpha virt. eigenvalues --    0.14387   0.14868   0.20551   0.20750   0.54788
 Alpha virt. eigenvalues --    0.55044   0.57684   0.57796   0.67453   0.69848
 Alpha virt. eigenvalues --    0.79484   0.79574   0.80912   0.81067   0.82710

 Mulliken charges:
               1
     1  O   -0.502208
     2  H    0.250140
     3  H    0.252072
     4  O   -0.502052
     5  H    0.249735
     6  H    0.252312
 Sum of Mulliken charges =  -0.00000

 Dipole moment (field-independent basis, Debye):
    X=             -0.7469    Y=             -0.1528    Z=              0.0000  Tot=              0.7624
 Quadrupole moment (field-independent basis, Debye-Ang):
   XX=             -8.1131   YY=              7.4038   ZZ=            -14.7101
   XY=             -1.2523   XZ=              0.0000   YZ=              0.0000

 Normal termination of Gaussian 16 at Fri Aug 26 20:10:12 2022.
