 Gaussian 16, Revision A.03,
 Gaussian 16:  ES64L-G16RevA.03 25-Dec-2016

 ------------------
 #p CCSD(T)/cc-pVTZ
 ------------------

 ------------
 H2O_H2O_1367
 ------------
 Symbolic Z-matrix:
 Charge =  0 Multiplicity = 1

                         Standard orientation:
 ---------------------------------------------------------------------
 Center     Atomic      Atomic             Coordinates (Angstroms)
 Number     Number       Type             X           Y           Z
 ---------------------------------------------------------------------
      1          8           0        0.051316   -1.487139    0.000000
      2          1           0       -0.749910   -2.055947    0.000000
      3          1           0        0.849225   -2.060589    0.000000
      4          8           0        0.051316    1.550546    0.000000
      5          1           0       -0.104460    2.520722    0.000000
      6          1           0       -0.815903    1.088553    0.000000
 ---------------------------------------------------------------------

 SCF Done:  E(RHF) =  -152.105933710     A.U. after   10 cycles
 E2 =    -0.5273002194D+00 EUMP2 =    -0.15263323392941D+03
 CCSD(T)
 CCSD(T)= -0.15266040581D+03

 The electronic state is 1-A'.
 Alpha  occ. eigenvalues --  -20.55399 -20.53618  -1.32710  -1.30877  -0.70132
 Alpha  occ. eigenvalues --   -0.68304  -0.56146  -0.54106  -0.49828  -0.47982
 Alpha virt. eigenvalues --    0.13579   0.16911   0.19983   0.23354   0.54033
 Alpha virt. eigenvalues --    0.55967   0.57334   0.58301   0.67236   0.75741
 Alpha virt. eigenvalues --    0.76764   0.76881   0.79860   0.82129   0.84924

 Mulliken charges:
               1
     1  O   -0.484932
     2  H    0.238311
     3  H    0.252787
     4  O   -0.492232
     5  H    0.231937
     6  H    0.254128
 Sum of Mulliken charges =  -0.00000

 Dipole moment (field-independent basis, Debye):
    X=             -1.6752    Y=             -1.2204    Z=              0.0000  Tot=              2.0726
 Quadrupole moment (field-independent basis, Debye-Ang):
   XX=             -9.4869   YY=             -1.9306   ZZ=            -14.7195
   XY=             -2.1554   XZ=              0.0000   YZ=              0.0000

 Normal termination of Gaussian 16 at Sat Aug 27 04:16:52 2022.
