 Gaussian 16, Revision A.03,
 Gaussian 16:  ES64L-G16RevA.03 25-Dec-2016

 ------------------
 #p CCSD(T)/cc-pVTZ
 ------------------

 ------------
 H2O_H2O_3914
 ------------
 Symbolic Z-matrix:
 Charge =  0 Multiplicity = 1

                         Standard orientation:
 ---------------------------------------------------------------------
 Center     Atomic      Atomic             Coordinates (Angstroms)
 Number     Number       Type             X           Y           Z
 ---------------------------------------------------------------------
      1          8           0        0.045341   -2.853557    0.000000
      2          1           0       -0.755004   -3.423604    0.000000
      3          1           0        0.844137   -3.425773    0.000000
      4          8           0        0.045341    2.898124    0.000000
      5          1           0        0.080312    3.880102    0.000000
      6          1           0       -0.894905    2.612739    0.000000
 ---------------------------------------------------------------------

 SCF Done:  E(RHF) =  -152.107061107     A.U. after   10 cycles
 E2 =    -0.5259207422D+00 EUMP2 =    -0.15263298184969D+03
 CCSD(T)
 CCSD(T)= -0.15266020864D+03

 The electronic state is 1-A'.
 Alpha  occ. eigenvalues --  -20.55382 -20.55068  -1.32680  -1.32364  -0.70087
 Alpha  occ. eigenvalues --   -0.69764  -0.56111  -0.55795  -0.49789  -0.49474
 Alpha virt. eigenvalues --    0.14221   0.14615   0.20312   0.20666   0.54473
 Alpha virt. eigenvalues --    0.54818   0.57366   0.57682   0.67985   0.68553
 Alpha virt. eigenvalues --    0.79091   0.79400   0.80527   0.80858   0.82481

 Mulliken charges:
               1
     1  O   -0.506854
     2  H    0.252090
     3  H    0.254766
     4  O   -0.506578
     5  H    0.251120
     6  H    0.255455
 Sum of Mulliken charges =  -0.00000

 Dipole moment (field-independent basis, Debye):
    X=             -1.5556    Y=             -0.7812    Z=              0.0000  Tot=              1.7408
 Quadrupole moment (field-independent basis, Debye-Ang):
   XX=             -9.0973   YY=              7.7151   ZZ=            -14.7114
   XY=             -3.7001   XZ=              0.0000   YZ=              0.0000

 Normal termination of Gaussian 16 at Sat Aug 27 04:16:02 2022.
