 Gaussian 16, Revision A.03,
 Gaussian 16:  ES64L-G16RevA.03 25-Dec-2016

 ------------------
 #p CCSD(T)/cc-pVTZ
 ------------------

 -----------
 H2O_H2O_957
 -----------
 Symbolic Z-matrix:
 Charge =  0 Multiplicity = 1

                         Standard orientation:
 ---------------------------------------------------------------------
 Center     Atomic      Atomic             Coordinates (Angstroms)
 Number     Number       Type             X           Y           Z
 ---------------------------------------------------------------------
      1          8           0        0.025270   -1.302490    0.000000
      2          1           0       -0.775249   -1.872293    0.000000
      3          1           0        0.823891   -1.874950    0.000000
      4          8           0        0.025270    1.314186    0.000000
      5          1           0        0.491217    2.179287    0.000000
      6          1           0       -0.944184    1.474389    0.000000
 ---------------------------------------------------------------------

 SCF Done:  E(RHF) =  -152.096783675     A.U. after   11 cycles
 E2 =    -0.5286041891D+00 EUMP2 =    -0.15262538786437D+03
 CCSD(T)
 CCSD(T)= -0.15265267628D+03

 The electronic state is 1-A'.
 Alpha  occ. eigenvalues --  -20.53615 -20.53278  -1.31243  -1.30466  -0.68599
 Alpha  occ. eigenvalues --   -0.67996  -0.56470  -0.51315  -0.48500  -0.47316
 Alpha virt. eigenvalues --    0.14347   0.17225   0.20489   0.22439   0.51704
 Alpha virt. eigenvalues --    0.58522   0.58764   0.61502   0.70859   0.76624
 Alpha virt. eigenvalues --    0.76724   0.78644   0.82795   0.83633   0.86180

 Mulliken charges:
               1
     1  O   -0.467765
     2  H    0.228148
     3  H    0.238810
     4  O   -0.458111
     5  H    0.222379
     6  H    0.236539
 Sum of Mulliken charges =   0.00000

 Dipole moment (field-independent basis, Debye):
    X=             -0.8010    Y=             -0.2251    Z=              0.0000  Tot=              0.8320
 Quadrupole moment (field-independent basis, Debye-Ang):
   XX=             -8.3403   YY=             -2.3704   ZZ=            -14.7199
   XY=             -0.4871   XZ=              0.0000   YZ=              0.0000

 Normal termination of Gaussian 16 at Fri Aug 26 21:30:41 2022.
