 Gaussian 16, Revision A.03,
 Gaussian 16:  ES64L-G16RevA.03 25-Dec-2016

 ------------------
 #p CCSD(T)/cc-pVTZ
 ------------------

 ------------
 H2O_H2O_2291
 ------------
 Symbolic Z-matrix:
 Charge =  0 Multiplicity = 1

                         Standard orientation:
 ---------------------------------------------------------------------
 Center     Atomic      Atomic             Coordinates (Angstroms)
 Number     Number       Type             X           Y           Z
 ---------------------------------------------------------------------
      1          8           0        0.049522   -1.982621    0.000000
      2          1           0       -0.751257   -2.552059    0.000000
      3          1           0        0.847882   -2.555445    0.000000
      4          8           0        0.049522    2.039525    0.000000
      5          1           0       -0.043236    3.017738    0.000000
      6          1           0       -0.845738    1.634536    0.000000
 ---------------------------------------------------------------------

 SCF Done:  E(RHF) =  -152.106886183     A.U. after   10 cycles
 E2 =    -0.5262007647D+00 EUMP2 =    -0.15263308694802D+03
 CCSD(T)
 CCSD(T)= -0.15266029148D+03

 The electronic state is 1-A'.
 Alpha  occ. eigenvalues --  -20.55358 -20.54463  -1.32640  -1.31745  -0.70053
 Alpha  occ. eigenvalues --   -0.69127  -0.56048  -0.55150  -0.49749  -0.48860
 Alpha virt. eigenvalues --    0.13508   0.15819   0.20164   0.21780   0.53785
 Alpha virt. eigenvalues --    0.54800   0.57413   0.58292   0.65027   0.74780
 Alpha virt. eigenvalues --    0.78996   0.79635   0.80128   0.81648   0.83842

 Mulliken charges:
               1
     1  O   -0.501717
     2  H    0.247658
     3  H    0.255250
     4  O   -0.503481
     5  H    0.245136
     6  H    0.257154
 Sum of Mulliken charges =  -0.00000

 Dipole moment (field-independent basis, Debye):
    X=             -1.6735    Y=             -1.0355    Z=              0.0000  Tot=              1.9680
 Quadrupole moment (field-independent basis, Debye-Ang):
   XX=             -9.3516   YY=              1.4553   ZZ=            -14.7131
   XY=             -2.7868   XZ=              0.0000   YZ=              0.0000

 Normal termination of Gaussian 16 at Sat Aug 27 09:41:19 2022.
