 Gaussian 16, Revision A.03,
 Gaussian 16:  ES64L-G16RevA.03 25-Dec-2016

 ------------------
 #p CCSD(T)/cc-pVTZ
 ------------------

 ------------
 H2O_H2O_2348
 ------------
 Symbolic Z-matrix:
 Charge =  0 Multiplicity = 1

                         Standard orientation:
 ---------------------------------------------------------------------
 Center     Atomic      Atomic             Coordinates (Angstroms)
 Number     Number       Type             X           Y           Z
 ---------------------------------------------------------------------
      1          8           0        0.057119   -1.982289    0.000000
      2          1           0       -0.743826   -2.551492    0.000000
      3          1           0        0.855312   -2.555347    0.000000
      4          8           0        0.057119    2.088770    0.000000
      5          1           0       -0.458481    2.925228    0.000000
      6          1           0       -0.566916    1.329766    0.000000
 ---------------------------------------------------------------------

 SCF Done:  E(RHF) =  -152.108664250     A.U. after   10 cycles
 E2 =    -0.5261315011D+00 EUMP2 =    -0.15263479575136D+03
 CCSD(T)
 CCSD(T)= -0.15266195551D+03

 The electronic state is 1-A'.
 Alpha  occ. eigenvalues --  -20.56071 -20.54348  -1.33345  -1.31649  -0.70750
 Alpha  occ. eigenvalues --   -0.69019  -0.56824  -0.55117  -0.50466  -0.48776
 Alpha virt. eigenvalues --    0.12969   0.15998   0.19815   0.22773   0.53867
 Alpha virt. eigenvalues --    0.54948   0.56842   0.58552   0.66493   0.72958
 Alpha virt. eigenvalues --    0.78348   0.79308   0.80118   0.81002   0.82448

 Mulliken charges:
               1
     1  O   -0.506568
     2  H    0.251072
     3  H    0.258689
     4  O   -0.513272
     5  H    0.247073
     6  H    0.263006
 Sum of Mulliken charges =   0.00000

 Dipole moment (field-independent basis, Debye):
    X=             -1.9336    Y=             -1.9506    Z=              0.0000  Tot=              2.7466
 Quadrupole moment (field-independent basis, Debye-Ang):
   XX=             -9.8518   YY=             -1.4371   ZZ=            -14.7173
   XY=             -4.1493   XZ=              0.0000   YZ=              0.0000

 Normal termination of Gaussian 16 at Sat Aug 27 10:03:48 2022.
