 Gaussian 16, Revision A.03,
 Gaussian 16:  ES64L-G16RevA.03 25-Dec-2016

 ------------------
 #p CCSD(T)/cc-pVTZ
 ------------------

 ------------
 H2O_H2O_2544
 ------------
 Symbolic Z-matrix:
 Charge =  0 Multiplicity = 1

                         Standard orientation:
 ---------------------------------------------------------------------
 Center     Atomic      Atomic             Coordinates (Angstroms)
 Number     Number       Type             X           Y           Z
 ---------------------------------------------------------------------
      1          8           0        0.054166   -2.104517    0.000000
      2          1           0       -0.746643   -2.673911    0.000000
      3          1           0        0.852495   -2.677385    0.000000
      4          8           0        0.054166    2.181792    0.000000
      5          1           0       -0.227599    3.123129    0.000000
      6          1           0       -0.744914    1.609972    0.000000
 ---------------------------------------------------------------------

 SCF Done:  E(RHF) =  -152.107539185     A.U. after   10 cycles
 E2 =    -0.5260740089D+00 EUMP2 =    -0.15263361319416D+03
 CCSD(T)
 CCSD(T)= -0.15266080964D+03

 The electronic state is 1-A'.
 Alpha  occ. eigenvalues --  -20.55630 -20.54555  -1.32915  -1.31846  -0.70324
 Alpha  occ. eigenvalues --   -0.69226  -0.56353  -0.55286  -0.50028  -0.48965
 Alpha virt. eigenvalues --    0.13344   0.15654   0.20044   0.21773   0.54045
 Alpha virt. eigenvalues --    0.54691   0.57196   0.58203   0.66026   0.73017
 Alpha virt. eigenvalues --    0.78833   0.79688   0.79919   0.81871   0.82403

 Mulliken charges:
               1
     1  O   -0.506041
     2  H    0.250149
     3  H    0.257079
     4  O   -0.507957
     5  H    0.247236
     6  H    0.259533
 Sum of Mulliken charges =  -0.00000

 Dipole moment (field-independent basis, Debye):
    X=             -1.8388    Y=             -1.3963    Z=              0.0000  Tot=              2.3089
 Quadrupole moment (field-independent basis, Debye-Ang):
   XX=             -9.6485   YY=              1.0284   ZZ=            -14.7140
   XY=             -3.6350   XZ=              0.0000   YZ=              0.0000

 Normal termination of Gaussian 16 at Fri Aug 26 13:34:18 2022.
