 Gaussian 16, Revision A.03,
 Gaussian 16:  ES64L-G16RevA.03 25-Dec-2016

 ------------------
 #p CCSD(T)/cc-pVTZ
 ------------------

 -----------
 H2O_H2O_575
 -----------
 Symbolic Z-matrix:
 Charge =  0 Multiplicity = 1

                         Standard orientation:
 ---------------------------------------------------------------------
 Center     Atomic      Atomic             Coordinates (Angstroms)
 Number     Number       Type             X           Y           Z
 ---------------------------------------------------------------------
      1          8           0        0.000000   -0.000000    1.109405
      2          1           0        0.000000    0.799571    1.680537
      3          1           0       -0.000000   -0.799571    1.680537
      4          8           0        0.000000   -0.000000   -1.109405
      5          1           0       -0.000000   -0.799571   -1.680537
      6          1           0        0.000000    0.799571   -1.680537
 ---------------------------------------------------------------------

 SCF Done:  E(RHF) =  -152.076304795     A.U. after   10 cycles
 E2 =    -0.5316731608D+00 EUMP2 =    -0.15260797795569D+03
 CCSD(T)
 CCSD(T)= -0.15263513340D+03

 The electronic state is 1-AG.
 Alpha  occ. eigenvalues --  -20.52387 -20.52386  -1.31210  -1.29311  -0.68227
 Alpha  occ. eigenvalues --   -0.67030  -0.58843  -0.48525  -0.46979  -0.45891
 Alpha virt. eigenvalues --    0.14599   0.18025   0.20565   0.22593   0.50128
 Alpha virt. eigenvalues --    0.59057   0.59127   0.65056   0.71787   0.77105
 Alpha virt. eigenvalues --    0.78222   0.81350   0.84378   0.86673   0.86919

 Mulliken charges:
               1
     1  O   -0.446799
     2  H    0.223399
     3  H    0.223399
     4  O   -0.446799
     5  H    0.223399
     6  H    0.223399
 Sum of Mulliken charges =  -0.00000

 Dipole moment (field-independent basis, Debye):
    X=             -0.0000    Y=              0.0000    Z=             -0.0000  Tot=              0.0000
 Quadrupole moment (field-independent basis, Debye-Ang):
   XX=            -14.7415   YY=             -8.0638   ZZ=             -4.3882
   XY=              0.0000   XZ=             -0.0000   YZ=             -0.0000

 MP4DQ=-152.6160298\MP4SDQ=-152.6193957\CCSD=-152.6186949\CCSD(T)=-152.
 Normal termination of Gaussian 16 at Fri Aug 26 17:47:17 2022.
