 Gaussian 16, Revision A.03,
 Gaussian 16:  ES64L-G16RevA.03 25-Dec-2016

 ------------------
 #p CCSD(T)/cc-pVTZ
 ------------------

 ------------
 H2O_H2O_3297
 ------------
 Symbolic Z-matrix:
 Charge =  0 Multiplicity = 1

                         Standard orientation:
 ---------------------------------------------------------------------
 Center     Atomic      Atomic             Coordinates (Angstroms)
 Number     Number       Type             X           Y           Z
 ---------------------------------------------------------------------
      1          8           0        0.056720   -2.491543    0.000000
      2          1           0       -0.743945   -3.061140    0.000000
      3          1           0        0.855194   -3.064208    0.000000
      4          8           0        0.056720    2.590642    0.000000
      5          1           0       -0.403497    3.458806    0.000000
      6          1           0       -0.615268    1.873747    0.000000
 ---------------------------------------------------------------------

 SCF Done:  E(RHF) =  -152.107800587     A.U. after   10 cycles
 E2 =    -0.5259064288D+00 EUMP2 =    -0.15263370701571D+03
 CCSD(T)
 CCSD(T)= -0.15266091228D+03

 The electronic state is 1-A'.
 Alpha  occ. eigenvalues --  -20.55778 -20.54847  -1.33074  -1.32146  -0.70480
 Alpha  occ. eigenvalues --   -0.69536  -0.56537  -0.55600  -0.50188  -0.49264
 Alpha virt. eigenvalues --    0.13562   0.15083   0.19996   0.21156   0.54035
 Alpha virt. eigenvalues --    0.54902   0.57037   0.57851   0.66947   0.69551
 Alpha virt. eigenvalues --    0.78699   0.79596   0.79939   0.80412   0.82776

 Mulliken charges:
               1
     1  O   -0.510603
     2  H    0.253185
     3  H    0.257679
     4  O   -0.510236
     5  H    0.250397
     6  H    0.259577
 Sum of Mulliken charges =  -0.00000

 Dipole moment (field-independent basis, Debye):
    X=             -1.9408    Y=             -1.7559    Z=              0.0000  Tot=              2.6172
 Quadrupole moment (field-independent basis, Debye-Ang):
   XX=             -9.8265   YY=              1.3627   ZZ=            -14.7135
   XY=             -4.9560   XZ=              0.0000   YZ=              0.0000

 Normal termination of Gaussian 16 at Fri Aug 26 21:09:15 2022.
