 Gaussian 16, Revision A.03,
 Gaussian 16:  ES64L-G16RevA.03 25-Dec-2016

 ------------------
 #p CCSD(T)/cc-pVTZ
 ------------------

 ------------
 H2O_H2O_3124
 ------------
 Symbolic Z-matrix:
 Charge =  0 Multiplicity = 1

                         Standard orientation:
 ---------------------------------------------------------------------
 Center     Atomic      Atomic             Coordinates (Angstroms)
 Number     Number       Type             X           Y           Z
 ---------------------------------------------------------------------
      1          8           0        0.057228   -2.390382    0.000000
      2          1           0       -0.743489   -2.959906    0.000000
      3          1           0        0.855650   -2.963119    0.000000
      4          8           0        0.057228    2.504378    0.000000
      5          1           0       -0.512297    3.305095    0.000000
      6          1           0       -0.515509    1.705956    0.000000
 ---------------------------------------------------------------------

 SCF Done:  E(RHF) =  -152.108159591     A.U. after   10 cycles
 E2 =    -0.5259126556D+00 EUMP2 =    -0.15263407224622D+03
 CCSD(T)
 CCSD(T)= -0.15266126518D+03

 The electronic state is 1-A'.
 Alpha  occ. eigenvalues --  -20.55933 -20.54760  -1.33227  -1.32062  -0.70632
 Alpha  occ. eigenvalues --   -0.69448  -0.56703  -0.55524  -0.50343  -0.49183
 Alpha virt. eigenvalues --    0.13295   0.15269   0.19897   0.21414   0.53897
 Alpha virt. eigenvalues --    0.54876   0.56921   0.57933   0.66726   0.69917
 Alpha virt. eigenvalues --    0.78550   0.79613   0.79671   0.80183   0.82819

 Mulliken charges:
               1
     1  O   -0.511637
     2  H    0.253719
     3  H    0.258530
     4  O   -0.511796
     5  H    0.250291
     6  H    0.260893
 Sum of Mulliken charges =  -0.00000

 Dipole moment (field-independent basis, Debye):
    X=             -1.9558    Y=             -2.0298    Z=              0.0000  Tot=              2.8188
 Quadrupole moment (field-independent basis, Debye-Ang):
   XX=             -9.8624   YY=             -0.3179   ZZ=            -14.7147
   XY=             -5.0850   XZ=              0.0000   YZ=              0.0000

 Normal termination of Gaussian 16 at Fri Aug 26 19:37:53 2022.
