 Gaussian 16, Revision A.03,
 Gaussian 16:  ES64L-G16RevA.03 25-Dec-2016

 ------------------
 #p CCSD(T)/cc-pVTZ
 ------------------

 ----------
 H2O_H2O_10
 ----------
 Symbolic Z-matrix:
 Charge =  0 Multiplicity = 1

                         Standard orientation:
 ---------------------------------------------------------------------
 Center     Atomic      Atomic             Coordinates (Angstroms)
 Number     Number       Type             X           Y           Z
 ---------------------------------------------------------------------
      1          8           0        0.034812   -0.790916    0.000000
      2          1           0       -0.766883   -1.359062    0.000000
      3          1           0        0.832248   -1.365026    0.000000
      4          8           0        0.034812    0.814261    0.000000
      5          1           0        0.324975    1.753043    0.000000
      6          1           0       -0.947333    0.784285    0.000000
 ---------------------------------------------------------------------

 SCF Done:  E(RHF) =  -151.915444508     A.U. after   12 cycles
 E2 =    -0.5520740565D+00 EUMP2 =    -0.15246751856478D+03
 CCSD(T)
 CCSD(T)= -0.15249183103D+03

 The electronic state is 1-A'.
 Alpha  occ. eigenvalues --  -20.52422 -20.51668  -1.38478  -1.26637  -0.73735
 Alpha  occ. eigenvalues --   -0.70120  -0.61720  -0.53983  -0.43185  -0.34027
 Alpha virt. eigenvalues --    0.14018   0.19130   0.19938   0.23558   0.53720
 Alpha virt. eigenvalues --    0.55220   0.58673   0.65695   0.72486   0.77897
 Alpha virt. eigenvalues --    0.79783   0.82538   0.82547   0.84194   0.89118

 Mulliken charges:
               1
     1  O   -0.327324
     2  H    0.151959
     3  H    0.180696
     4  O   -0.318448
     5  H    0.087397
     6  H    0.225721
 Sum of Mulliken charges =  -0.00000

 Dipole moment (field-independent basis, Debye):
    X=             -0.9458    Y=             -0.6105    Z=              0.0000  Tot=              1.1257
 Quadrupole moment (field-independent basis, Debye-Ang):
   XX=             -9.0247   YY=             -9.4183   ZZ=            -14.6924
   XY=             -0.5115   XZ=              0.0000   YZ=              0.0000

 9143\MP4DQ=-152.4701954\MP4SDQ=-152.4745671\CCSD=-152.4731528\CCSD(T)=
 Normal termination of Gaussian 16 at Fri Aug 26 11:51:39 2022.
