 Gaussian 16, Revision A.03,
 Gaussian 16:  ES64L-G16RevA.03 25-Dec-2016

 ------------------
 #p CCSD(T)/cc-pVTZ
 ------------------

 ------------
 H2O_H2O_1385
 ------------
 Symbolic Z-matrix:
 Charge =  0 Multiplicity = 1

                         Standard orientation:
 ---------------------------------------------------------------------
 Center     Atomic      Atomic             Coordinates (Angstroms)
 Number     Number       Type             X           Y           Z
 ---------------------------------------------------------------------
      1          8           0        0.034791   -1.522127    0.000000
      2          1           0       -0.765893   -2.091697    0.000000
      3          1           0        0.833246   -2.094818    0.000000
      4          8           0        0.034791    1.545595    0.000000
      5          1           0        0.323285    2.484892    0.000000
      6          1           0       -0.947299    1.513873    0.000000
 ---------------------------------------------------------------------

 SCF Done:  E(RHF) =  -152.103326178     A.U. after   10 cycles
 E2 =    -0.5272511917D+00 EUMP2 =    -0.15263057736921D+03
 CCSD(T)
 CCSD(T)= -0.15265782541D+03

 The electronic state is 1-A'.
 Alpha  occ. eigenvalues --  -20.54431 -20.53851  -1.31747  -1.31106  -0.69172
 Alpha  occ. eigenvalues --   -0.68524  -0.55679  -0.53628  -0.48885  -0.48154
 Alpha virt. eigenvalues --    0.14069   0.16658   0.20385   0.22192   0.52976
 Alpha virt. eigenvalues --    0.57598   0.58065   0.58844   0.65742   0.76641
 Alpha virt. eigenvalues --    0.77671   0.78326   0.79500   0.82382   0.85681

 Mulliken charges:
               1
     1  O   -0.479767
     2  H    0.235264
     3  H    0.245666
     4  O   -0.477065
     5  H    0.231333
     6  H    0.244569
 Sum of Mulliken charges =  -0.00000

 Dipole moment (field-independent basis, Debye):
    X=             -1.1392    Y=             -0.4443    Z=              0.0000  Tot=              1.2228
 Quadrupole moment (field-independent basis, Debye-Ang):
   XX=             -8.6292   YY=             -0.6168   ZZ=            -14.7128
   XY=             -1.0437   XZ=              0.0000   YZ=              0.0000

 Normal termination of Gaussian 16 at Sat Aug 27 04:25:10 2022.
