 Gaussian 16, Revision A.03,
 Gaussian 16:  ES64L-G16RevA.03 25-Dec-2016

 ------------------
 #p CCSD(T)/cc-pVTZ
 ------------------

 ------------
 H2O_H2O_1196
 ------------
 Symbolic Z-matrix:
 Charge =  0 Multiplicity = 1

                         Standard orientation:
 ---------------------------------------------------------------------
 Center     Atomic      Atomic             Coordinates (Angstroms)
 Number     Number       Type             X           Y           Z
 ---------------------------------------------------------------------
      1          8           0        0.056171   -1.378777    0.000000
      2          1           0       -0.745329   -1.947199    0.000000
      3          1           0        0.853804   -1.952612    0.000000
      4          8           0        0.056171    1.470339    0.000000
      5          1           0       -0.344964    2.367332    0.000000
      6          1           0       -0.662249    0.799981    0.000000
 ---------------------------------------------------------------------

 SCF Done:  E(RHF) =  -152.107096109     A.U. after   10 cycles
 E2 =    -0.5279609264D+00 EUMP2 =    -0.15263505703545D+03
 CCSD(T)
 CCSD(T)= -0.15266214367D+03

 The electronic state is 1-A'.
 Alpha  occ. eigenvalues --  -20.56215 -20.53040  -1.33604  -1.30355  -0.71003
 Alpha  occ. eigenvalues --   -0.68030  -0.56748  -0.53830  -0.50709  -0.47468
 Alpha virt. eigenvalues --    0.13196   0.17444   0.19668   0.24980   0.52328
 Alpha virt. eigenvalues --    0.56559   0.57116   0.59178   0.69763   0.74895
 Alpha virt. eigenvalues --    0.74956   0.78857   0.82220   0.82321   0.84258

 Mulliken charges:
               1
     1  O   -0.484806
     2  H    0.240753
     3  H    0.257435
     4  O   -0.505914
     5  H    0.230852
     6  H    0.261679
 Sum of Mulliken charges =  -0.00000

 Dipole moment (field-independent basis, Debye):
    X=             -1.8142    Y=             -1.8255    Z=              0.0000  Tot=              2.5736
 Quadrupole moment (field-independent basis, Debye-Ang):
   XX=             -9.7942   YY=             -3.6140   ZZ=            -14.7259
   XY=             -2.6868   XZ=              0.0000   YZ=              0.0000

 Normal termination of Gaussian 16 at Sat Aug 27 02:53:59 2022.
