 Gaussian 16, Revision A.03,
 Gaussian 16:  ES64L-G16RevA.03 25-Dec-2016

 ------------------
 #p CCSD(T)/cc-pVTZ
 ------------------

 ------------
 H2O_H2O_1206
 ------------
 Symbolic Z-matrix:
 Charge =  0 Multiplicity = 1

                         Standard orientation:
 ---------------------------------------------------------------------
 Center     Atomic      Atomic             Coordinates (Angstroms)
 Number     Number       Type             X           Y           Z
 ---------------------------------------------------------------------
      1          8           0        0.021862   -1.437111    0.000000
      2          1           0       -0.778454   -2.007199    0.000000
      3          1           0        0.820687   -2.009286    0.000000
      4          8           0        0.021862    1.445749    0.000000
      5          1           0        0.543095    2.278708    0.000000
      6          1           0       -0.935118    1.668672    0.000000
 ---------------------------------------------------------------------

 SCF Done:  E(RHF) =  -152.100702636     A.U. after   11 cycles
 E2 =    -0.5276769458D+00 EUMP2 =    -0.15262837958165D+03
 CCSD(T)
 CCSD(T)= -0.15265567148D+03

 The electronic state is 1-A'.
 Alpha  occ. eigenvalues --  -20.53891 -20.53669  -1.31305  -1.30900  -0.68710
 Alpha  occ. eigenvalues --   -0.68363  -0.55840  -0.52629  -0.48512  -0.47842
 Alpha virt. eigenvalues --    0.14313   0.16870   0.20511   0.22096   0.51860
 Alpha virt. eigenvalues --    0.58387   0.58676   0.60068   0.68078   0.76522
 Alpha virt. eigenvalues --    0.77311   0.78439   0.79457   0.83027   0.86065

 Mulliken charges:
               1
     1  O   -0.472372
     2  H    0.232203
     3  H    0.240153
     4  O   -0.468105
     5  H    0.229971
     6  H    0.238150
 Sum of Mulliken charges =  -0.00000

 Dipole moment (field-independent basis, Debye):
    X=             -0.7089    Y=             -0.1640    Z=              0.0000  Tot=              0.7276
 Quadrupole moment (field-independent basis, Debye-Ang):
   XX=             -8.2042   YY=             -1.1061   ZZ=            -14.7130
   XY=             -0.4917   XZ=              0.0000   YZ=              0.0000

 Normal termination of Gaussian 16 at Sat Aug 27 02:58:34 2022.
