 Gaussian 16, Revision A.03,
 Gaussian 16:  ES64L-G16RevA.03 25-Dec-2016

 ------------------
 #p CCSD(T)/cc-pVTZ
 ------------------

 ------------
 H2O_H2O_4627
 ------------
 Symbolic Z-matrix:
 Charge =  0 Multiplicity = 1

                         Standard orientation:
 ---------------------------------------------------------------------
 Center     Atomic      Atomic             Coordinates (Angstroms)
 Number     Number       Type             X           Y           Z
 ---------------------------------------------------------------------
      1          8           0        0.007455   -3.262813    0.000000
      2          1           0       -0.792228   -3.833788    0.000000
      3          1           0        0.806914   -3.834102    0.000000
      4          8           0        0.007455    3.263787    0.000000
      5          1           0        0.725770    3.934257    0.000000
      6          1           0       -0.859733    3.725839    0.000000
 ---------------------------------------------------------------------

 SCF Done:  E(RHF) =  -152.106882509     A.U. after   10 cycles
 E2 =    -0.5259224239D+00 EUMP2 =    -0.15263280493241D+03
 CCSD(T)
 CCSD(T)= -0.15266003641D+03

 The electronic state is 1-A'.
 Alpha  occ. eigenvalues --  -20.55221 -20.55216  -1.32517  -1.32512  -0.69924
 Alpha  occ. eigenvalues --   -0.69919  -0.55941  -0.55935  -0.49625  -0.49620
 Alpha virt. eigenvalues --    0.14407   0.14423   0.20458   0.20467   0.54644
 Alpha virt. eigenvalues --    0.54651   0.57515   0.57522   0.68279   0.68307
 Alpha virt. eigenvalues --    0.79254   0.79259   0.80697   0.80703   0.82623

 Mulliken charges:
               1
     1  O   -0.505763
     2  H    0.252727
     3  H    0.253036
     4  O   -0.505758
     5  H    0.252662
     6  H    0.253097
 Sum of Mulliken charges =  -0.00000

 Dipole moment (field-independent basis, Debye):
    X=             -0.2562    Y=             -0.0170    Z=              0.0000  Tot=              0.2568
 Quadrupole moment (field-independent basis, Debye-Ang):
   XX=             -7.8369   YY=             13.9942   ZZ=            -14.7108
   XY=             -0.6043   XZ=              0.0000   YZ=              0.0000

 Normal termination of Gaussian 16 at Sat Aug 27 08:24:57 2022.
