 Gaussian 16, Revision A.03,
 Gaussian 16:  ES64L-G16RevA.03 25-Dec-2016

 ------------------
 #p CCSD(T)/cc-pVTZ
 ------------------

 ------------
 H2O_H2O_3157
 ------------
 Symbolic Z-matrix:
 Charge =  0 Multiplicity = 1

                         Standard orientation:
 ---------------------------------------------------------------------
 Center     Atomic      Atomic             Coordinates (Angstroms)
 Number     Number       Type             X           Y           Z
 ---------------------------------------------------------------------
      1          8           0        0.025266   -2.472510    0.000000
      2          1           0       -0.774806   -3.042940    0.000000
      3          1           0        0.824335   -3.044343    0.000000
      4          8           0        0.025266    2.484245    0.000000
      5          1           0        0.490533    3.349711    0.000000
      6          1           0       -0.944314    2.643687    0.000000
 ---------------------------------------------------------------------

 SCF Done:  E(RHF) =  -152.106304984     A.U. after   10 cycles
 E2 =    -0.5260146100D+00 EUMP2 =    -0.15263231959415D+03
 CCSD(T)
 CCSD(T)= -0.15265956066D+03

 The electronic state is 1-A'.
 Alpha  occ. eigenvalues --  -20.55011 -20.54900  -1.32304  -1.32192  -0.69714
 Alpha  occ. eigenvalues --   -0.69598  -0.55699  -0.55585  -0.49408  -0.49296
 Alpha virt. eigenvalues --    0.14357   0.14889   0.20533   0.20768   0.54762
 Alpha virt. eigenvalues --    0.55053   0.57667   0.57806   0.67380   0.69921
 Alpha virt. eigenvalues --    0.79464   0.79582   0.80889   0.81082   0.82705

 Mulliken charges:
               1
     1  O   -0.502388
     2  H    0.250064
     3  H    0.252332
     4  O   -0.502181
     5  H    0.249556
     6  H    0.252617
 Sum of Mulliken charges =  -0.00000

 Dipole moment (field-independent basis, Debye):
    X=             -0.8631    Y=             -0.2071    Z=              0.0000  Tot=              0.8876
 Quadrupole moment (field-independent basis, Debye-Ang):
   XX=             -8.2136   YY=              7.1300   ZZ=            -14.7102
   XY=             -1.4604   XZ=              0.0000   YZ=              0.0000

 Normal termination of Gaussian 16 at Fri Aug 26 19:54:13 2022.
