 Gaussian 16, Revision A.03,
 Gaussian 16:  ES64L-G16RevA.03 25-Dec-2016

 ------------------
 #p CCSD(T)/cc-pVTZ
 ------------------

 ------------
 H2O_H2O_1554
 ------------
 Symbolic Z-matrix:
 Charge =  0 Multiplicity = 1

                         Standard orientation:
 ---------------------------------------------------------------------
 Center     Atomic      Atomic             Coordinates (Angstroms)
 Number     Number       Type             X           Y           Z
 ---------------------------------------------------------------------
      1          8           0        0.014784   -1.625844    0.000000
      2          1           0       -0.785234   -2.196350    0.000000
      3          1           0        0.813908   -2.197600    0.000000
      4          8           0        0.014784    1.629712    0.000000
      5          1           0        0.639883    2.387840    0.000000
      6          1           0       -0.905094    1.975159    0.000000
 ---------------------------------------------------------------------

 SCF Done:  E(RHF) =  -152.103143932     A.U. after   10 cycles
 E2 =    -0.5269585556D+00 EUMP2 =    -0.15263010248745D+03
 CCSD(T)
 CCSD(T)= -0.15265737180D+03

 The electronic state is 1-A'.
 Alpha  occ. eigenvalues --  -20.54157 -20.54073  -1.31472  -1.31326  -0.68894
 Alpha  occ. eigenvalues --   -0.68761  -0.55424  -0.53788  -0.48631  -0.48343
 Alpha virt. eigenvalues --    0.14271   0.16400   0.20560   0.21668   0.52570
 Alpha virt. eigenvalues --    0.58147   0.58222   0.58627   0.63074   0.76356
 Alpha virt. eigenvalues --    0.78431   0.78539   0.79717   0.81934   0.85441

 Mulliken charges:
               1
     1  O   -0.479483
     2  H    0.237825
     3  H    0.241819
     4  O   -0.479096
     5  H    0.237437
     6  H    0.241498
 Sum of Mulliken charges =   0.00000

 Dipole moment (field-independent basis, Debye):
    X=             -0.4895    Y=             -0.0725    Z=              0.0000  Tot=              0.4948
 Quadrupole moment (field-independent basis, Debye-Ang):
   XX=             -8.0090   YY=              0.6201   ZZ=            -14.7092
   XY=             -0.3993   XZ=              0.0000   YZ=              0.0000

 Normal termination of Gaussian 16 at Sat Aug 27 05:26:29 2022.
