 Gaussian 16, Revision A.03,
 Gaussian 16:  ES64L-G16RevA.03 25-Dec-2016

 ------------------
 #p CCSD(T)/cc-pVTZ
 ------------------

 ------------
 H2O_H2O_4962
 ------------
 Symbolic Z-matrix:
 Charge =  0 Multiplicity = 1

                         Standard orientation:
 ---------------------------------------------------------------------
 Center     Atomic      Atomic             Coordinates (Angstroms)
 Number     Number       Type             X           Y           Z
 ---------------------------------------------------------------------
      1          8           0        0.040402   -3.418064    0.000000
      2          1           0       -0.759747   -3.988386    0.000000
      3          1           0        0.839395   -3.990005    0.000000
      4          8           0        0.040402    3.451438    0.000000
      5          1           0        0.202914    4.420508    0.000000
      6          1           0       -0.928995    3.290888    0.000000
 ---------------------------------------------------------------------

 SCF Done:  E(RHF) =  -152.107165059     A.U. after   10 cycles
 E2 =    -0.5258954170D+00 EUMP2 =    -0.15263306047594D+03
 CCSD(T)
 CCSD(T)= -0.15266028609D+03

 The electronic state is 1-A'.
 Alpha  occ. eigenvalues --  -20.55411 -20.55248  -1.32708  -1.32545  -0.70115
 Alpha  occ. eigenvalues --   -0.69949  -0.56144  -0.55981  -0.49818  -0.49655
 Alpha virt. eigenvalues --    0.14246   0.14408   0.20308   0.20478   0.54450
 Alpha virt. eigenvalues --    0.54623   0.57347   0.57510   0.68064   0.68229
 Alpha virt. eigenvalues --    0.79061   0.79222   0.80498   0.80673   0.82422

 Mulliken charges:
               1
     1  O   -0.507438
     2  H    0.253003
     3  H    0.254435
     4  O   -0.507333
     5  H    0.252519
     6  H    0.254813
 Sum of Mulliken charges =  -0.00000

 Dipole moment (field-independent basis, Debye):
    X=             -1.3899    Y=             -0.5813    Z=              0.0000  Tot=              1.5066
 Quadrupole moment (field-independent basis, Debye-Ang):
   XX=             -8.8295   YY=             12.4099   ZZ=            -14.7114
   XY=             -3.9248   XZ=              0.0000   YZ=              0.0000

 Normal termination of Gaussian 16 at Sat Aug 27 10:21:40 2022.
