 Gaussian 16, Revision A.03,
 Gaussian 16:  ES64L-G16RevA.03 25-Dec-2016

 ------------------
 #p CCSD(T)/cc-pVTZ
 ------------------

 ------------
 H2O_H2O_1021
 ------------
 Symbolic Z-matrix:
 Charge =  0 Multiplicity = 1

                         Standard orientation:
 ---------------------------------------------------------------------
 Center     Atomic      Atomic             Coordinates (Angstroms)
 Number     Number       Type             X           Y           Z
 ---------------------------------------------------------------------
      1          8           0        0.056182   -1.285719    0.000000
      2          1           0       -0.745452   -1.853951    0.000000
      3          1           0        0.853679   -1.859743    0.000000
      4          8           0        0.056182    1.377255    0.000000
      5          1           0       -0.344741    2.274342    0.000000
      6          1           0       -0.662397    0.707067    0.000000
 ---------------------------------------------------------------------

 SCF Done:  E(RHF) =  -152.104751017     A.U. after   10 cycles
 E2 =    -0.5288352728D+00 EUMP2 =    -0.15263358629014D+03
 CCSD(T)
 CCSD(T)= -0.15266063295D+03

 The electronic state is 1-A'.
 Alpha  occ. eigenvalues --  -20.56245 -20.52638  -1.33781  -1.29984  -0.71166
 Alpha  occ. eigenvalues --   -0.68018  -0.56533  -0.53467  -0.50861  -0.47074
 Alpha virt. eigenvalues --    0.13201   0.17743   0.19617   0.25306   0.51782
 Alpha virt. eigenvalues --    0.56566   0.58526   0.59879   0.70840   0.74232
 Alpha virt. eigenvalues --    0.75383   0.80826   0.82630   0.84071   0.84127

 Mulliken charges:
               1
     1  O   -0.476515
     2  H    0.237752
     3  H    0.255085
     4  O   -0.503677
     5  H    0.225340
     6  H    0.262016
 Sum of Mulliken charges =  -0.00000

 Dipole moment (field-independent basis, Debye):
    X=             -1.7876    Y=             -1.8646    Z=              0.0000  Tot=              2.5831
 Quadrupole moment (field-independent basis, Debye-Ang):
   XX=             -9.7971   YY=             -4.1756   ZZ=            -14.7249
   XY=             -2.5174   XZ=              0.0000   YZ=              0.0000

 Normal termination of Gaussian 16 at Sat Aug 27 01:26:46 2022.
