 Gaussian 16, Revision A.03,
 Gaussian 16:  ES64L-G16RevA.03 25-Dec-2016

 ------------------
 #p CCSD(T)/cc-pVTZ
 ------------------

 -----------
 H2O_H2O_338
 -----------
 Symbolic Z-matrix:
 Charge =  0 Multiplicity = 1

                         Standard orientation:
 ---------------------------------------------------------------------
 Center     Atomic      Atomic             Coordinates (Angstroms)
 Number     Number       Type             X           Y           Z
 ---------------------------------------------------------------------
      1          8           0        0.043013   -0.955485    0.000000
      2          1           0       -0.758718   -1.523581    0.000000
      3          1           0        0.840413   -1.529645    0.000000
      4          8           0        0.043013    0.994071    0.000000
      5          1           0        0.144514    1.971416    0.000000
      6          1           0       -0.914425    0.773124    0.000000
 ---------------------------------------------------------------------

 SCF Done:  E(RHF) =  -152.047483481     A.U. after   11 cycles
 E2 =    -0.5365346968D+00 EUMP2 =    -0.15258401817769D+03
 CCSD(T)
 CCSD(T)= -0.15261068680D+03

 The electronic state is 1-A'.
 Alpha  occ. eigenvalues --  -20.53155 -20.51728  -1.33501  -1.28366  -0.70564
 Alpha  occ. eigenvalues --   -0.68019  -0.58341  -0.50377  -0.45395  -0.45038
 Alpha virt. eigenvalues --    0.14143   0.18319   0.20015   0.23753   0.53231
 Alpha virt. eigenvalues --    0.57187   0.58537   0.63845   0.71973   0.76609
 Alpha virt. eigenvalues --    0.80233   0.82074   0.83166   0.84998   0.88367

 Mulliken charges:
               1
     1  O   -0.424584
     2  H    0.201754
     3  H    0.223279
     4  O   -0.402774
     5  H    0.166122
     6  H    0.236204
 Sum of Mulliken charges =  -0.00000

 Dipole moment (field-independent basis, Debye):
    X=             -1.2287    Y=             -0.8013    Z=              0.0000  Tot=              1.4669
 Quadrupole moment (field-independent basis, Debye-Ang):
   XX=             -9.1650   YY=             -6.1735   ZZ=            -14.7106
   XY=             -0.7523   XZ=              0.0000   YZ=              0.0000

 Normal termination of Gaussian 16 at Fri Aug 26 15:26:00 2022.
