 Gaussian 16, Revision A.03,
 Gaussian 16:  ES64L-G16RevA.03 25-Dec-2016

 ------------------
 #p CCSD(T)/cc-pVTZ
 ------------------

 ------------
 H2O_H2O_3206
 ------------
 Symbolic Z-matrix:
 Charge =  0 Multiplicity = 1

                         Standard orientation:
 ---------------------------------------------------------------------
 Center     Atomic      Atomic             Coordinates (Angstroms)
 Number     Number       Type             X           Y           Z
 ---------------------------------------------------------------------
      1          8           0        0.021860   -2.500771    0.000000
      2          1           0       -0.778140   -3.071302    0.000000
      3          1           0        0.821001   -3.072503    0.000000
      4          8           0        0.021860    2.509433    0.000000
      5          1           0        0.542630    3.342682    0.000000
      6          1           0       -0.935244    2.731826    0.000000
 ---------------------------------------------------------------------

 SCF Done:  E(RHF) =  -152.106292574     A.U. after   10 cycles
 E2 =    -0.5260117492D+00 EUMP2 =    -0.15263230432356D+03
 CCSD(T)
 CCSD(T)= -0.15265954597D+03

 The electronic state is 1-A'.
 Alpha  occ. eigenvalues --  -20.54997 -20.54917  -1.32291  -1.32210  -0.69700
 Alpha  occ. eigenvalues --   -0.69617  -0.55686  -0.55602  -0.49394  -0.49314
 Alpha virt. eigenvalues --    0.14391   0.14853   0.20550   0.20742   0.54789
 Alpha virt. eigenvalues --    0.55031   0.57680   0.57789   0.67514   0.69769
 Alpha virt. eigenvalues --    0.79478   0.79565   0.80907   0.81057   0.82719

 Mulliken charges:
               1
     1  O   -0.502314
     2  H    0.250207
     3  H    0.252111
     4  O   -0.502162
     5  H    0.249806
     6  H    0.252352
 Sum of Mulliken charges =  -0.00000

 Dipole moment (field-independent basis, Debye):
    X=             -0.7470    Y=             -0.1528    Z=              0.0000  Tot=              0.7625
 Quadrupole moment (field-independent basis, Debye-Ang):
   XX=             -8.1128   YY=              7.5074   ZZ=            -14.7101
   XY=             -1.2621   XZ=              0.0000   YZ=              0.0000

 Normal termination of Gaussian 16 at Fri Aug 26 20:22:03 2022.
