 Gaussian 16, Revision A.03,
 Gaussian 16:  ES64L-G16RevA.03 25-Dec-2016

 ------------------
 #p CCSD(T)/cc-pVTZ
 ------------------

 ------------
 H2O_H2O_1364
 ------------
 Symbolic Z-matrix:
 Charge =  0 Multiplicity = 1

                         Standard orientation:
 ---------------------------------------------------------------------
 Center     Atomic      Atomic             Coordinates (Angstroms)
 Number     Number       Type             X           Y           Z
 ---------------------------------------------------------------------
      1          8           0        0.045368   -1.497431    0.000000
      2          1           0       -0.755666   -2.066509    0.000000
      3          1           0        0.843471   -2.070613    0.000000
      4          8           0        0.045368    1.541888    0.000000
      5          1           0        0.081528    2.523824    0.000000
      6          1           0       -0.895223    1.257641    0.000000
 ---------------------------------------------------------------------

 SCF Done:  E(RHF) =  -152.104594881     A.U. after   10 cycles
 E2 =    -0.5272945454D+00 EUMP2 =    -0.15263188942608D+03
 CCSD(T)
 CCSD(T)= -0.15265909853D+03

 The electronic state is 1-A'.
 Alpha  occ. eigenvalues --  -20.54918 -20.53737  -1.32230  -1.30988  -0.69655
 Alpha  occ. eigenvalues --   -0.68401  -0.55876  -0.53907  -0.49353  -0.48071
 Alpha virt. eigenvalues --    0.13821   0.16779   0.20174   0.22748   0.53866
 Alpha virt. eigenvalues --    0.56656   0.57701   0.58473   0.66463   0.76089
 Alpha virt. eigenvalues --    0.77225   0.77278   0.79871   0.82294   0.85297

 Mulliken charges:
               1
     1  O   -0.482371
     2  H    0.236372
     3  H    0.249413
     4  O   -0.483513
     5  H    0.230489
     6  H    0.249610
 Sum of Mulliken charges =  -0.00000

 Dipole moment (field-independent basis, Debye):
    X=             -1.4813    Y=             -0.8486    Z=              0.0000  Tot=              1.7071
 Quadrupole moment (field-independent basis, Debye-Ang):
   XX=             -9.1435   YY=             -1.2966   ZZ=            -14.7163
   XY=             -1.6364   XZ=              0.0000   YZ=              0.0000

 Normal termination of Gaussian 16 at Sat Aug 27 04:15:37 2022.
