 Gaussian 16, Revision A.03,
 Gaussian 16:  ES64L-G16RevA.03 25-Dec-2016

 ------------------
 #p CCSD(T)/cc-pVTZ
 ------------------

 -----------
 H2O_H2O_374
 -----------
 Symbolic Z-matrix:
 Charge =  0 Multiplicity = 1

                         Standard orientation:
 ---------------------------------------------------------------------
 Center     Atomic      Atomic             Coordinates (Angstroms)
 Number     Number       Type             X           Y           Z
 ---------------------------------------------------------------------
      1          8           0        0.057398   -0.928010    0.000000
      2          1           0       -0.745015   -1.495143    0.000000
      3          1           0        0.854107   -1.503126    0.000000
      4          8           0        0.057398    1.041665    0.000000
      5          1           0       -0.509736    1.844078    0.000000
      6          1           0       -0.517719    0.244955    0.000000
 ---------------------------------------------------------------------

 SCF Done:  E(RHF) =  -152.030731205     A.U. after   11 cycles
 E2 =    -0.5396115378D+00 EUMP2 =    -0.15257034274248D+03
 CCSD(T)
 CCSD(T)= -0.15259600656D+03

 The electronic state is 1-A'.
 Alpha  occ. eigenvalues --  -20.57690 -20.47881  -1.38993  -1.26432  -0.76648
 Alpha  occ. eigenvalues --   -0.72044  -0.54515  -0.50952  -0.49308  -0.43290
 Alpha virt. eigenvalues --    0.12422   0.18191   0.20048   0.28020   0.48505
 Alpha virt. eigenvalues --    0.53817   0.63197   0.69033   0.72492   0.74405
 Alpha virt. eigenvalues --    0.77061   0.79439   0.83759   0.85680   0.87966

 Mulliken charges:
               1
     1  O   -0.346328
     2  H    0.201558
     3  H    0.238276
     4  O   -0.547021
     5  H    0.181913
     6  H    0.271603
 Sum of Mulliken charges =  -0.00000

 Dipole moment (field-independent basis, Debye):
    X=             -1.6329    Y=             -2.9288    Z=              0.0000  Tot=              3.3533
 Quadrupole moment (field-independent basis, Debye-Ang):
   XX=             -9.8117   YY=             -7.5903   ZZ=            -14.6045
   XY=             -2.2753   XZ=              0.0000   YZ=              0.0000

 Normal termination of Gaussian 16 at Fri Aug 26 15:47:18 2022.
