 Gaussian 16, Revision A.03,
 Gaussian 16:  ES64L-G16RevA.03 25-Dec-2016

 ------------------
 #p CCSD(T)/cc-pVTZ
 ------------------

 ------------
 H2O_H2O_3304
 ------------
 Symbolic Z-matrix:
 Charge =  0 Multiplicity = 1

                         Standard orientation:
 ---------------------------------------------------------------------
 Center     Atomic      Atomic             Coordinates (Angstroms)
 Number     Number       Type             X           Y           Z
 ---------------------------------------------------------------------
      1          8           0        0.014783   -2.556553    0.000000
      2          1           0       -0.785072   -3.127287    0.000000
      3          1           0        0.814070   -3.128083    0.000000
      4          8           0        0.014783    2.560431    0.000000
      5          1           0        0.639667    3.318735    0.000000
      6          1           0       -0.905192    2.905614    0.000000
 ---------------------------------------------------------------------

 SCF Done:  E(RHF) =  -152.106293018     A.U. after   10 cycles
 E2 =    -0.5260052160D+00 EUMP2 =    -0.15263229823400D+03
 CCSD(T)
 CCSD(T)= -0.15265954035D+03

 The electronic state is 1-A'.
 Alpha  occ. eigenvalues --  -20.54983 -20.54949  -1.32277  -1.32242  -0.69686
 Alpha  occ. eigenvalues --   -0.69651  -0.55673  -0.55634  -0.49380  -0.49346
 Alpha virt. eigenvalues --    0.14440   0.14791   0.20571   0.20700   0.54820
 Alpha virt. eigenvalues --    0.54988   0.57693   0.57759   0.67748   0.69502
 Alpha virt. eigenvalues --    0.79491   0.79534   0.80923   0.81016   0.82750

 Mulliken charges:
               1
     1  O   -0.502311
     2  H    0.250550
     3  H    0.251762
     4  O   -0.502245
     5  H    0.250321
     6  H    0.251923
 Sum of Mulliken charges =  -0.00000

 Dipole moment (field-independent basis, Debye):
    X=             -0.5055    Y=             -0.0683    Z=              0.0000  Tot=              0.5101
 Quadrupole moment (field-independent basis, Debye-Ang):
   XX=             -7.9496   YY=              8.1941   ZZ=            -14.7100
   XY=             -0.8579   XZ=              0.0000   YZ=              0.0000

 Normal termination of Gaussian 16 at Fri Aug 26 21:12:40 2022.
