 Gaussian 16, Revision A.03,
 Gaussian 16:  ES64L-G16RevA.03 25-Dec-2016

 ------------------
 #p CCSD(T)/cc-pVTZ
 ------------------

 -----------
 H2O_H2O_532
 -----------
 Symbolic Z-matrix:
 Charge =  0 Multiplicity = 1

                         Standard orientation:
 ---------------------------------------------------------------------
 Center     Atomic      Atomic             Coordinates (Angstroms)
 Number     Number       Type             X           Y           Z
 ---------------------------------------------------------------------
      1          8           0        0.025272   -1.076469    0.000000
      2          1           0       -0.775445   -1.645993    0.000000
      3          1           0        0.823694   -1.649206    0.000000
      4          8           0        0.025272    1.088147    0.000000
      5          1           0        0.491519    1.953086    0.000000
      6          1           0       -0.944126    1.248686    0.000000
 ---------------------------------------------------------------------

 SCF Done:  E(RHF) =  -152.073903333     A.U. after   11 cycles
 E2 =    -0.5323246876D+00 EUMP2 =    -0.15260622802093D+03
 CCSD(T)
 CCSD(T)= -0.15263330711D+03

 The electronic state is 1-A'.
 Alpha  occ. eigenvalues --  -20.52683 -20.52309  -1.31604  -1.29234  -0.68633
 Alpha  occ. eigenvalues --   -0.67164  -0.58863  -0.48880  -0.46952  -0.45832
 Alpha virt. eigenvalues --    0.14494   0.17925   0.20441   0.22924   0.51620
 Alpha virt. eigenvalues --    0.58621   0.58745   0.64220   0.70455   0.76921
 Alpha virt. eigenvalues --    0.77928   0.81794   0.84039   0.86400   0.87424

 Mulliken charges:
               1
     1  O   -0.450781
     2  H    0.217255
     3  H    0.231398
     4  O   -0.430652
     5  H    0.198820
     6  H    0.233959
 Sum of Mulliken charges =  -0.00000

 Dipole moment (field-independent basis, Debye):
    X=             -0.7556    Y=             -0.2355    Z=              0.0000  Tot=              0.7915
 Quadrupole moment (field-independent basis, Debye-Ang):
   XX=             -8.4450   YY=             -4.7198   ZZ=            -14.7378
   XY=             -0.3302   XZ=              0.0000   YZ=              0.0000

 21874\MP4DQ=-152.6141283\MP4SDQ=-152.617523\CCSD=-152.6168064\CCSD(T)=
 Normal termination of Gaussian 16 at Fri Aug 26 17:23:57 2022.
