 Gaussian 16, Revision A.03,
 Gaussian 16:  ES64L-G16RevA.03 25-Dec-2016

 ------------------
 #p CCSD(T)/cc-pVTZ
 ------------------

 ------------
 H2O_H2O_2592
 ------------
 Symbolic Z-matrix:
 Charge =  0 Multiplicity = 1

                         Standard orientation:
 ---------------------------------------------------------------------
 Center     Atomic      Atomic             Coordinates (Angstroms)
 Number     Number       Type             X           Y           Z
 ---------------------------------------------------------------------
      1          8           0        0.051288   -2.138591    0.000000
      2          1           0       -0.749442   -2.708098    0.000000
      3          1           0        0.849697   -2.711347    0.000000
      4          8           0        0.051288    2.202088    0.000000
      5          1           0       -0.105333    3.172128    0.000000
      6          1           0       -0.815528    1.739341    0.000000
 ---------------------------------------------------------------------

 SCF Done:  E(RHF) =  -152.107135246     A.U. after   10 cycles
 E2 =    -0.5260708248D+00 EUMP2 =    -0.15263320607088D+03
 CCSD(T)
 CCSD(T)= -0.15266041528D+03

 The electronic state is 1-A'.
 Alpha  occ. eigenvalues --  -20.55455 -20.54611  -1.32743  -1.31899  -0.70153
 Alpha  occ. eigenvalues --   -0.69284  -0.56167  -0.55325  -0.49853  -0.49014
 Alpha virt. eigenvalues --    0.13531   0.15545   0.20144   0.21512   0.54038
 Alpha virt. eigenvalues --    0.54849   0.57331   0.58090   0.65940   0.72916
 Alpha virt. eigenvalues --    0.79006   0.79872   0.79968   0.81886   0.82779

 Mulliken charges:
               1
     1  O   -0.505088
     2  H    0.249667
     3  H    0.256150
     4  O   -0.505871
     5  H    0.247200
     6  H    0.257942
 Sum of Mulliken charges =  -0.00000

 Dipole moment (field-independent basis, Debye):
    X=             -1.7423    Y=             -1.1428    Z=              0.0000  Tot=              2.0836
 Quadrupole moment (field-independent basis, Debye-Ang):
   XX=             -9.4596   YY=              2.0381   ZZ=            -14.7129
   XY=             -3.2668   XZ=              0.0000   YZ=              0.0000

 Normal termination of Gaussian 16 at Fri Aug 26 14:09:01 2022.
