 Gaussian 16, Revision A.03,
 Gaussian 16:  ES64L-G16RevA.03 25-Dec-2016

 ------------------
 #p CCSD(T)/cc-pVTZ
 ------------------

 ------------
 H2O_H2O_1467
 ------------
 Symbolic Z-matrix:
 Charge =  0 Multiplicity = 1

                         Standard orientation:
 ---------------------------------------------------------------------
 Center     Atomic      Atomic             Coordinates (Angstroms)
 Number     Number       Type             X           Y           Z
 ---------------------------------------------------------------------
      1          8           0        0.051312   -1.540317    0.000000
      2          1           0       -0.749857   -2.109204    0.000000
      3          1           0        0.849278   -2.113689    0.000000
      4          8           0        0.051312    1.603735    0.000000
      5          1           0       -0.104558    2.573895    0.000000
      6          1           0       -0.815861    1.141657    0.000000
 ---------------------------------------------------------------------

 SCF Done:  E(RHF) =  -152.106320359     A.U. after   10 cycles
 E2 =    -0.5270824149D+00 EUMP2 =    -0.15263340277350D+03
 CCSD(T)
 CCSD(T)= -0.15266057563D+03

 The electronic state is 1-A'.
 Alpha  occ. eigenvalues --  -20.55418 -20.53742  -1.32712  -1.31003  -0.70133
 Alpha  occ. eigenvalues --   -0.68406  -0.56139  -0.54283  -0.49828  -0.48114
 Alpha virt. eigenvalues --    0.13557   0.16784   0.19997   0.23206   0.54216
 Alpha virt. eigenvalues --    0.55367   0.57323   0.58324   0.66349   0.76027
 Alpha virt. eigenvalues --    0.77006   0.77178   0.79317   0.81870   0.84921

 Mulliken charges:
               1
     1  O   -0.487123
     2  H    0.239558
     3  H    0.253023
     4  O   -0.494541
     5  H    0.234148
     6  H    0.254935
 Sum of Mulliken charges =  -0.00000

 Dipole moment (field-independent basis, Debye):
    X=             -1.6848    Y=             -1.2122    Z=              0.0000  Tot=              2.0756
 Quadrupole moment (field-independent basis, Debye-Ang):
   XX=             -9.4822   YY=             -1.5844   ZZ=            -14.7184
   XY=             -2.2444   XZ=              0.0000   YZ=              0.0000

 Normal termination of Gaussian 16 at Sat Aug 27 04:55:38 2022.
