 Gaussian 16, Revision A.03,
 Gaussian 16:  ES64L-G16RevA.03 25-Dec-2016

 ------------------
 #p CCSD(T)/cc-pVTZ
 ------------------

 ------------
 H2O_H2O_4939
 ------------
 Symbolic Z-matrix:
 Charge =  0 Multiplicity = 1

                         Standard orientation:
 ---------------------------------------------------------------------
 Center     Atomic      Atomic             Coordinates (Angstroms)
 Number     Number       Type             X           Y           Z
 ---------------------------------------------------------------------
      1          8           0        0.045336   -3.398679    0.000000
      2          1           0       -0.754885   -3.968898    0.000000
      3          1           0        0.844256   -3.970722    0.000000
      4          8           0        0.045336    3.443265    0.000000
      5          1           0        0.080095    4.425252    0.000000
      6          1           0       -0.894848    3.157677    0.000000
 ---------------------------------------------------------------------

 SCF Done:  E(RHF) =  -152.107230857     A.U. after   10 cycles
 E2 =    -0.5258899501D+00 EUMP2 =    -0.15263312080748D+03
 CCSD(T)
 CCSD(T)= -0.15266034500D+03

 The electronic state is 1-A'.
 Alpha  occ. eigenvalues --  -20.55460 -20.55241  -1.32758  -1.32538  -0.70164
 Alpha  occ. eigenvalues --   -0.69941  -0.56197  -0.55977  -0.49868  -0.49649
 Alpha virt. eigenvalues --    0.14203   0.14421   0.20268   0.20497   0.54400
 Alpha virt. eigenvalues --    0.54632   0.57303   0.57522   0.68007   0.68229
 Alpha virt. eigenvalues --    0.79011   0.79228   0.80447   0.80681   0.82371

 Mulliken charges:
               1
     1  O   -0.507829
     2  H    0.253106
     3  H    0.254723
     4  O   -0.507697
     5  H    0.252501
     6  H    0.255196
 Sum of Mulliken charges =  -0.00000

 Dipole moment (field-independent basis, Debye):
    X=             -1.5596    Y=             -0.7768    Z=              0.0000  Tot=              1.7424
 Quadrupole moment (field-independent basis, Debye-Ang):
   XX=             -9.0964   YY=             11.2238   ZZ=            -14.7115
   XY=             -4.5432   XZ=              0.0000   YZ=              0.0000

 Normal termination of Gaussian 16 at Sat Aug 27 10:14:04 2022.
