 Gaussian 16, Revision A.03,
 Gaussian 16:  ES64L-G16RevA.03 25-Dec-2016

 ------------------
 #p CCSD(T)/cc-pVTZ
 ------------------

 ------------
 H2O_H2O_2393
 ------------
 Symbolic Z-matrix:
 Charge =  0 Multiplicity = 1

                         Standard orientation:
 ---------------------------------------------------------------------
 Center     Atomic      Atomic             Coordinates (Angstroms)
 Number     Number       Type             X           Y           Z
 ---------------------------------------------------------------------
      1          8           0        0.052843   -2.028540    0.000000
      2          1           0       -0.747983   -2.597910    0.000000
      3          1           0        0.851155   -2.601430    0.000000
      4          8           0        0.052843    2.098821    0.000000
      5          1           0       -0.166723    3.056577    0.000000
      6          1           0       -0.781940    1.580512    0.000000
 ---------------------------------------------------------------------

 SCF Done:  E(RHF) =  -152.107344289     A.U. after   10 cycles
 E2 =    -0.5261384969D+00 EUMP2 =    -0.15263348278634D+03
 CCSD(T)
 CCSD(T)= -0.15266067929D+03

 The electronic state is 1-A'.
 Alpha  occ. eigenvalues --  -20.55548 -20.54487  -1.32830  -1.31775  -0.70241
 Alpha  occ. eigenvalues --   -0.69153  -0.56256  -0.55204  -0.49942  -0.48893
 Alpha virt. eigenvalues --    0.13373   0.15776   0.20076   0.21880   0.53994
 Alpha virt. eigenvalues --    0.54638   0.57264   0.58292   0.65596   0.74028
 Alpha virt. eigenvalues --    0.78873   0.79606   0.80031   0.81982   0.82999

 Mulliken charges:
               1
     1  O   -0.504123
     2  H    0.249010
     3  H    0.256494
     4  O   -0.506489
     5  H    0.246181
     6  H    0.258926
 Sum of Mulliken charges =  -0.00000

 Dipole moment (field-independent basis, Debye):
    X=             -1.7893    Y=             -1.2762    Z=              0.0000  Tot=              2.1978
 Quadrupole moment (field-independent basis, Debye-Ang):
   XX=             -9.5611   YY=              1.0204   ZZ=            -14.7139
   XY=             -3.2891   XZ=              0.0000   YZ=              0.0000

 Normal termination of Gaussian 16 at Sat Aug 27 10:18:41 2022.
