 Gaussian 16, Revision A.03,
 Gaussian 16:  ES64L-G16RevA.03 25-Dec-2016

 ------------------
 #p CCSD(T)/cc-pVTZ
 ------------------

 ------------
 H2O_H2O_4009
 ------------
 Symbolic Z-matrix:
 Charge =  0 Multiplicity = 1

                         Standard orientation:
 ---------------------------------------------------------------------
 Center     Atomic      Atomic             Coordinates (Angstroms)
 Number     Number       Type             X           Y           Z
 ---------------------------------------------------------------------
      1          8           0        0.031739   -2.920522    0.000000
      2          1           0       -0.768364   -3.490908    0.000000
      3          1           0        0.830778   -3.492399    0.000000
      4          8           0        0.031739    2.939713    0.000000
      5          1           0        0.380111    3.858486    0.000000
      6          1           0       -0.950355    2.971290    0.000000
 ---------------------------------------------------------------------

 SCF Done:  E(RHF) =  -152.106830892     A.U. after   10 cycles
 E2 =    -0.5259369535D+00 EUMP2 =    -0.15263276784516D+03
 CCSD(T)
 CCSD(T)= -0.15265999982D+03

 The electronic state is 1-A'.
 Alpha  occ. eigenvalues --  -20.55233 -20.55104  -1.32529  -1.32399  -0.69936
 Alpha  occ. eigenvalues --   -0.69803  -0.55949  -0.55820  -0.49636  -0.49506
 Alpha virt. eigenvalues --    0.14373   0.14547   0.20435   0.20582   0.54629
 Alpha virt. eigenvalues --    0.54776   0.57499   0.57631   0.68203   0.68500
 Alpha virt. eigenvalues --    0.79243   0.79370   0.80685   0.80828   0.82618

 Mulliken charges:
               1
     1  O   -0.505477
     2  H    0.251847
     3  H    0.253630
     4  O   -0.505336
     5  H    0.251359
     6  H    0.253976
 Sum of Mulliken charges =  -0.00000

 Dipole moment (field-independent basis, Debye):
    X=             -1.0891    Y=             -0.3359    Z=              0.0000  Tot=              1.1397
 Quadrupole moment (field-independent basis, Debye-Ang):
   XX=             -8.4384   YY=             10.0431   ZZ=            -14.7108
   XY=             -2.3948   XZ=              0.0000   YZ=              0.0000

 Normal termination of Gaussian 16 at Sat Aug 27 04:51:51 2022.
