 Gaussian 16, Revision A.03,
 Gaussian 16:  ES64L-G16RevA.03 25-Dec-2016

 ------------------
 #p CCSD(T)/cc-pVTZ
 ------------------

 ------------
 H2O_H2O_2581
 ------------
 Symbolic Z-matrix:
 Charge =  0 Multiplicity = 1

                         Standard orientation:
 ---------------------------------------------------------------------
 Center     Atomic      Atomic             Coordinates (Angstroms)
 Number     Number       Type             X           Y           Z
 ---------------------------------------------------------------------
      1          8           0        0.021860   -2.168376    0.000000
      2          1           0       -0.778205   -2.738815    0.000000
      3          1           0        0.820936   -2.740200    0.000000
      4          8           0        0.021860    2.177033    0.000000
      5          1           0        0.542727    3.010222    0.000000
      6          1           0       -0.935218    2.399536    0.000000
 ---------------------------------------------------------------------

 SCF Done:  E(RHF) =  -152.105746367     A.U. after   10 cycles
 E2 =    -0.5261395456D+00 EUMP2 =    -0.15263188591243D+03
 CCSD(T)
 CCSD(T)= -0.15265913144D+03

 The electronic state is 1-A'.
 Alpha  occ. eigenvalues --  -20.54805 -20.54697  -1.32094  -1.31984  -0.69507
 Alpha  occ. eigenvalues --   -0.69393  -0.55494  -0.55305  -0.49195  -0.49085
 Alpha virt. eigenvalues --    0.14211   0.15324   0.20569   0.20989   0.54564
 Alpha virt. eigenvalues --    0.55516   0.57794   0.57995   0.64824   0.72799
 Alpha virt. eigenvalues --    0.79569   0.79893   0.81078   0.81167   0.82222

 Mulliken charges:
               1
     1  O   -0.498740
     2  H    0.247992
     3  H    0.250792
     4  O   -0.498488
     5  H    0.247456
     6  H    0.250988
 Sum of Mulliken charges =  -0.00000

 Dipole moment (field-independent basis, Debye):
    X=             -0.7425    Y=             -0.1548    Z=              0.0000  Tot=              0.7585
 Quadrupole moment (field-independent basis, Debye-Ang):
   XX=             -8.1229   YY=              4.9078   ZZ=            -14.7098
   XY=             -1.0178   XZ=              0.0000   YZ=              0.0000

 Normal termination of Gaussian 16 at Fri Aug 26 13:59:38 2022.
