 Gaussian 16, Revision A.03,
 Gaussian 16:  ES64L-G16RevA.03 25-Dec-2016

 ------------------
 #p CCSD(T)/cc-pVTZ
 ------------------

 ------------
 H2O_H2O_4861
 ------------
 Symbolic Z-matrix:
 Charge =  0 Multiplicity = 1

                         Standard orientation:
 ---------------------------------------------------------------------
 Center     Atomic      Atomic             Coordinates (Angstroms)
 Number     Number       Type             X           Y           Z
 ---------------------------------------------------------------------
      1          8           0        0.037671   -3.367650    0.000000
      2          1           0       -0.762447   -3.938015    0.000000
      3          1           0        0.836694   -3.939548    0.000000
      4          8           0        0.037671    3.395924    0.000000
      5          1           0        0.263164    4.352303    0.000000
      6          1           0       -0.940146    3.299066    0.000000
 ---------------------------------------------------------------------

 SCF Done:  E(RHF) =  -152.107116899     A.U. after   10 cycles
 E2 =    -0.5259004485D+00 EUMP2 =    -0.15263301734735D+03
 CCSD(T)
 CCSD(T)= -0.15266024394D+03

 The electronic state is 1-A'.
 Alpha  occ. eigenvalues --  -20.55379 -20.55237  -1.32676  -1.32534  -0.70083
 Alpha  occ. eigenvalues --   -0.69938  -0.56110  -0.55968  -0.49786  -0.49644
 Alpha virt. eigenvalues --    0.14274   0.14416   0.20333   0.20482   0.54483
 Alpha virt. eigenvalues --    0.54634   0.57375   0.57517   0.68101   0.68246
 Alpha virt. eigenvalues --    0.79093   0.79234   0.80531   0.80684   0.82456

 Mulliken charges:
               1
     1  O   -0.507154
     2  H    0.252877
     3  H    0.254277
     4  O   -0.507055
     5  H    0.252430
     6  H    0.254625
 Sum of Mulliken charges =  -0.00000

 Dipole moment (field-independent basis, Debye):
    X=             -1.2957    Y=             -0.4927    Z=              0.0000  Tot=              1.3862
 Quadrupole moment (field-independent basis, Debye-Ang):
   XX=             -8.6952   YY=             12.5257   ZZ=            -14.7113
   XY=             -3.5306   XZ=              0.0000   YZ=              0.0000

 Normal termination of Gaussian 16 at Sat Aug 27 09:45:07 2022.
