 Gaussian 16, Revision A.03,
 Gaussian 16:  ES64L-G16RevA.03 25-Dec-2016

 ------------------
 #p CCSD(T)/cc-pVTZ
 ------------------

 ------------
 H2O_H2O_2757
 ------------
 Symbolic Z-matrix:
 Charge =  0 Multiplicity = 1

                         Standard orientation:
 ---------------------------------------------------------------------
 Center     Atomic      Atomic             Coordinates (Angstroms)
 Number     Number       Type             X           Y           Z
 ---------------------------------------------------------------------
      1          8           0        0.025266   -2.259777    0.000000
      2          1           0       -0.774853   -2.830142    0.000000
      3          1           0        0.824289   -2.831676    0.000000
      4          8           0        0.025266    2.271509    0.000000
      5          1           0        0.490605    3.136937    0.000000
      6          1           0       -0.944300    2.431030    0.000000
 ---------------------------------------------------------------------

 SCF Done:  E(RHF) =  -152.105984705     A.U. after   10 cycles
 E2 =    -0.5260859894D+00 EUMP2 =    -0.15263207069445D+03
 CCSD(T)
 CCSD(T)= -0.15265931453D+03

 The electronic state is 1-A'.
 Alpha  occ. eigenvalues --  -20.54897 -20.54764  -1.32188  -1.32052  -0.69600
 Alpha  occ. eigenvalues --   -0.69459  -0.55577  -0.55414  -0.49290  -0.49155
 Alpha virt. eigenvalues --    0.14238   0.15182   0.20543   0.20924   0.54649
 Alpha virt. eigenvalues --    0.55321   0.57739   0.57929   0.65861   0.71755
 Alpha virt. eigenvalues --    0.79540   0.79761   0.80981   0.81217   0.82421

 Mulliken charges:
               1
     1  O   -0.500361
     2  H    0.248749
     3  H    0.251647
     4  O   -0.500072
     5  H    0.248136
     6  H    0.251901
 Sum of Mulliken charges =  -0.00000

 Dipole moment (field-independent basis, Debye):
    X=             -0.8601    Y=             -0.2087    Z=              0.0000  Tot=              0.8850
 Quadrupole moment (field-independent basis, Debye-Ang):
   XX=             -8.2193   YY=              5.4913   ZZ=            -14.7100
   XY=             -1.2795   XZ=              0.0000   YZ=              0.0000

 Normal termination of Gaussian 16 at Fri Aug 26 15:49:32 2022.
