 Gaussian 16, Revision A.03,
 Gaussian 16:  ES64L-G16RevA.03 25-Dec-2016

 ------------------
 #p CCSD(T)/cc-pVTZ
 ------------------

 ------------
 H2O_H2O_2902
 ------------
 Symbolic Z-matrix:
 Charge =  0 Multiplicity = 1

                         Standard orientation:
 ---------------------------------------------------------------------
 Center     Atomic      Atomic             Coordinates (Angstroms)
 Number     Number       Type             X           Y           Z
 ---------------------------------------------------------------------
      1          8           0        0.007455   -2.345396    0.000000
      2          1           0       -0.792272   -2.916309    0.000000
      3          1           0        0.806870   -2.916747    0.000000
      4          8           0        0.007455    2.346369    0.000000
      5          1           0        0.725821    3.016784    0.000000
      6          1           0       -0.859698    2.808486    0.000000
 ---------------------------------------------------------------------

 SCF Done:  E(RHF) =  -152.105915560     A.U. after   10 cycles
 E2 =    -0.5260678223D+00 EUMP2 =    -0.15263198338250D+03
 CCSD(T)
 CCSD(T)= -0.15265923108D+03

 The electronic state is 1-A'.
 Alpha  occ. eigenvalues --  -20.54838 -20.54828  -1.32129  -1.32119  -0.69541
 Alpha  occ. eigenvalues --   -0.69530  -0.55532  -0.55463  -0.49231  -0.49219
 Alpha virt. eigenvalues --    0.14389   0.15037   0.20615   0.20818   0.54825
 Alpha virt. eigenvalues --    0.55250   0.57778   0.57879   0.66496   0.71019
 Alpha virt. eigenvalues --    0.79594   0.79703   0.81065   0.81157   0.82473

 Mulliken charges:
               1
     1  O   -0.500049
     2  H    0.249638
     3  H    0.250413
     4  O   -0.500023
     5  H    0.249524
     6  H    0.250497
 Sum of Mulliken charges =  -0.00000

 Dipole moment (field-independent basis, Debye):
    X=             -0.2541    Y=             -0.0172    Z=              0.0000  Tot=              0.2547
 Quadrupole moment (field-independent basis, Debye-Ang):
   XX=             -7.8539   YY=              6.6384   ZZ=            -14.7097
   XY=             -0.3725   XZ=              0.0000   YZ=              0.0000

 Normal termination of Gaussian 16 at Fri Aug 26 17:18:27 2022.
