 Gaussian 16, Revision A.03,
 Gaussian 16:  ES64L-G16RevA.03 25-Dec-2016

 ------------------
 #p CCSD(T)/cc-pVTZ
 ------------------

 ------------
 H2O_H2O_1537
 ------------
 Symbolic Z-matrix:
 Charge =  0 Multiplicity = 1

                         Standard orientation:
 ---------------------------------------------------------------------
 Center     Atomic      Atomic             Coordinates (Angstroms)
 Number     Number       Type             X           Y           Z
 ---------------------------------------------------------------------
      1          8           0        0.040421   -1.596572    0.000000
      2          1           0       -0.760379   -2.165980    0.000000
      3          1           0        0.838759   -2.169426    0.000000
      4          8           0        0.040421    1.629854    0.000000
      5          1           0        0.204040    2.598737    0.000000
      6          1           0       -0.929159    1.470412    0.000000
 ---------------------------------------------------------------------

 SCF Done:  E(RHF) =  -152.104696129     A.U. after   10 cycles
 E2 =    -0.5269668067D+00 EUMP2 =    -0.15263166293571D+03
 CCSD(T)
 CCSD(T)= -0.15265888605D+03

 The electronic state is 1-A'.
 Alpha  occ. eigenvalues --  -20.54754 -20.53974  -1.32043  -1.31231  -0.69469
 Alpha  occ. eigenvalues --   -0.68630  -0.55676  -0.54168  -0.49161  -0.48317
 Alpha virt. eigenvalues --    0.13900   0.16520   0.20300   0.22229   0.53399
 Alpha virt. eigenvalues --    0.56282   0.57850   0.58677   0.64731   0.76795
 Alpha virt. eigenvalues --    0.78009   0.78571   0.79104   0.81849   0.85446

 Mulliken charges:
               1
     1  O   -0.484637
     2  H    0.237979
     3  H    0.248554
     4  O   -0.484978
     5  H    0.234281
     6  H    0.248802
 Sum of Mulliken charges =  -0.00000

 Dipole moment (field-independent basis, Debye):
    X=             -1.3334    Y=             -0.6269    Z=              0.0000  Tot=              1.4734
 Quadrupole moment (field-independent basis, Debye-Ang):
   XX=             -8.8748   YY=             -0.2651   ZZ=            -14.7130
   XY=             -1.4403   XZ=              0.0000   YZ=              0.0000

 Normal termination of Gaussian 16 at Sat Aug 27 05:20:47 2022.
