 Gaussian 16, Revision A.03,
 Gaussian 16:  ES64L-G16RevA.03 25-Dec-2016

 ------------------
 #p CCSD(T)/cc-pVTZ
 ------------------

 ------------
 H2O_H2O_1943
 ------------
 Symbolic Z-matrix:
 Charge =  0 Multiplicity = 1

                         Standard orientation:
 ---------------------------------------------------------------------
 Center     Atomic      Atomic             Coordinates (Angstroms)
 Number     Number       Type             X           Y           Z
 ---------------------------------------------------------------------
      1          8           0        0.052853   -1.789229    0.000000
      2          1           0       -0.748137   -2.358369    0.000000
      3          1           0        0.851000   -2.362350    0.000000
      4          8           0        0.052853    1.859480    0.000000
      5          1           0       -0.166436    2.817299    0.000000
      6          1           0       -0.782079    1.341412    0.000000
 ---------------------------------------------------------------------

 SCF Done:  E(RHF) =  -152.107339422     A.U. after   10 cycles
 E2 =    -0.5264282741D+00 EUMP2 =    -0.15263376769568D+03
 CCSD(T)
 CCSD(T)= -0.15266094393D+03

 The electronic state is 1-A'.
 Alpha  occ. eigenvalues --  -20.55575 -20.54174  -1.32848  -1.31453  -0.70262
 Alpha  occ. eigenvalues --   -0.68824  -0.56262  -0.54864  -0.49961  -0.48574
 Alpha virt. eigenvalues --    0.13357   0.16265   0.20016   0.22650   0.54096
 Alpha virt. eigenvalues --    0.54366   0.57229   0.58551   0.64909   0.75786
 Alpha virt. eigenvalues --    0.78424   0.78690   0.79689   0.80668   0.84808

 Mulliken charges:
               1
     1  O   -0.497916
     2  H    0.245581
     3  H    0.255506
     4  O   -0.504083
     5  H    0.242149
     6  H    0.258763
 Sum of Mulliken charges =  -0.00000

 Dipole moment (field-independent basis, Debye):
    X=             -1.7704    Y=             -1.3052    Z=              0.0000  Tot=              2.1995
 Quadrupole moment (field-independent basis, Debye-Ang):
   XX=             -9.5661   YY=             -0.3443   ZZ=            -14.7157
   XY=             -2.8660   XZ=              0.0000   YZ=              0.0000

 Normal termination of Gaussian 16 at Sat Aug 27 07:41:29 2022.
