 Gaussian 16, Revision A.03,
 Gaussian 16:  ES64L-G16RevA.03 25-Dec-2016

 ------------------
 #p CCSD(T)/cc-pVTZ
 ------------------

 ------------
 H2O_H2O_4787
 ------------
 Symbolic Z-matrix:
 Charge =  0 Multiplicity = 1

                         Standard orientation:
 ---------------------------------------------------------------------
 Center     Atomic      Atomic             Coordinates (Angstroms)
 Number     Number       Type             X           Y           Z
 ---------------------------------------------------------------------
      1          8           0        0.040403   -3.324993    0.000000
      2          1           0       -0.759762   -3.895293    0.000000
      3          1           0        0.839379   -3.896957    0.000000
      4          8           0        0.040403    3.358365    0.000000
      5          1           0        0.202942    4.327431    0.000000
      6          1           0       -0.928999    3.197843    0.000000
 ---------------------------------------------------------------------

 SCF Done:  E(RHF) =  -152.107137377     A.U. after   10 cycles
 E2 =    -0.5258994288D+00 EUMP2 =    -0.15263303680555D+03
 CCSD(T)
 CCSD(T)= -0.15266026291D+03

 The electronic state is 1-A'.
 Alpha  occ. eigenvalues --  -20.55397 -20.55225  -1.32694  -1.32522  -0.70101
 Alpha  occ. eigenvalues --   -0.69925  -0.56129  -0.55957  -0.49804  -0.49632
 Alpha virt. eigenvalues --    0.14257   0.14430   0.20318   0.20498   0.54464
 Alpha virt. eigenvalues --    0.54648   0.57359   0.57531   0.68080   0.68257
 Alpha virt. eigenvalues --    0.79075   0.79246   0.80512   0.80698   0.82437

 Mulliken charges:
               1
     1  O   -0.507277
     2  H    0.252863
     3  H    0.254414
     4  O   -0.507159
     5  H    0.252343
     6  H    0.254815
 Sum of Mulliken charges =  -0.00000

 Dipole moment (field-independent basis, Debye):
    X=             -1.3894    Y=             -0.5817    Z=              0.0000  Tot=              1.5063
 Quadrupole moment (field-independent basis, Debye-Ang):
   XX=             -8.8297   YY=             11.7759   ZZ=            -14.7113
   XY=             -3.7962   XZ=              0.0000   YZ=              0.0000

 Normal termination of Gaussian 16 at Sat Aug 27 09:20:07 2022.
