 Gaussian 16, Revision A.03,
 Gaussian 16:  ES64L-G16RevA.03 25-Dec-2016

 ------------------
 #p CCSD(T)/cc-pVTZ
 ------------------

 ------------
 H2O_H2O_4372
 ------------
 Symbolic Z-matrix:
 Charge =  0 Multiplicity = 1

                         Standard orientation:
 ---------------------------------------------------------------------
 Center     Atomic      Atomic             Coordinates (Angstroms)
 Number     Number       Type             X           Y           Z
 ---------------------------------------------------------------------
      1          8           0        0.056702   -3.063247    0.000000
      2          1           0       -0.743762   -3.633126    0.000000
      3          1           0        0.855378   -3.635630    0.000000
      4          8           0        0.056702    3.162386    0.000000
      5          1           0       -0.403820    4.030386    0.000000
      6          1           0       -0.615033    2.445253    0.000000
 ---------------------------------------------------------------------

 SCF Done:  E(RHF) =  -152.107605824     A.U. after   10 cycles
 E2 =    -0.5258641550D+00 EUMP2 =    -0.15263346997907D+03
 CCSD(T)
 CCSD(T)= -0.15266068571D+03

 The electronic state is 1-A'.
 Alpha  occ. eigenvalues --  -20.55715 -20.55124  -1.33014  -1.32424  -0.70420
 Alpha  occ. eigenvalues --   -0.69822  -0.56471  -0.55875  -0.50127  -0.49539
 Alpha virt. eigenvalues --    0.13954   0.14582   0.20060   0.20698   0.54138
 Alpha virt. eigenvalues --    0.54749   0.57074   0.57663   0.67658   0.68355
 Alpha virt. eigenvalues --    0.78753   0.79332   0.80179   0.80780   0.82147

 Mulliken charges:
               1
     1  O   -0.510069
     2  H    0.253789
     3  H    0.256283
     4  O   -0.509698
     5  H    0.252244
     6  H    0.257451
 Sum of Mulliken charges =  -0.00000

 Dipole moment (field-independent basis, Debye):
    X=             -1.9487    Y=             -1.7338    Z=              0.0000  Tot=              2.6083
 Quadrupole moment (field-independent basis, Debye-Ang):
   XX=             -9.8281   YY=              3.9470   ZZ=            -14.7125
   XY=             -6.0598   XZ=              0.0000   YZ=              0.0000

 1463\MP4DQ=-152.642595\MP4SDQ=-152.6456484\CCSD=-152.6450621\CCSD(T)=-
 Normal termination of Gaussian 16 at Sat Aug 27 06:56:31 2022.
