 Gaussian 16, Revision A.03,
 Gaussian 16:  ES64L-G16RevA.03 25-Dec-2016

 ------------------
 #p CCSD(T)/cc-pVTZ
 ------------------

 ------------
 H2O_H2O_1283
 ------------
 Symbolic Z-matrix:
 Charge =  0 Multiplicity = 1

                         Standard orientation:
 ---------------------------------------------------------------------
 Center     Atomic      Atomic             Coordinates (Angstroms)
 Number     Number       Type             X           Y           Z
 ---------------------------------------------------------------------
      1          8           0        0.028569   -1.473429    0.000000
      2          1           0       -0.771949   -2.043233    0.000000
      3          1           0        0.827191   -2.045888    0.000000
      4          8           0        0.028569    1.488638    0.000000
      5          1           0        0.436937    2.382362    0.000000
      6          1           0       -0.949287    1.585090    0.000000
 ---------------------------------------------------------------------

 SCF Done:  E(RHF) =  -152.101983890     A.U. after   11 cycles
 E2 =    -0.5274801548D+00 EUMP2 =    -0.15262946404470D+03
 CCSD(T)
 CCSD(T)= -0.15265673573D+03

 The electronic state is 1-A'.
 Alpha  occ. eigenvalues --  -20.54141 -20.53756  -1.31495  -1.31005  -0.68915
 Alpha  occ. eigenvalues --   -0.68444  -0.55744  -0.53109  -0.48667  -0.48001
 Alpha virt. eigenvalues --    0.14205   0.16766   0.20458   0.22138   0.52428
 Alpha virt. eigenvalues --    0.58246   0.58442   0.59274   0.66862   0.76589
 Alpha virt. eigenvalues --    0.77459   0.78328   0.79602   0.82752   0.85889

 Mulliken charges:
               1
     1  O   -0.475905
     2  H    0.233416
     3  H    0.242919
     4  O   -0.471472
     5  H    0.230046
     6  H    0.240996
 Sum of Mulliken charges =  -0.00000

 Dipole moment (field-independent basis, Debye):
    X=             -0.9305    Y=             -0.2885    Z=              0.0000  Tot=              0.9742
 Quadrupole moment (field-independent basis, Debye-Ang):
   XX=             -8.4001   YY=             -0.8757   ZZ=            -14.7127
   XY=             -0.7358   XZ=              0.0000   YZ=              0.0000

 Normal termination of Gaussian 16 at Sat Aug 27 03:36:46 2022.
