 Gaussian 16, Revision A.03,
 Gaussian 16:  ES64L-G16RevA.03 25-Dec-2016

 ------------------
 #p CCSD(T)/cc-pVTZ
 ------------------

 ------------
 H2O_H2O_1885
 ------------
 Symbolic Z-matrix:
 Charge =  0 Multiplicity = 1

                         Standard orientation:
 ---------------------------------------------------------------------
 Center     Atomic      Atomic             Coordinates (Angstroms)
 Number     Number       Type             X           Y           Z
 ---------------------------------------------------------------------
      1          8           0        0.034788   -1.788034    0.000000
      2          1           0       -0.765732   -2.357836    0.000000
      3          1           0        0.833408   -2.360495    0.000000
      4          8           0        0.034788    1.811523    0.000000
      5          1           0        0.323010    2.750903    0.000000
      6          1           0       -0.947293    1.779518    0.000000
 ---------------------------------------------------------------------

 SCF Done:  E(RHF) =  -152.105216725     A.U. after   10 cycles
 E2 =    -0.5265406652D+00 EUMP2 =    -0.15263175739052D+03
 CCSD(T)
 CCSD(T)= -0.15265898549D+03

 The electronic state is 1-A'.
 Alpha  occ. eigenvalues --  -20.54740 -20.54294  -1.32018  -1.31562  -0.69440
 Alpha  occ. eigenvalues --   -0.68963  -0.55513  -0.54693  -0.49125  -0.48659
 Alpha virt. eigenvalues --    0.13920   0.16090   0.20410   0.21647   0.53176
 Alpha virt. eigenvalues --    0.55826   0.57870   0.58420   0.63065   0.76412
 Alpha virt. eigenvalues --    0.78949   0.79175   0.80575   0.80907   0.83869

 Mulliken charges:
               1
     1  O   -0.490760
     2  H    0.242208
     3  H    0.249368
     4  O   -0.491258
     5  H    0.240517
     6  H    0.249925
 Sum of Mulliken charges =  -0.00000

 Dipole moment (field-independent basis, Debye):
    X=             -1.1642    Y=             -0.4341    Z=              0.0000  Tot=              1.2425
 Quadrupole moment (field-independent basis, Debye-Ang):
   XX=             -8.5967   YY=              1.4606   ZZ=            -14.7109
   XY=             -1.3476   XZ=              0.0000   YZ=              0.0000

 Normal termination of Gaussian 16 at Sat Aug 27 07:21:34 2022.
