 Gaussian 16, Revision A.03,
 Gaussian 16:  ES64L-G16RevA.03 25-Dec-2016

 ------------------
 #p CCSD(T)/cc-pVTZ
 ------------------

 ------------
 H2O_H2O_1265
 ------------
 Symbolic Z-matrix:
 Charge =  0 Multiplicity = 1

                         Standard orientation:
 ---------------------------------------------------------------------
 Center     Atomic      Atomic             Coordinates (Angstroms)
 Number     Number       Type             X           Y           Z
 ---------------------------------------------------------------------
      1          8           0        0.047558   -1.440965    0.000000
      2          1           0       -0.753602   -2.009865    0.000000
      3          1           0        0.845534   -2.014324    0.000000
      4          8           0        0.047558    1.491466    0.000000
      5          1           0        0.019636    2.473670    0.000000
      6          1           0       -0.872504    1.146513    0.000000
 ---------------------------------------------------------------------

 SCF Done:  E(RHF) =  -152.104390522     A.U. after   10 cycles
 E2 =    -0.5275444787D+00 EUMP2 =    -0.15263193500053D+03
 CCSD(T)
 CCSD(T)= -0.15265913402D+03

 The electronic state is 1-A'.
 Alpha  occ. eigenvalues --  -20.55021 -20.53577  -1.32358  -1.30825  -0.69782
 Alpha  occ. eigenvalues --   -0.68267  -0.55991  -0.53736  -0.49485  -0.47903
 Alpha virt. eigenvalues --    0.13769   0.16941   0.20102   0.23064   0.53905
 Alpha virt. eigenvalues --    0.57063   0.57601   0.58317   0.67735   0.75811
 Alpha virt. eigenvalues --    0.76696   0.76894   0.80491   0.82499   0.85199

 Mulliken charges:
               1
     1  O   -0.480976
     2  H    0.235540
     3  H    0.250086
     4  O   -0.482962
     5  H    0.228251
     6  H    0.250061
 Sum of Mulliken charges =  -0.00000

 Dipole moment (field-independent basis, Debye):
    X=             -1.5424    Y=             -0.9723    Z=              0.0000  Tot=              1.8232
 Quadrupole moment (field-independent basis, Debye-Ang):
   XX=             -9.2725   YY=             -1.8667   ZZ=            -14.7185
   XY=             -1.7232   XZ=              0.0000   YZ=              0.0000

 Normal termination of Gaussian 16 at Sat Aug 27 03:28:48 2022.
