 Gaussian 16, Revision A.03,
 Gaussian 16:  ES64L-G16RevA.03 25-Dec-2016

 ------------------
 #p CCSD(T)/cc-pVTZ
 ------------------

 ------------
 H2O_H2O_3227
 ------------
 Symbolic Z-matrix:
 Charge =  0 Multiplicity = 1

                         Standard orientation:
 ---------------------------------------------------------------------
 Center     Atomic      Atomic             Coordinates (Angstroms)
 Number     Number       Type             X           Y           Z
 ---------------------------------------------------------------------
      1          8           0        0.007455   -2.518243    0.000000
      2          1           0       -0.792262   -3.089171    0.000000
      3          1           0        0.806880   -3.089578    0.000000
      4          8           0        0.007455    2.519216    0.000000
      5          1           0        0.725809    3.189643    0.000000
      6          1           0       -0.859706    2.981317    0.000000
 ---------------------------------------------------------------------

 SCF Done:  E(RHF) =  -152.106195589     A.U. after   10 cycles
 E2 =    -0.5260172648D+00 EUMP2 =    -0.15263221285385D+03
 CCSD(T)
 CCSD(T)= -0.15265945678D+03

 The electronic state is 1-A'.
 Alpha  occ. eigenvalues --  -20.54939 -20.54930  -1.32232  -1.32223  -0.69642
 Alpha  occ. eigenvalues --   -0.69632  -0.55629  -0.55603  -0.49335  -0.49326
 Alpha virt. eigenvalues --    0.14450   0.14829   0.20592   0.20716   0.54842
 Alpha virt. eigenvalues --    0.55030   0.57721   0.57780   0.67600   0.69727
 Alpha virt. eigenvalues --    0.79528   0.79563   0.80957   0.81047   0.82724

 Mulliken charges:
               1
     1  O   -0.501733
     2  H    0.250548
     3  H    0.251185
     4  O   -0.501715
     5  H    0.250444
     6  H    0.251271
 Sum of Mulliken charges =  -0.00000

 Dipole moment (field-independent basis, Debye):
    X=             -0.2548    Y=             -0.0172    Z=              0.0000  Tot=              0.2554
 Quadrupole moment (field-independent basis, Debye-Ang):
   XX=             -7.8487   YY=              8.0347   ZZ=            -14.7099
   XY=             -0.4158   XZ=              0.0000   YZ=              0.0000

 Normal termination of Gaussian 16 at Fri Aug 26 20:32:09 2022.
