 Gaussian 16, Revision A.03,
 Gaussian 16:  ES64L-G16RevA.03 25-Dec-2016

 ------------------
 #p CCSD(T)/cc-pVTZ
 ------------------

 ------------
 H2O_H2O_4491
 ------------
 Symbolic Z-matrix:
 Charge =  0 Multiplicity = 1

                         Standard orientation:
 ---------------------------------------------------------------------
 Center     Atomic      Atomic             Coordinates (Angstroms)
 Number     Number       Type             X           Y           Z
 ---------------------------------------------------------------------
      1          8           0        0.049500   -3.152621    0.000000
      2          1           0       -0.750835   -3.722682    0.000000
      3          1           0        0.848305   -3.724823    0.000000
      4          8           0        0.049500    3.209602    0.000000
      5          1           0       -0.044020    4.187743    0.000000
      6          1           0       -0.845444    2.803916    0.000000
 ---------------------------------------------------------------------

 SCF Done:  E(RHF) =  -152.107266589     A.U. after   10 cycles
 E2 =    -0.5258919169D+00 EUMP2 =    -0.15263315850559D+03
 CCSD(T)
 CCSD(T)= -0.15266038160D+03

 The electronic state is 1-A'.
 Alpha  occ. eigenvalues --  -20.55495 -20.55170  -1.32793  -1.32466  -0.70200
 Alpha  occ. eigenvalues --   -0.69867  -0.56234  -0.55906  -0.49904  -0.49578
 Alpha virt. eigenvalues --    0.14164   0.14500   0.20236   0.20583   0.54363
 Alpha virt. eigenvalues --    0.54708   0.57270   0.57596   0.67955   0.68310
 Alpha virt. eigenvalues --    0.78976   0.79297   0.80409   0.80758   0.82337

 Mulliken charges:
               1
     1  O   -0.508052
     2  H    0.252944
     3  H    0.255108
     4  O   -0.507840
     5  H    0.252046
     6  H    0.255794
 Sum of Mulliken charges =  -0.00000

 Dipole moment (field-independent basis, Debye):
    X=             -1.7014    Y=             -0.9951    Z=              0.0000  Tot=              1.9710
 Quadrupole moment (field-independent basis, Debye-Ang):
   XX=             -9.3454   YY=              8.5323   ZZ=            -14.7117
   XY=             -4.7482   XZ=              0.0000   YZ=              0.0000

 Normal termination of Gaussian 16 at Sat Aug 27 07:37:12 2022.
