 Gaussian 16, Revision A.03,
 Gaussian 16:  ES64L-G16RevA.03 25-Dec-2016

 ------------------
 #p CCSD(T)/cc-pVTZ
 ------------------

 -----------
 H2O_H2O_664
 -----------
 Symbolic Z-matrix:
 Charge =  0 Multiplicity = 1

                         Standard orientation:
 ---------------------------------------------------------------------
 Center     Atomic      Atomic             Coordinates (Angstroms)
 Number     Number       Type             X           Y           Z
 ---------------------------------------------------------------------
      1          8           0        0.045387   -1.125185    0.000000
      2          1           0       -0.756121   -1.693596    0.000000
      3          1           0        0.843011   -1.699032    0.000000
      4          8           0        0.045387    1.169566    0.000000
      5          1           0        0.082364    2.151472    0.000000
      6          1           0       -0.895440    0.886104    0.000000
 ---------------------------------------------------------------------

 SCF Done:  E(RHF) =  -152.088300878     A.U. after   11 cycles
 E2 =    -0.5309026432D+00 EUMP2 =    -0.15261920352074D+03
 CCSD(T)
 CCSD(T)= -0.15264632620D+03

 The electronic state is 1-A'.
 Alpha  occ. eigenvalues --  -20.54166 -20.52538  -1.32343  -1.29674  -0.69654
 Alpha  occ. eigenvalues --   -0.67859  -0.56892  -0.50355  -0.49505  -0.46524
 Alpha virt. eigenvalues --    0.13989   0.17742   0.20110   0.23630   0.53095
 Alpha virt. eigenvalues --    0.57676   0.58420   0.61539   0.71158   0.75436
 Alpha virt. eigenvalues --    0.78698   0.81319   0.83299   0.85332   0.87705

 Mulliken charges:
               1
     1  O   -0.460209
     2  H    0.222213
     3  H    0.241285
     4  O   -0.447329
     5  H    0.199721
     6  H    0.244318
 Sum of Mulliken charges =  -0.00000

 Dipole moment (field-independent basis, Debye):
    X=             -1.3807    Y=             -0.8835    Z=              0.0000  Tot=              1.6392
 Quadrupole moment (field-independent basis, Debye-Ang):
   XX=             -9.2200   YY=             -4.3204   ZZ=            -14.7252
   XY=             -1.0980   XZ=              0.0000   YZ=              0.0000

 Normal termination of Gaussian 16 at Fri Aug 26 18:49:10 2022.
