 Gaussian 16, Revision A.03,
 Gaussian 16:  ES64L-G16RevA.03 25-Dec-2016

 ------------------
 #p CCSD(T)/cc-pVTZ
 ------------------

 ------------
 H2O_H2O_3771
 ------------
 Symbolic Z-matrix:
 Charge =  0 Multiplicity = 1

                         Standard orientation:
 ---------------------------------------------------------------------
 Center     Atomic      Atomic             Coordinates (Angstroms)
 Number     Number       Type             X           Y           Z
 ---------------------------------------------------------------------
      1          8           0        0.056095   -2.748158    0.000000
      2          1           0       -0.744460   -3.317909    0.000000
      3          1           0        0.854679   -3.320669    0.000000
      4          8           0        0.056095    2.839906    0.000000
      5          1           0       -0.346528    3.736233    0.000000
      6          1           0       -0.661212    2.168357    0.000000
 ---------------------------------------------------------------------

 SCF Done:  E(RHF) =  -152.107591245     A.U. after   10 cycles
 E2 =    -0.5258838121D+00 EUMP2 =    -0.15263347505708D+03
 CCSD(T)
 CCSD(T)= -0.15266068950D+03

 The electronic state is 1-A'.
 Alpha  occ. eigenvalues --  -20.55690 -20.54998  -1.32989  -1.32296  -0.70395
 Alpha  occ. eigenvalues --   -0.69691  -0.56445  -0.55746  -0.50102  -0.49411
 Alpha virt. eigenvalues --    0.13869   0.14778   0.20071   0.20864   0.54151
 Alpha virt. eigenvalues --    0.54864   0.57098   0.57765   0.67455   0.68745
 Alpha virt. eigenvalues --    0.78780   0.79456   0.80192   0.80705   0.82496

 Mulliken charges:
               1
     1  O   -0.509953
     2  H    0.253276
     3  H    0.256715
     4  O   -0.509453
     5  H    0.251273
     6  H    0.258141
 Sum of Mulliken charges =  -0.00000

 Dipole moment (field-independent basis, Debye):
    X=             -1.9241    Y=             -1.6131    Z=              0.0000  Tot=              2.5108
 Quadrupole moment (field-independent basis, Debye-Ang):
   XX=             -9.7834   YY=              3.1938   ZZ=            -14.7127
   XY=             -5.2543   XZ=              0.0000   YZ=              0.0000

 Normal termination of Gaussian 16 at Sat Aug 27 03:10:59 2022.
