 Gaussian 16, Revision A.03,
 Gaussian 16:  ES64L-G16RevA.03 25-Dec-2016

 ------------------
 #p CCSD(T)/cc-pVTZ
 ------------------

 ----------
 H2O_H2O_19
 ----------
 Symbolic Z-matrix:
 Charge =  0 Multiplicity = 1

                         Standard orientation:
 ---------------------------------------------------------------------
 Center     Atomic      Atomic             Coordinates (Angstroms)
 Number     Number       Type             X           Y           Z
 ---------------------------------------------------------------------
      1          8           0        0.054307   -0.761837    0.000000
      2          1           0       -0.748573   -1.328308    0.000000
      3          1           0        0.850542   -1.337610    0.000000
      4          8           0        0.054307    0.838716    0.000000
      5          1           0       -0.224025    1.781074    0.000000
      6          1           0       -0.746852    0.269813    0.000000
 ---------------------------------------------------------------------

 SCF Done:  E(RHF) =  -151.878990139     A.U. after   12 cycles
 E2 =    -0.5544981438D+00 EUMP2 =    -0.15243348828239D+03
 CCSD(T)
 CCSD(T)= -0.15245759615D+03

 The electronic state is 1-A'.
 Alpha  occ. eigenvalues --  -20.55095 -20.49551  -1.42711  -1.25761  -0.78873
 Alpha  occ. eigenvalues --   -0.73079  -0.56117  -0.53311  -0.42848  -0.38276
 Alpha virt. eigenvalues --    0.13266   0.18477   0.20323   0.24987   0.50229
 Alpha virt. eigenvalues --    0.54630   0.61003   0.68464   0.73194   0.76514
 Alpha virt. eigenvalues --    0.77615   0.80758   0.84078   0.84643   0.89217

 Mulliken charges:
               1
     1  O   -0.267284
     2  H    0.133778
     3  H    0.189813
     4  O   -0.399946
     5  H    0.089517
     6  H    0.254122
 Sum of Mulliken charges =  -0.00000

 Dipole moment (field-independent basis, Debye):
    X=             -1.3591    Y=             -1.8867    Z=              0.0000  Tot=              2.3253
 Quadrupole moment (field-independent basis, Debye-Ang):
   XX=             -9.8114   YY=             -9.5561   ZZ=            -14.5444
   XY=             -1.0972   XZ=              0.0000   YZ=              0.0000

 Normal termination of Gaussian 16 at Fri Aug 26 11:56:27 2022.
