 Gaussian 16, Revision A.03,
 Gaussian 16:  ES64L-G16RevA.03 25-Dec-2016

 ------------------
 #p CCSD(T)/cc-pVTZ
 ------------------

 ------------
 H2O_H2O_2475
 ------------
 Symbolic Z-matrix:
 Charge =  0 Multiplicity = 1

                         Standard orientation:
 ---------------------------------------------------------------------
 Center     Atomic      Atomic             Coordinates (Angstroms)
 Number     Number       Type             X           Y           Z
 ---------------------------------------------------------------------
      1          8           0        0.000000   -0.000000    2.119894
      2          1           0        0.000000    0.799571    2.691026
      3          1           0       -0.000000   -0.799571    2.691026
      4          8           0        0.000000   -0.000000   -2.119894
      5          1           0       -0.000000   -0.799571   -2.691026
      6          1           0        0.000000    0.799571   -2.691026
 ---------------------------------------------------------------------

 SCF Done:  E(RHF) =  -152.105421375     A.U. after   10 cycles
 E2 =    -0.5261877175D+00 EUMP2 =    -0.15263160909249D+03
 CCSD(T)
 CCSD(T)= -0.15265885955D+03

 The electronic state is 1-AG.
 Alpha  occ. eigenvalues --  -20.54665 -20.54665  -1.31955  -1.31948  -0.69371
 Alpha  occ. eigenvalues --   -0.69362  -0.55400  -0.55184  -0.49063  -0.49037
 Alpha virt. eigenvalues --    0.14280   0.15389   0.20640   0.20988   0.54645
 Alpha virt. eigenvalues --    0.55781   0.57859   0.58048   0.63891   0.73458
 Alpha virt. eigenvalues --    0.79614   0.80023   0.81121   0.81466   0.81749

 Mulliken charges:
               1
     1  O   -0.496676
     2  H    0.248338
     3  H    0.248338
     4  O   -0.496676
     5  H    0.248338
     6  H    0.248338
 Sum of Mulliken charges =  -0.00000

 Dipole moment (field-independent basis, Debye):
    X=             -0.0000    Y=              0.0000    Z=             -0.0000  Tot=              0.0000
 Quadrupole moment (field-independent basis, Debye-Ang):
   XX=            -14.7094   YY=             -7.8291   ZZ=              4.8409
   XY=              0.0000   XZ=              0.0000   YZ=             -0.0000

 8\MP4DQ=-152.6407055\MP4SDQ=-152.6437825\CCSD=-152.6431869\CCSD(T)=-15
 Normal termination of Gaussian 16 at Sat Aug 27 10:45:48 2022.
