 Gaussian 16, Revision A.03,
 Gaussian 16:  ES64L-G16RevA.03 25-Dec-2016

 ------------------
 #p CCSD(T)/cc-pVTZ
 ------------------

 ------------
 H2O_H2O_4112
 ------------
 Symbolic Z-matrix:
 Charge =  0 Multiplicity = 1

                         Standard orientation:
 ---------------------------------------------------------------------
 Center     Atomic      Atomic             Coordinates (Angstroms)
 Number     Number       Type             X           Y           Z
 ---------------------------------------------------------------------
      1          8           0        0.040405   -2.966009    0.000000
      2          1           0       -0.759832   -3.536209    0.000000
      3          1           0        0.839309   -3.538073    0.000000
      4          8           0        0.040405    2.999371    0.000000
      5          1           0        0.203065    3.968416    0.000000
      6          1           0       -0.929017    2.838970    0.000000
 ---------------------------------------------------------------------

 SCF Done:  E(RHF) =  -152.106997064     A.U. after   10 cycles
 E2 =    -0.5259211818D+00 EUMP2 =    -0.15263291824626D+03
 CCSD(T)
 CCSD(T)= -0.15266014675D+03

 The electronic state is 1-A'.
 Alpha  occ. eigenvalues --  -20.55333 -20.55116  -1.32630  -1.32411  -0.70037
 Alpha  occ. eigenvalues --   -0.69813  -0.56058  -0.55839  -0.49738  -0.49520
 Alpha virt. eigenvalues --    0.14291   0.14543   0.20358   0.20597   0.54527
 Alpha virt. eigenvalues --    0.54766   0.57411   0.57631   0.68112   0.68437
 Alpha virt. eigenvalues --    0.79141   0.79356   0.80580   0.80816   0.82513

 Mulliken charges:
               1
     1  O   -0.506463
     2  H    0.252155
     3  H    0.254309
     4  O   -0.506269
     5  H    0.251456
     6  H    0.254813
 Sum of Mulliken charges =  -0.00000

 Dipole moment (field-independent basis, Debye):
    X=             -1.3871    Y=             -0.5837    Z=              0.0000  Tot=              1.5049
 Quadrupole moment (field-independent basis, Debye-Ang):
   XX=             -8.8309   YY=              9.3242   ZZ=            -14.7112
   XY=             -3.3015   XZ=              0.0000   YZ=              0.0000

 Normal termination of Gaussian 16 at Sat Aug 27 05:26:47 2022.
