 Gaussian 16, Revision A.03,
 Gaussian 16:  ES64L-G16RevA.03 25-Dec-2016

 ------------------
 #p CCSD(T)/cc-pVTZ
 ------------------

 ------------
 H2O_H2O_1680
 ------------
 Symbolic Z-matrix:
 Charge =  0 Multiplicity = 1

                         Standard orientation:
 ---------------------------------------------------------------------
 Center     Atomic      Atomic             Coordinates (Angstroms)
 Number     Number       Type             X           Y           Z
 ---------------------------------------------------------------------
      1          8           0        0.018361   -1.691151    0.000000
      2          1           0       -0.781742   -2.261537    0.000000
      3          1           0        0.817399   -2.263029    0.000000
      4          8           0        0.018361    1.697179    0.000000
      5          1           0        0.592659    2.494479    0.000000
      6          1           0       -0.922096    1.981864    0.000000
 ---------------------------------------------------------------------

 SCF Done:  E(RHF) =  -152.103835376     A.U. after   10 cycles
 E2 =    -0.5267846836D+00 EUMP2 =    -0.15263062005971D+03
 CCSD(T)
 CCSD(T)= -0.15265787671D+03

 The electronic state is 1-A'.
 Alpha  occ. eigenvalues --  -20.54304 -20.54180  -1.31597  -1.31445  -0.69021
 Alpha  occ. eigenvalues --   -0.68869  -0.55382  -0.54136  -0.48733  -0.48492
 Alpha virt. eigenvalues --    0.14201   0.16252   0.20551   0.21581   0.52929
 Alpha virt. eigenvalues --    0.57444   0.58090   0.58500   0.62351   0.76331
 Alpha virt. eigenvalues --    0.78724   0.78918   0.80070   0.81537   0.84540

 Mulliken charges:
               1
     1  O   -0.483146
     2  H    0.239483
     3  H    0.243914
     4  O   -0.482971
     5  H    0.238903
     6  H    0.243818
 Sum of Mulliken charges =  -0.00000

 Dipole moment (field-independent basis, Debye):
    X=             -0.6109    Y=             -0.1124    Z=              0.0000  Tot=              0.6211
 Quadrupole moment (field-independent basis, Debye-Ang):
   XX=             -8.0721   YY=              1.1353   ZZ=            -14.7093
   XY=             -0.5478   XZ=              0.0000   YZ=              0.0000

 Normal termination of Gaussian 16 at Sat Aug 27 06:11:08 2022.
