 Gaussian 16, Revision A.03,
 Gaussian 16:  ES64L-G16RevA.03 25-Dec-2016

 ------------------
 #p CCSD(T)/cc-pVTZ
 ------------------

 -----------
 H2O_H2O_524
 -----------
 Symbolic Z-matrix:
 Charge =  0 Multiplicity = 1

                         Standard orientation:
 ---------------------------------------------------------------------
 Center     Atomic      Atomic             Coordinates (Angstroms)
 Number     Number       Type             X           Y           Z
 ---------------------------------------------------------------------
      1          8           0        0.057376   -1.007763    0.000000
      2          1           0       -0.744824   -1.575196    0.000000
      3          1           0        0.854301   -1.582581    0.000000
      4          8           0        0.057376    1.121461    0.000000
      5          1           0       -0.510057    1.923661    0.000000
      6          1           0       -0.517442    0.324536    0.000000
 ---------------------------------------------------------------------

 SCF Done:  E(RHF) =  -152.067695504     A.U. after   11 cycles
 E2 =    -0.5357099405D+00 EUMP2 =    -0.15260340544500D+03
 CCSD(T)
 CCSD(T)= -0.15262961457D+03

 The electronic state is 1-A'.
 Alpha  occ. eigenvalues --  -20.57543 -20.49284  -1.37155  -1.27419  -0.74527
 Alpha  occ. eigenvalues --   -0.70807  -0.53453  -0.53136  -0.50987  -0.44355
 Alpha virt. eigenvalues --    0.12584   0.18542   0.19515   0.27986   0.48931
 Alpha virt. eigenvalues --    0.54548   0.62467   0.67163   0.71765   0.73955
 Alpha virt. eigenvalues --    0.76592   0.80712   0.83555   0.84989   0.87306

 Mulliken charges:
               1
     1  O   -0.389916
     2  H    0.214953
     3  H    0.244525
     4  O   -0.536402
     5  H    0.198545
     6  H    0.268296
 Sum of Mulliken charges =  -0.00000

 Dipole moment (field-independent basis, Debye):
    X=             -1.6985    Y=             -2.7565    Z=              0.0000  Tot=              3.2378
 Quadrupole moment (field-independent basis, Debye-Ang):
   XX=             -9.8261   YY=             -6.8827   ZZ=            -14.6522
   XY=             -2.4442   XZ=              0.0000   YZ=              0.0000

 Normal termination of Gaussian 16 at Fri Aug 26 17:19:31 2022.
