 Gaussian 16, Revision A.03,
 Gaussian 16:  ES64L-G16RevA.03 25-Dec-2016

 ------------------
 #p CCSD(T)/cc-pVTZ
 ------------------

 ------------
 H2O_H2O_2492
 ------------
 Symbolic Z-matrix:
 Charge =  0 Multiplicity = 1

                         Standard orientation:
 ---------------------------------------------------------------------
 Center     Atomic      Atomic             Coordinates (Angstroms)
 Number     Number       Type             X           Y           Z
 ---------------------------------------------------------------------
      1          8           0        0.051289   -2.085411    0.000000
      2          1           0       -0.749469   -2.654876    0.000000
      3          1           0        0.849669   -2.658207    0.000000
      4          8           0        0.051289    2.148903    0.000000
      5          1           0       -0.105281    3.118950    0.000000
      6          1           0       -0.815550    1.686198    0.000000
 ---------------------------------------------------------------------

 SCF Done:  E(RHF) =  -152.107128890     A.U. after   10 cycles
 E2 =    -0.5261050290D+00 EUMP2 =    -0.15263323391917D+03
 CCSD(T)
 CCSD(T)= -0.15266043996D+03

 The electronic state is 1-A'.
 Alpha  occ. eigenvalues --  -20.55454 -20.54559  -1.32740  -1.31847  -0.70151
 Alpha  occ. eigenvalues --   -0.69229  -0.56161  -0.55270  -0.49850  -0.48962
 Alpha virt. eigenvalues --    0.13487   0.15644   0.20134   0.21631   0.53977
 Alpha virt. eigenvalues --    0.54797   0.57335   0.58165   0.65696   0.73552
 Alpha virt. eigenvalues --    0.78988   0.79859   0.79942   0.82046   0.82927

 Mulliken charges:
               1
     1  O   -0.504351
     2  H    0.249192
     3  H    0.256083
     4  O   -0.505588
     5  H    0.246647
     6  H    0.258016
 Sum of Mulliken charges =  -0.00000

 Dipole moment (field-independent basis, Debye):
    X=             -1.7397    Y=             -1.1470    Z=              0.0000  Tot=              2.0837
 Quadrupole moment (field-independent basis, Debye-Ang):
   XX=             -9.4603   YY=              1.7266   ZZ=            -14.7131
   XY=             -3.1751   XZ=              0.0000   YZ=              0.0000

 Normal termination of Gaussian 16 at Sat Aug 27 10:51:23 2022.
