 Gaussian 16, Revision A.03,
 Gaussian 16:  ES64L-G16RevA.03 25-Dec-2016

 ------------------
 #p CCSD(T)/cc-pVTZ
 ------------------

 ------------
 H2O_H2O_3047
 ------------
 Symbolic Z-matrix:
 Charge =  0 Multiplicity = 1

                         Standard orientation:
 ---------------------------------------------------------------------
 Center     Atomic      Atomic             Coordinates (Angstroms)
 Number     Number       Type             X           Y           Z
 ---------------------------------------------------------------------
      1          8           0        0.056725   -2.358590    0.000000
      2          1           0       -0.744000   -2.928103    0.000000
      3          1           0        0.855138   -2.931340    0.000000
      4          8           0        0.056725    2.457678    0.000000
      5          1           0       -0.403400    3.325890    0.000000
      6          1           0       -0.615338    1.740854    0.000000
 ---------------------------------------------------------------------

 SCF Done:  E(RHF) =  -152.107901915     A.U. after   10 cycles
 E2 =    -0.5259373546D+00 EUMP2 =    -0.15263383926955D+03
 CCSD(T)
 CCSD(T)= -0.15266103780D+03

 The electronic state is 1-A'.
 Alpha  occ. eigenvalues --  -20.55809 -20.54752  -1.33102  -1.32051  -0.70509
 Alpha  occ. eigenvalues --   -0.69436  -0.56567  -0.55506  -0.50217  -0.49170
 Alpha virt. eigenvalues --    0.13391   0.15279   0.19968   0.21380   0.53991
 Alpha virt. eigenvalues --    0.54873   0.57026   0.57937   0.66726   0.70260
 Alpha virt. eigenvalues --    0.78673   0.79687   0.79735   0.80426   0.82797

 Mulliken charges:
               1
     1  O   -0.510281
     2  H    0.252823
     3  H    0.258017
     4  O   -0.510495
     5  H    0.249719
     6  H    0.260216
 Sum of Mulliken charges =  -0.00000

 Dipole moment (field-independent basis, Debye):
    X=             -1.9373    Y=             -1.7661    Z=              0.0000  Tot=              2.6215
 Quadrupole moment (field-independent basis, Debye-Ang):
   XX=             -9.8261   YY=              0.7618   ZZ=            -14.7141
   XY=             -4.7008   XZ=              0.0000   YZ=              0.0000

 Normal termination of Gaussian 16 at Fri Aug 26 18:51:03 2022.
