 Gaussian 16, Revision A.03,
 Gaussian 16:  ES64L-G16RevA.03 25-Dec-2016

 ------------------
 #p CCSD(T)/cc-pVTZ
 ------------------

 ------------
 H2O_H2O_4967
 ------------
 Symbolic Z-matrix:
 Charge =  0 Multiplicity = 1

                         Standard orientation:
 ---------------------------------------------------------------------
 Center     Atomic      Atomic             Coordinates (Angstroms)
 Number     Number       Type             X           Y           Z
 ---------------------------------------------------------------------
      1          8           0        0.051264   -3.401663    0.000000
      2          1           0       -0.749040   -3.971768    0.000000
      3          1           0        0.850101   -3.973821    0.000000
      4          8           0        0.051264    3.465237    0.000000
      5          1           0       -0.106081    4.435159    0.000000
      6          1           0       -0.815206    3.001841    0.000000
 ---------------------------------------------------------------------

 SCF Done:  E(RHF) =  -152.107350844     A.U. after   10 cycles
 E2 =    -0.5258791681D+00 EUMP2 =    -0.15263323001189D+03
 CCSD(T)
 CCSD(T)= -0.15266045165D+03

 The electronic state is 1-A'.
 Alpha  occ. eigenvalues --  -20.55546 -20.55237  -1.32845  -1.32535  -0.70251
 Alpha  occ. eigenvalues --   -0.69936  -0.56289  -0.55978  -0.49956  -0.49647
 Alpha virt. eigenvalues --    0.14126   0.14435   0.20197   0.20523   0.54312
 Alpha virt. eigenvalues --    0.54636   0.57225   0.57535   0.67905   0.68221
 Alpha virt. eigenvalues --    0.78924   0.79229   0.80356   0.80685   0.82280

 Mulliken charges:
               1
     1  O   -0.508541
     2  H    0.253380
     3  H    0.255161
     4  O   -0.508371
     5  H    0.252588
     6  H    0.255783
 Sum of Mulliken charges =  -0.00000

 Dipole moment (field-independent basis, Debye):
    X=             -1.7638    Y=             -1.1077    Z=              0.0000  Tot=              2.0828
 Quadrupole moment (field-independent basis, Debye-Ang):
   XX=             -9.4579   YY=              9.3547   ZZ=            -14.7118
   XY=             -5.4664   XZ=              0.0000   YZ=              0.0000

 99099\MP4DQ=-152.6423567\MP4SDQ=-152.645412\CCSD=-152.6448252\CCSD(T)=
 Normal termination of Gaussian 16 at Sat Aug 27 10:23:16 2022.
