 Gaussian 16, Revision A.03,
 Gaussian 16:  ES64L-G16RevA.03 25-Dec-2016

 ------------------
 #p CCSD(T)/cc-pVTZ
 ------------------

 ------------
 H2O_H2O_1234
 ------------
 Symbolic Z-matrix:
 Charge =  0 Multiplicity = 1

                         Standard orientation:
 ---------------------------------------------------------------------
 Center     Atomic      Atomic             Coordinates (Angstroms)
 Number     Number       Type             X           Y           Z
 ---------------------------------------------------------------------
      1          8           0        0.031748   -1.444707    0.000000
      2          1           0       -0.768894   -2.014336    0.000000
      3          1           0        0.830245   -2.017340    0.000000
      4          8           0        0.031748    1.463838    0.000000
      5          1           0        0.380989    2.382281    0.000000
      6          1           0       -0.950315    1.496344    0.000000
 ---------------------------------------------------------------------

 SCF Done:  E(RHF) =  -152.101810023     A.U. after   11 cycles
 E2 =    -0.5276087143D+00 EUMP2 =    -0.15262941873751D+03
 CCSD(T)
 CCSD(T)= -0.15265668525D+03

 The electronic state is 1-A'.
 Alpha  occ. eigenvalues --  -20.54186 -20.53684  -1.31552  -1.30932  -0.68971
 Alpha  occ. eigenvalues --   -0.68373  -0.55829  -0.53003  -0.48724  -0.47927
 Alpha virt. eigenvalues --    0.14170   0.16835   0.20422   0.22278   0.52607
 Alpha virt. eigenvalues --    0.58212   0.58430   0.59345   0.67472   0.76487
 Alpha virt. eigenvalues --    0.77240   0.77927   0.80213   0.82873   0.85843

 Mulliken charges:
               1
     1  O   -0.475782
     2  H    0.232803
     3  H    0.243554
     4  O   -0.470198
     5  H    0.228157
     6  H    0.241467
 Sum of Mulliken charges =  -0.00000

 Dipole moment (field-independent basis, Debye):
    X=             -1.0299    Y=             -0.3642    Z=              0.0000  Tot=              1.0924
 Quadrupole moment (field-independent basis, Debye-Ang):
   XX=             -8.5220   YY=             -1.1811   ZZ=            -14.7140
   XY=             -0.8286   XZ=              0.0000   YZ=              0.0000

 Normal termination of Gaussian 16 at Sat Aug 27 03:13:42 2022.
