 Gaussian 16, Revision A.03,
 Gaussian 16:  ES64L-G16RevA.03 25-Dec-2016

 ------------------
 #p CCSD(T)/cc-pVTZ
 ------------------

 ------------
 H2O_H2O_1502
 ------------
 Symbolic Z-matrix:
 Charge =  0 Multiplicity = 1

                         Standard orientation:
 ---------------------------------------------------------------------
 Center     Atomic      Atomic             Coordinates (Angstroms)
 Number     Number       Type             X           Y           Z
 ---------------------------------------------------------------------
      1          8           0        0.007455   -1.600826    0.000000
      2          1           0       -0.792345   -2.171638    0.000000
      3          1           0        0.806797   -2.172278    0.000000
      4          8           0        0.007455    1.601797    0.000000
      5          1           0        0.725907    2.272120    0.000000
      6          1           0       -0.859639    2.064026    0.000000
 ---------------------------------------------------------------------

 SCF Done:  E(RHF) =  -152.102694196     A.U. after   10 cycles
 E2 =    -0.5270391150D+00 EUMP2 =    -0.15262973331054D+03
 CCSD(T)
 CCSD(T)= -0.15265701207D+03

 The electronic state is 1-A'.
 Alpha  occ. eigenvalues --  -20.54050 -20.54028  -1.31396  -1.31261  -0.68814
 Alpha  occ. eigenvalues --   -0.68706  -0.55440  -0.53591  -0.48567  -0.48258
 Alpha virt. eigenvalues --    0.14329   0.16461   0.20578   0.21678   0.52353
 Alpha virt. eigenvalues --    0.58181   0.58547   0.58939   0.63282   0.76140
 Alpha virt. eigenvalues --    0.78323   0.78370   0.79614   0.82111   0.85886

 Mulliken charges:
               1
     1  O   -0.477441
     2  H    0.237682
     3  H    0.239797
     4  O   -0.477292
     5  H    0.237631
     6  H    0.239624
 Sum of Mulliken charges =  -0.00000

 Dipole moment (field-independent basis, Debye):
    X=             -0.2463    Y=             -0.0182    Z=              0.0000  Tot=              0.2470
 Quadrupole moment (field-independent basis, Debye-Ang):
   XX=             -7.9137   YY=              0.4498   ZZ=            -14.7091
   XY=             -0.1883   XZ=              0.0000   YZ=              0.0000

 63423\MP4DQ=-152.6386929\MP4SDQ=-152.6418236\CCSD=-152.641207\CCSD(T)=
 Normal termination of Gaussian 16 at Sat Aug 27 05:08:50 2022.
