 Gaussian 16, Revision A.03,
 Gaussian 16:  ES64L-G16RevA.03 25-Dec-2016

 ------------------
 #p CCSD(T)/cc-pVTZ
 ------------------

 ----------
 H2O_H2O_43
 ----------
 Symbolic Z-matrix:
 Charge =  0 Multiplicity = 1

                         Standard orientation:
 ---------------------------------------------------------------------
 Center     Atomic      Atomic             Coordinates (Angstroms)
 Number     Number       Type             X           Y           Z
 ---------------------------------------------------------------------
      1          8           0        0.052962   -0.778910    0.000000
      2          1           0       -0.749785   -1.345571    0.000000
      3          1           0        0.849333   -1.354496    0.000000
      4          8           0        0.052962    0.848834    0.000000
      5          1           0       -0.163366    1.807327    0.000000
      6          1           0       -0.783568    0.333351    0.000000
 ---------------------------------------------------------------------

 SCF Done:  E(RHF) =  -151.907958760     A.U. after   12 cycles
 E2 =    -0.5518681046D+00 EUMP2 =    -0.15245982686472D+03
 CCSD(T)
 CCSD(T)= -0.15248441933D+03

 The electronic state is 1-A'.
 Alpha  occ. eigenvalues --  -20.54458 -20.50120  -1.40983  -1.26088  -0.77439
 Alpha  occ. eigenvalues --   -0.72145  -0.55139  -0.54419  -0.43122  -0.39052
 Alpha virt. eigenvalues --    0.13447   0.18761   0.20033   0.24725   0.50754
 Alpha virt. eigenvalues --    0.55317   0.60505   0.67517   0.73225   0.76687
 Alpha virt. eigenvalues --    0.78697   0.81061   0.83977   0.84464   0.89088

 Mulliken charges:
               1
     1  O   -0.293565
     2  H    0.140816
     3  H    0.193340
     4  O   -0.385806
     5  H    0.096363
     6  H    0.248853
 Sum of Mulliken charges =  -0.00000

 Dipole moment (field-independent basis, Debye):
    X=             -1.3514    Y=             -1.6666    Z=              0.0000  Tot=              2.1456
 Quadrupole moment (field-independent basis, Debye-Ang):
   XX=             -9.7323   YY=             -9.1622   ZZ=            -14.5712
   XY=             -1.0231   XZ=              0.0000   YZ=              0.0000

 Normal termination of Gaussian 16 at Fri Aug 26 12:12:23 2022.
