 Gaussian 16, Revision A.03,
 Gaussian 16:  ES64L-G16RevA.03 25-Dec-2016

 ------------------
 #p CCSD(T)/cc-pVTZ
 ------------------

 -----------
 H2O_H2O_828
 -----------
 Symbolic Z-matrix:
 Charge =  0 Multiplicity = 1

                         Standard orientation:
 ---------------------------------------------------------------------
 Center     Atomic      Atomic             Coordinates (Angstroms)
 Number     Number       Type             X           Y           Z
 ---------------------------------------------------------------------
      1          8           0        0.011143   -1.241181    0.000000
      2          1           0       -0.788869   -1.811696    0.000000
      3          1           0        0.810273   -1.812930    0.000000
      4          8           0        0.011143    1.243359    0.000000
      5          1           0        0.684481    1.958985    0.000000
      6          1           0       -0.884175    1.648219    0.000000
 ---------------------------------------------------------------------

 SCF Done:  E(RHF) =  -152.091815578     A.U. after   11 cycles
 E2 =    -0.5293037332D+00 EUMP2 =    -0.15262111931109D+03
 CCSD(T)
 CCSD(T)= -0.15264841321D+03

 The electronic state is 1-A'.
 Alpha  occ. eigenvalues --  -20.53087 -20.53024  -1.31042  -1.30106  -0.68317
 Alpha  occ. eigenvalues --   -0.67688  -0.57059  -0.49957  -0.48339  -0.46858
 Alpha virt. eigenvalues --    0.14493   0.17510   0.20565   0.22377   0.50570
 Alpha virt. eigenvalues --    0.58814   0.58899   0.63114   0.72810   0.76662
 Alpha virt. eigenvalues --    0.76955   0.79597   0.83994   0.84958   0.86489

 Mulliken charges:
               1
     1  O   -0.459872
     2  H    0.227083
     3  H    0.232344
     4  O   -0.456807
     5  H    0.225084
     6  H    0.232168
 Sum of Mulliken charges =  -0.00000

 Dipole moment (field-independent basis, Debye):
    X=             -0.3487    Y=             -0.0422    Z=              0.0000  Tot=              0.3512
 Quadrupole moment (field-independent basis, Debye-Ang):
   XX=             -8.0602   YY=             -2.9397   ZZ=            -14.7255
   XY=             -0.1620   XZ=              0.0000   YZ=              0.0000

 Normal termination of Gaussian 16 at Fri Aug 26 20:22:43 2022.
