 Gaussian 16, Revision A.03,
 Gaussian 16:  ES64L-G16RevA.03 25-Dec-2016

 ------------------
 #p CCSD(T)/cc-pVTZ
 ------------------

 ------------
 H2O_H2O_4196
 ------------
 Symbolic Z-matrix:
 Charge =  0 Multiplicity = 1

                         Standard orientation:
 ---------------------------------------------------------------------
 Center     Atomic      Atomic             Coordinates (Angstroms)
 Number     Number       Type             X           Y           Z
 ---------------------------------------------------------------------
      1          8           0        0.056089   -2.974181    0.000000
      2          1           0       -0.744393   -3.544036    0.000000
      3          1           0        0.854747   -3.546589    0.000000
      4          8           0        0.056089    3.065944    0.000000
      5          1           0       -0.346649    3.962218    0.000000
      6          1           0       -0.661131    2.394303    0.000000
 ---------------------------------------------------------------------

 SCF Done:  E(RHF) =  -152.107554678     A.U. after   10 cycles
 E2 =    -0.5258724160D+00 EUMP2 =    -0.15263342709442D+03
 CCSD(T)
 CCSD(T)= -0.15266064363D+03

 The electronic state is 1-A'.
 Alpha  occ. eigenvalues --  -20.55679 -20.55095  -1.32979  -1.32393  -0.70385
 Alpha  occ. eigenvalues --   -0.69791  -0.56433  -0.55843  -0.50091  -0.49508
 Alpha virt. eigenvalues --    0.13970   0.14618   0.20087   0.20725   0.54172
 Alpha virt. eigenvalues --    0.54780   0.57106   0.57687   0.67668   0.68424
 Alpha virt. eigenvalues --    0.78790   0.79362   0.80216   0.80794   0.82217

 Mulliken charges:
               1
     1  O   -0.509770
     2  H    0.253520
     3  H    0.256256
     4  O   -0.509384
     5  H    0.251939
     6  H    0.257439
 Sum of Mulliken charges =  -0.00000

 Dipole moment (field-independent basis, Debye):
    X=             -1.9267    Y=             -1.6067    Z=              0.0000  Tot=              2.5087
 Quadrupole moment (field-independent basis, Debye-Ang):
   XX=             -9.7839   YY=              4.2748   ZZ=            -14.7125
   XY=             -5.6864   XZ=              0.0000   YZ=              0.0000

 Normal termination of Gaussian 16 at Sat Aug 27 05:55:50 2022.
