 Gaussian 16, Revision A.03,
 Gaussian 16:  ES64L-G16RevA.03 25-Dec-2016

 ------------------
 #p CCSD(T)/cc-pVTZ
 ------------------

 ------------
 H2O_H2O_1365
 ------------
 Symbolic Z-matrix:
 Charge =  0 Multiplicity = 1

                         Standard orientation:
 ---------------------------------------------------------------------
 Center     Atomic      Atomic             Coordinates (Angstroms)
 Number     Number       Type             X           Y           Z
 ---------------------------------------------------------------------
      1          8           0        0.047556   -1.494144    0.000000
      2          1           0       -0.753549   -2.063122    0.000000
      3          1           0        0.845587   -2.067425    0.000000
      4          8           0        0.047556    1.544653    0.000000
      5          1           0        0.019538    2.526855    0.000000
      6          1           0       -0.872473    1.199613    0.000000
 ---------------------------------------------------------------------

 SCF Done:  E(RHF) =  -152.105015370     A.U. after   10 cycles
 E2 =    -0.5272939821D+00 EUMP2 =    -0.15263230935264D+03
 CCSD(T)
 CCSD(T)= -0.15265950679D+03

 The electronic state is 1-A'.
 Alpha  occ. eigenvalues --  -20.55069 -20.53704  -1.32380  -1.30955  -0.69805
 Alpha  occ. eigenvalues --   -0.68370  -0.55948  -0.53985  -0.49501  -0.48046
 Alpha virt. eigenvalues --    0.13745   0.16817   0.20112   0.22926   0.54017
 Alpha virt. eigenvalues --    0.56390   0.57583   0.58376   0.66683   0.75974
 Alpha virt. eigenvalues --    0.77081   0.77093   0.79847   0.82241   0.85180

 Mulliken charges:
               1
     1  O   -0.483163
     2  H    0.236923
     3  H    0.250476
     4  O   -0.486133
     5  H    0.230838
     6  H    0.251058
 Sum of Mulliken charges =  -0.00000

 Dipole moment (field-independent basis, Debye):
    X=             -1.5525    Y=             -0.9664    Z=              0.0000  Tot=              1.8287
 Quadrupole moment (field-independent basis, Debye-Ang):
   XX=             -9.2654   YY=             -1.4869   ZZ=            -14.7173
   XY=             -1.8052   XZ=              0.0000   YZ=              0.0000

 Normal termination of Gaussian 16 at Sat Aug 27 04:16:03 2022.
