 Gaussian 16, Revision A.03,
 Gaussian 16:  ES64L-G16RevA.03 25-Dec-2016

 ------------------
 #p CCSD(T)/cc-pVTZ
 ------------------

 -----------
 H2O_H2O_545
 -----------
 Symbolic Z-matrix:
 Charge =  0 Multiplicity = 1

                         Standard orientation:
 ---------------------------------------------------------------------
 Center     Atomic      Atomic             Coordinates (Angstroms)
 Number     Number       Type             X           Y           Z
 ---------------------------------------------------------------------
      1          8           0        0.055353   -1.037091    0.000000
      2          1           0       -0.746724   -1.604699    0.000000
      3          1           0        0.852403   -1.611736    0.000000
      4          8           0        0.055353    1.121268    0.000000
      5          1           0       -0.285322    2.042922    0.000000
      6          1           0       -0.706003    0.500105    0.000000
 ---------------------------------------------------------------------

 SCF Done:  E(RHF) =  -152.076694686     A.U. after   11 cycles
 E2 =    -0.5338389031D+00 EUMP2 =    -0.15261053358918D+03
 CCSD(T)
 CCSD(T)= -0.15263727277D+03

 The electronic state is 1-A'.
 Alpha  occ. eigenvalues --  -20.55672 -20.51218  -1.34637  -1.28630  -0.72059
 Alpha  occ. eigenvalues --   -0.69053  -0.54490  -0.51391  -0.51387  -0.45588
 Alpha virt. eigenvalues --    0.13332   0.18542   0.19504   0.25543   0.50933
 Alpha virt. eigenvalues --    0.56108   0.61080   0.63443   0.71998   0.74490
 Alpha virt. eigenvalues --    0.78586   0.82220   0.83865   0.84787   0.87553

 Mulliken charges:
               1
     1  O   -0.424400
     2  H    0.212650
     3  H    0.239368
     4  O   -0.476918
     5  H    0.194347
     6  H    0.254952
 Sum of Mulliken charges =  -0.00000

 Dipole moment (field-independent basis, Debye):
    X=             -1.6489    Y=             -1.8236    Z=              0.0000  Tot=              2.4585
 Quadrupole moment (field-independent basis, Debye-Ang):
   XX=             -9.7618   YY=             -5.8027   ZZ=            -14.6938
   XY=             -1.8831   XZ=              0.0000   YZ=              0.0000

 Normal termination of Gaussian 16 at Fri Aug 26 17:30:44 2022.
