 Gaussian 16, Revision A.03,
 Gaussian 16:  ES64L-G16RevA.03 25-Dec-2016

 ------------------
 #p CCSD(T)/cc-pVTZ
 ------------------

 ------------
 H2O_H2O_4371
 ------------
 Symbolic Z-matrix:
 Charge =  0 Multiplicity = 1

                         Standard orientation:
 ---------------------------------------------------------------------
 Center     Atomic      Atomic             Coordinates (Angstroms)
 Number     Number       Type             X           Y           Z
 ---------------------------------------------------------------------
      1          8           0        0.056087   -3.067249    0.000000
      2          1           0       -0.744368   -3.637142    0.000000
      3          1           0        0.854772   -3.639619    0.000000
      4          8           0        0.056087    3.159017    0.000000
      5          1           0       -0.346694    4.055273    0.000000
      6          1           0       -0.661101    2.487342    0.000000
 ---------------------------------------------------------------------

 SCF Done:  E(RHF) =  -152.107544820     A.U. after   10 cycles
 E2 =    -0.5258696248D+00 EUMP2 =    -0.15263341444480D+03
 CCSD(T)
 CCSD(T)= -0.15266063146D+03

 The electronic state is 1-A'.
 Alpha  occ. eigenvalues --  -20.55676 -20.55129  -1.32976  -1.32428  -0.70382
 Alpha  occ. eigenvalues --   -0.69826  -0.56429  -0.55877  -0.50088  -0.49542
 Alpha virt. eigenvalues --    0.13991   0.14572   0.20091   0.20681   0.54177
 Alpha virt. eigenvalues --    0.54746   0.57109   0.57655   0.67710   0.68352
 Alpha virt. eigenvalues --    0.78792   0.79329   0.80220   0.80784   0.82176

 Mulliken charges:
               1
     1  O   -0.509708
     2  H    0.253605
     3  H    0.256106
     4  O   -0.509366
     5  H    0.252163
     6  H    0.257200
 Sum of Mulliken charges =  -0.00000

 Dipole moment (field-independent basis, Debye):
    X=             -1.9275    Y=             -1.6047    Z=              0.0000  Tot=              2.5081
 Quadrupole moment (field-independent basis, Debye-Ang):
   XX=             -9.7842   YY=              4.7194   ZZ=            -14.7124
   XY=             -5.8646   XZ=              0.0000   YZ=              0.0000

 Normal termination of Gaussian 16 at Sat Aug 27 06:56:10 2022.
