 Gaussian 16, Revision A.03,
 Gaussian 16:  ES64L-G16RevA.03 25-Dec-2016

 ------------------
 #p CCSD(T)/cc-pVTZ
 ------------------

 -----------
 H2O_H2O_663
 -----------
 Symbolic Z-matrix:
 Charge =  0 Multiplicity = 1

                         Standard orientation:
 ---------------------------------------------------------------------
 Center     Atomic      Atomic             Coordinates (Angstroms)
 Number     Number       Type             X           Y           Z
 ---------------------------------------------------------------------
      1          8           0        0.043002   -1.128306    0.000000
      2          1           0       -0.758404   -1.696860    0.000000
      3          1           0        0.840730   -1.702011    0.000000
      4          8           0        0.043002    1.166941    0.000000
      5          1           0        0.143945    2.144344    0.000000
      6          1           0       -0.914310    0.945447    0.000000
 ---------------------------------------------------------------------

 SCF Done:  E(RHF) =  -152.087813955     A.U. after   11 cycles
 E2 =    -0.5308405452D+00 EUMP2 =    -0.15261865449988D+03
 CCSD(T)
 CCSD(T)= -0.15264579358D+03

 The electronic state is 1-A'.
 Alpha  occ. eigenvalues --  -20.53958 -20.52585  -1.32142  -1.29704  -0.69434
 Alpha  occ. eigenvalues --   -0.67784  -0.57103  -0.50049  -0.49333  -0.46524
 Alpha virt. eigenvalues --    0.14077   0.17697   0.20177   0.23463   0.53157
 Alpha virt. eigenvalues --    0.57805   0.58241   0.61711   0.71032   0.75656
 Alpha virt. eigenvalues --    0.78525   0.80937   0.83402   0.85531   0.87677

 Mulliken charges:
               1
     1  O   -0.461254
     2  H    0.222102
     3  H    0.240928
     4  O   -0.444324
     5  H    0.199709
     6  H    0.242839
 Sum of Mulliken charges =  -0.00000

 Dipole moment (field-independent basis, Debye):
    X=             -1.3084    Y=             -0.7663    Z=              0.0000  Tot=              1.5163
 Quadrupole moment (field-independent basis, Debye-Ang):
   XX=             -9.1014   YY=             -4.2337   ZZ=            -14.7265
   XY=             -0.9666   XZ=              0.0000   YZ=              0.0000

 Normal termination of Gaussian 16 at Fri Aug 26 18:48:38 2022.
