 Gaussian 16, Revision A.03,
 Gaussian 16:  ES64L-G16RevA.03 25-Dec-2016

 ------------------
 #p CCSD(T)/cc-pVTZ
 ------------------

 ------------
 H2O_H2O_3024
 ------------
 Symbolic Z-matrix:
 Charge =  0 Multiplicity = 1

                         Standard orientation:
 ---------------------------------------------------------------------
 Center     Atomic      Atomic             Coordinates (Angstroms)
 Number     Number       Type             X           Y           Z
 ---------------------------------------------------------------------
      1          8           0        0.057230   -2.337201    0.000000
      2          1           0       -0.743512   -2.906690    0.000000
      3          1           0        0.855627   -2.909973    0.000000
      4          8           0        0.057230    2.451192    0.000000
      5          1           0       -0.512259    3.251935    0.000000
      6          1           0       -0.515542    1.652795    0.000000
 ---------------------------------------------------------------------

 SCF Done:  E(RHF) =  -152.108229856     A.U. after   10 cycles
 E2 =    -0.5259278099D+00 EUMP2 =    -0.15263415766601D+03
 CCSD(T)
 CCSD(T)= -0.15266134674D+03

 The electronic state is 1-A'.
 Alpha  occ. eigenvalues --  -20.55955 -20.54717  -1.33247  -1.32020  -0.70652
 Alpha  occ. eigenvalues --   -0.69404  -0.56724  -0.55482  -0.50364  -0.49141
 Alpha virt. eigenvalues --    0.13222   0.15354   0.19883   0.21535   0.53883
 Alpha virt. eigenvalues --    0.54868   0.56910   0.57991   0.66689   0.70185
 Alpha virt. eigenvalues --    0.78531   0.79529   0.79711   0.80186   0.82817

 Mulliken charges:
               1
     1  O   -0.511430
     2  H    0.253573
     3  H    0.258665
     4  O   -0.512018
     5  H    0.250018
     6  H    0.261192
 Sum of Mulliken charges =  -0.00000

 Dipole moment (field-independent basis, Debye):
    X=             -1.9543    Y=             -2.0353    Z=              0.0000  Tot=              2.8217
 Quadrupole moment (field-independent basis, Debye-Ang):
   XX=             -9.8623   YY=             -0.5295   ZZ=            -14.7150
   XY=             -4.9821   XZ=              0.0000   YZ=              0.0000

 Normal termination of Gaussian 16 at Fri Aug 26 18:37:33 2022.
