 Gaussian 16, Revision A.03,
 Gaussian 16:  ES64L-G16RevA.03 25-Dec-2016

 ------------------
 #p CCSD(T)/cc-pVTZ
 ------------------

 -----------
 H2O_H2O_685
 -----------
 Symbolic Z-matrix:
 Charge =  0 Multiplicity = 1

                         Standard orientation:
 ---------------------------------------------------------------------
 Center     Atomic      Atomic             Coordinates (Angstroms)
 Number     Number       Type             X           Y           Z
 ---------------------------------------------------------------------
      1          8           0        0.034799   -1.149864    0.000000
      2          1           0       -0.766241   -1.718934    0.000000
      3          1           0        0.832895   -1.723054    0.000000
      4          8           0        0.034799    1.173289    0.000000
      5          1           0        0.323879    2.112405    0.000000
      6          1           0       -0.947311    1.142180    0.000000
 ---------------------------------------------------------------------

 SCF Done:  E(RHF) =  -152.087647096     A.U. after   11 cycles
 E2 =    -0.5305096683D+00 EUMP2 =    -0.15261815676479D+03
 CCSD(T)
 CCSD(T)= -0.15264534442D+03

 The electronic state is 1-A'.
 Alpha  occ. eigenvalues --  -20.53476 -20.52706  -1.31634  -1.29803  -0.68884
 Alpha  occ. eigenvalues --   -0.67624  -0.57472  -0.49502  -0.48894  -0.46557
 Alpha virt. eigenvalues --    0.14291   0.17606   0.20353   0.23040   0.52611
 Alpha virt. eigenvalues --    0.58221   0.58366   0.62354   0.70657   0.76187
 Alpha virt. eigenvalues --    0.77640   0.80588   0.83715   0.86021   0.87411

 Mulliken charges:
               1
     1  O   -0.462325
     2  H    0.222253
     3  H    0.239063
     4  O   -0.441809
     5  H    0.203945
     6  H    0.238873
 Sum of Mulliken charges =   0.00000

 Dipole moment (field-independent basis, Debye):
    X=             -1.0640    Y=             -0.4616    Z=              0.0000  Tot=              1.1598
 Quadrupole moment (field-independent basis, Debye-Ang):
   XX=             -8.7321   YY=             -3.9213   ZZ=            -14.7292
   XY=             -0.6402   XZ=              0.0000   YZ=              0.0000

 34378\MP4DQ=-152.6264511\MP4SDQ=-152.629754\CCSD=-152.6290746\CCSD(T)=
 Normal termination of Gaussian 16 at Fri Aug 26 19:04:14 2022.
