 Gaussian 16, Revision A.03,
 Gaussian 16:  ES64L-G16RevA.03 25-Dec-2016

 ------------------
 #p CCSD(T)/cc-pVTZ
 ------------------

 ------------
 H2O_H2O_4021
 ------------
 Symbolic Z-matrix:
 Charge =  0 Multiplicity = 1

                         Standard orientation:
 ---------------------------------------------------------------------
 Center     Atomic      Atomic             Coordinates (Angstroms)
 Number     Number       Type             X           Y           Z
 ---------------------------------------------------------------------
      1          8           0        0.056091   -2.881112    0.000000
      2          1           0       -0.744419   -3.450926    0.000000
      3          1           0        0.854720   -3.453561    0.000000
      4          8           0        0.056091    2.972870    0.000000
      5          1           0       -0.346602    3.869164    0.000000
      6          1           0       -0.661163    2.301265    0.000000
 ---------------------------------------------------------------------

 SCF Done:  E(RHF) =  -152.107567049     A.U. after   10 cycles
 E2 =    -0.5258761160D+00 EUMP2 =    -0.15263344316468D+03
 CCSD(T)
 CCSD(T)= -0.15266065905D+03

 The electronic state is 1-A'.
 Alpha  occ. eigenvalues --  -20.55683 -20.55057  -1.32982  -1.32356  -0.70388
 Alpha  occ. eigenvalues --   -0.69753  -0.56437  -0.55806  -0.50095  -0.49471
 Alpha virt. eigenvalues --    0.13939   0.14675   0.20082   0.20776   0.54166
 Alpha virt. eigenvalues --    0.54815   0.57103   0.57720   0.67603   0.68525
 Alpha virt. eigenvalues --    0.78786   0.79398   0.80210   0.80781   0.82298

 Mulliken charges:
               1
     1  O   -0.509843
     2  H    0.253428
     3  H    0.256428
     4  O   -0.509407
     5  H    0.251688
     6  H    0.257707
 Sum of Mulliken charges =  -0.00000

 Dipole moment (field-independent basis, Debye):
    X=             -1.9257    Y=             -1.6090    Z=              0.0000  Tot=              2.5094
 Quadrupole moment (field-independent basis, Debye-Ang):
   XX=             -9.7837   YY=              3.8299   ZZ=            -14.7125
   XY=             -5.5083   XZ=              0.0000   YZ=              0.0000

 Normal termination of Gaussian 16 at Sat Aug 27 04:55:41 2022.
