 Gaussian 16, Revision A.03,
 Gaussian 16:  ES64L-G16RevA.03 25-Dec-2016

 ------------------
 #p CCSD(T)/cc-pVTZ
 ------------------

 ------------
 H2O_H2O_1059
 ------------
 Symbolic Z-matrix:
 Charge =  0 Multiplicity = 1

                         Standard orientation:
 ---------------------------------------------------------------------
 Center     Atomic      Atomic             Coordinates (Angstroms)
 Number     Number       Type             X           Y           Z
 ---------------------------------------------------------------------
      1          8           0        0.031750   -1.351640    0.000000
      2          1           0       -0.768966   -1.921166    0.000000
      3          1           0        0.830173   -1.924375    0.000000
      4          8           0        0.031750    1.370763    0.000000
      5          1           0        0.381108    2.289161    0.000000
      6          1           0       -0.950310    1.403395    0.000000
 ---------------------------------------------------------------------

 SCF Done:  E(RHF) =  -152.099538213     A.U. after   11 cycles
 E2 =    -0.5281767197D+00 EUMP2 =    -0.15262771493253D+03
 CCSD(T)
 CCSD(T)= -0.15265498794D+03

 The electronic state is 1-A'.
 Alpha  occ. eigenvalues --  -20.53978 -20.53435  -1.31455  -1.30664  -0.68851
 Alpha  occ. eigenvalues --   -0.68151  -0.56162  -0.52176  -0.48666  -0.47594
 Alpha virt. eigenvalues --    0.14224   0.17066   0.20420   0.22488   0.52423
 Alpha virt. eigenvalues --    0.58309   0.58602   0.60346   0.69504   0.76674
 Alpha virt. eigenvalues --    0.76711   0.77716   0.81843   0.83330   0.85948

 Mulliken charges:
               1
     1  O   -0.472125
     2  H    0.230006
     3  H    0.242128
     4  O   -0.462772
     5  H    0.223213
     6  H    0.239550
 Sum of Mulliken charges =  -0.00000

 Dipole moment (field-independent basis, Debye):
    X=             -1.0153    Y=             -0.3671    Z=              0.0000  Tot=              1.0797
 Quadrupole moment (field-independent basis, Debye-Ang):
   XX=             -8.5451   YY=             -1.9882   ZZ=            -14.7175
   XY=             -0.7349   XZ=              0.0000   YZ=              0.0000

 Normal termination of Gaussian 16 at Sat Aug 27 01:45:04 2022.
