 Gaussian 16, Revision A.03,
 Gaussian 16:  ES64L-G16RevA.03 25-Dec-2016

 ------------------
 #p CCSD(T)/cc-pVTZ
 ------------------

 ------------
 H2O_H2O_1654
 ------------
 Symbolic Z-matrix:
 Charge =  0 Multiplicity = 1

                         Standard orientation:
 ---------------------------------------------------------------------
 Center     Atomic      Atomic             Coordinates (Angstroms)
 Number     Number       Type             X           Y           Z
 ---------------------------------------------------------------------
      1          8           0        0.014783   -1.679027    0.000000
      2          1           0       -0.785220   -2.249554    0.000000
      3          1           0        0.813922   -2.250764    0.000000
      4          8           0        0.014783    1.682897    0.000000
      5          1           0        0.639865    2.441039    0.000000
      6          1           0       -0.905102    2.028319    0.000000
 ---------------------------------------------------------------------

 SCF Done:  E(RHF) =  -152.103624423     A.U. after   10 cycles
 E2 =    -0.5268188984D+00 EUMP2 =    -0.15263044332099D+03
 CCSD(T)
 CCSD(T)= -0.15265770479D+03

 The electronic state is 1-A'.
 Alpha  occ. eigenvalues --  -20.54243 -20.54163  -1.31543  -1.31423  -0.68966
 Alpha  occ. eigenvalues --   -0.68852  -0.55377  -0.54045  -0.48689  -0.48457
 Alpha virt. eigenvalues --    0.14238   0.16276   0.20567   0.21577   0.52870
 Alpha virt. eigenvalues --    0.57769   0.58105   0.58516   0.62262   0.76236
 Alpha virt. eigenvalues --    0.78686   0.78866   0.79991   0.81624   0.84726

 Mulliken charges:
               1
     1  O   -0.482091
     2  H    0.239305
     3  H    0.242949
     4  O   -0.481928
     5  H    0.238929
     6  H    0.242837
 Sum of Mulliken charges =  -0.00000

 Dipole moment (field-independent basis, Debye):
    X=             -0.4915    Y=             -0.0723    Z=              0.0000  Tot=              0.4967
 Quadrupole moment (field-independent basis, Debye-Ang):
   XX=             -8.0012   YY=              1.0763   ZZ=            -14.7091
   XY=             -0.4249   XZ=              0.0000   YZ=              0.0000

 Normal termination of Gaussian 16 at Sat Aug 27 06:01:21 2022.
