 Gaussian 16, Revision A.03,
 Gaussian 16:  ES64L-G16RevA.03 25-Dec-2016

 ------------------
 #p CCSD(T)/cc-pVTZ
 ------------------

 ------------
 H2O_H2O_4322
 ------------
 Symbolic Z-matrix:
 Charge =  0 Multiplicity = 1

                         Standard orientation:
 ---------------------------------------------------------------------
 Center     Atomic      Atomic             Coordinates (Angstroms)
 Number     Number       Type             X           Y           Z
 ---------------------------------------------------------------------
      1          8           0        0.056703   -3.036655    0.000000
      2          1           0       -0.743769   -3.606524    0.000000
      3          1           0        0.855371   -3.609050    0.000000
      4          8           0        0.056703    3.135793    0.000000
      5          1           0       -0.403808    4.003801    0.000000
      6          1           0       -0.615042    2.418670    0.000000
 ---------------------------------------------------------------------

 SCF Done:  E(RHF) =  -152.107610188     A.U. after   10 cycles
 E2 =    -0.5258647677D+00 EUMP2 =    -0.15263347495611D+03
 CCSD(T)
 CCSD(T)= -0.15266069052D+03

 The electronic state is 1-A'.
 Alpha  occ. eigenvalues --  -20.55716 -20.55115  -1.33016  -1.32414  -0.70422
 Alpha  occ. eigenvalues --   -0.69812  -0.56473  -0.55866  -0.50129  -0.49529
 Alpha virt. eigenvalues --    0.13949   0.14595   0.20059   0.20710   0.54136
 Alpha virt. eigenvalues --    0.54758   0.57073   0.57672   0.67647   0.68374
 Alpha virt. eigenvalues --    0.78752   0.79341   0.80177   0.80783   0.82158

 Mulliken charges:
               1
     1  O   -0.510096
     2  H    0.253772
     3  H    0.256329
     4  O   -0.509713
     5  H    0.252185
     6  H    0.257523
 Sum of Mulliken charges =  -0.00000

 Dipole moment (field-independent basis, Debye):
    X=             -1.9484    Y=             -1.7344    Z=              0.0000  Tot=              2.6085
 Quadrupole moment (field-independent basis, Debye-Ang):
   XX=             -9.8280   YY=              3.8270   ZZ=            -14.7126
   XY=             -6.0083   XZ=              0.0000   YZ=              0.0000

 Normal termination of Gaussian 16 at Sat Aug 27 06:39:49 2022.
