 Gaussian 16, Revision A.03,
 Gaussian 16:  ES64L-G16RevA.03 25-Dec-2016

 ------------------
 #p CCSD(T)/cc-pVTZ
 ------------------

 ------------
 H2O_H2O_3840
 ------------
 Symbolic Z-matrix:
 Charge =  0 Multiplicity = 1

                         Standard orientation:
 ---------------------------------------------------------------------
 Center     Atomic      Atomic             Coordinates (Angstroms)
 Number     Number       Type             X           Y           Z
 ---------------------------------------------------------------------
      1          8           0        0.047524   -2.810377    0.000000
      2          1           0       -0.752869   -3.380355    0.000000
      3          1           0        0.846271   -3.382661    0.000000
      4          8           0        0.047524    2.861005    0.000000
      5          1           0        0.018279    3.843171    0.000000
      6          1           0       -0.872073    2.514816    0.000000
 ---------------------------------------------------------------------

 SCF Done:  E(RHF) =  -152.107111837     A.U. after   10 cycles
 E2 =    -0.5259188911D+00 EUMP2 =    -0.15263303072765D+03
 CCSD(T)
 CCSD(T)= -0.15266025623D+03

 The electronic state is 1-A'.
 Alpha  occ. eigenvalues --  -20.55416 -20.55048  -1.32713  -1.32343  -0.70120
 Alpha  occ. eigenvalues --   -0.69742  -0.56147  -0.55776  -0.49823  -0.49454
 Alpha virt. eigenvalues --    0.14175   0.14652   0.20282   0.20703   0.54436
 Alpha virt. eigenvalues --    0.54839   0.57336   0.57705   0.67904   0.68615
 Alpha virt. eigenvalues --    0.79057   0.79419   0.80491   0.80868   0.82470

 Mulliken charges:
               1
     1  O   -0.507158
     2  H    0.252125
     3  H    0.255038
     4  O   -0.506841
     5  H    0.251003
     6  H    0.255832
 Sum of Mulliken charges =  -0.00000

 Dipole moment (field-independent basis, Debye):
    X=             -1.6301    Y=             -0.8882    Z=              0.0000  Tot=              1.8564
 Quadrupole moment (field-independent basis, Debye-Ang):
   XX=             -9.2248   YY=              6.9733   ZZ=            -14.7115
   XY=             -3.9042   XZ=              0.0000   YZ=              0.0000

 Normal termination of Gaussian 16 at Sat Aug 27 03:42:42 2022.
