 Gaussian 16, Revision A.03,
 Gaussian 16:  ES64L-G16RevA.03 25-Dec-2016

 ------------------
 #p CCSD(T)/cc-pVTZ
 ------------------

 ------------
 H2O_H2O_3057
 ------------
 Symbolic Z-matrix:
 Charge =  0 Multiplicity = 1

                         Standard orientation:
 ---------------------------------------------------------------------
 Center     Atomic      Atomic             Coordinates (Angstroms)
 Number     Number       Type             X           Y           Z
 ---------------------------------------------------------------------
      1          8           0        0.025266   -2.419327    0.000000
      2          1           0       -0.774817   -2.989742    0.000000
      3          1           0        0.824324   -2.991175    0.000000
      4          8           0        0.025266    2.431061    0.000000
      5          1           0        0.490550    3.296518    0.000000
      6          1           0       -0.944311    2.590522    0.000000
 ---------------------------------------------------------------------

 SCF Done:  E(RHF) =  -152.106232133     A.U. after   10 cycles
 E2 =    -0.5260286728D+00 EUMP2 =    -0.15263226080578D+03
 CCSD(T)
 CCSD(T)= -0.15265950279D+03

 The electronic state is 1-A'.
 Alpha  occ. eigenvalues --  -20.54984 -20.54869  -1.32277  -1.32160  -0.69688
 Alpha  occ. eigenvalues --   -0.69566  -0.55670  -0.55548  -0.49381  -0.49264
 Alpha virt. eigenvalues --    0.14333   0.14954   0.20537   0.20803   0.54752
 Alpha virt. eigenvalues --    0.55109   0.57684   0.57834   0.67093   0.70290
 Alpha virt. eigenvalues --    0.79487   0.79618   0.80908   0.81126   0.82656

 Mulliken charges:
               1
     1  O   -0.501950
     2  H    0.249777
     3  H    0.252185
     4  O   -0.501722
     5  H    0.249245
     6  H    0.252466
 Sum of Mulliken charges =   0.00000

 Dipole moment (field-independent basis, Debye):
    X=             -0.8625    Y=             -0.2075    Z=              0.0000  Tot=              0.8871
 Quadrupole moment (field-independent basis, Debye-Ang):
   XX=             -8.2148   YY=              6.7211   ZZ=            -14.7101
   XY=             -1.4151   XZ=              0.0000   YZ=              0.0000

 Normal termination of Gaussian 16 at Fri Aug 26 18:57:23 2022.
