 Gaussian 16, Revision A.03,
 Gaussian 16:  ES64L-G16RevA.03 25-Dec-2016

 ------------------
 #p CCSD(T)/cc-pVTZ
 ------------------

 ------------
 H2O_H2O_2454
 ------------
 Symbolic Z-matrix:
 Charge =  0 Multiplicity = 1

                         Standard orientation:
 ---------------------------------------------------------------------
 Center     Atomic      Atomic             Coordinates (Angstroms)
 Number     Number       Type             X           Y           Z
 ---------------------------------------------------------------------
      1          8           0        0.014783   -2.104494    0.000000
      2          1           0       -0.785133   -2.675143    0.000000
      3          1           0        0.814009   -2.676109    0.000000
      4          8           0        0.014783    2.108368    0.000000
      5          1           0        0.639748    2.866606    0.000000
      6          1           0       -0.905155    2.453651    0.000000
 ---------------------------------------------------------------------

 SCF Done:  E(RHF) =  -152.105485748     A.U. after   10 cycles
 E2 =    -0.5261920866D+00 EUMP2 =    -0.15263167783459D+03
 CCSD(T)
 CCSD(T)= -0.15265892587D+03

 The electronic state is 1-A'.
 Alpha  occ. eigenvalues --  -20.54701 -20.54649  -1.31988  -1.31935  -0.69403
 Alpha  occ. eigenvalues --   -0.69347  -0.55419  -0.55191  -0.49090  -0.49031
 Alpha virt. eigenvalues --    0.14228   0.15424   0.20609   0.21022   0.54536
 Alpha virt. eigenvalues --    0.55749   0.57846   0.58054   0.63863   0.73565
 Alpha virt. eigenvalues --    0.79586   0.80029   0.81040   0.81292   0.81978

 Mulliken charges:
               1
     1  O   -0.496961
     2  H    0.247469
     3  H    0.249520
     4  O   -0.496831
     5  H    0.247147
     6  H    0.249655
 Sum of Mulliken charges =  -0.00000

 Dipole moment (field-independent basis, Debye):
    X=             -0.5013    Y=             -0.0696    Z=              0.0000  Tot=              0.5061
 Quadrupole moment (field-independent basis, Debye-Ang):
   XX=             -7.9652   YY=              4.5794   ZZ=            -14.7096
   XY=             -0.6334   XZ=              0.0000   YZ=              0.0000

 Normal termination of Gaussian 16 at Sat Aug 27 10:38:58 2022.
