 Gaussian 16, Revision A.03,
 Gaussian 16:  ES64L-G16RevA.03 25-Dec-2016

 ------------------
 #p CCSD(T)/cc-pVTZ
 ------------------

 -----------
 H2O_H2O_733
 -----------
 Symbolic Z-matrix:
 Charge =  0 Multiplicity = 1

                         Standard orientation:
 ---------------------------------------------------------------------
 Center     Atomic      Atomic             Coordinates (Angstroms)
 Number     Number       Type             X           Y           Z
 ---------------------------------------------------------------------
      1          8           0        0.028572   -1.180931    0.000000
      2          1           0       -0.772178   -1.750408    0.000000
      3          1           0        0.826960   -1.753716    0.000000
      4          8           0        0.028572    1.196117    0.000000
      5          1           0        0.437306    2.089674    0.000000
      6          1           0       -0.949244    1.292969    0.000000
 ---------------------------------------------------------------------

 SCF Done:  E(RHF) =  -152.089262035     A.U. after   11 cycles
 E2 =    -0.5300526478D+00 EUMP2 =    -0.15261931468289D+03
 CCSD(T)
 CCSD(T)= -0.15264654384D+03

 The electronic state is 1-A'.
 Alpha  occ. eigenvalues --  -20.53303 -20.52825  -1.31365  -1.29929  -0.68618
 Alpha  occ. eigenvalues --   -0.67619  -0.57401  -0.49599  -0.48652  -0.46672
 Alpha virt. eigenvalues --    0.14382   0.17552   0.20448   0.22781   0.51905
 Alpha virt. eigenvalues --    0.58561   0.58621   0.62685   0.70818   0.76399
 Alpha virt. eigenvalues --    0.77187   0.80364   0.83874   0.86238   0.87111

 Mulliken charges:
               1
     1  O   -0.462252
     2  H    0.223411
     3  H    0.237255
     4  O   -0.445699
     5  H    0.210672
     6  H    0.236614
 Sum of Mulliken charges =  -0.00000

 Dipole moment (field-independent basis, Debye):
    X=             -0.8807    Y=             -0.2976    Z=              0.0000  Tot=              0.9297
 Quadrupole moment (field-independent basis, Debye-Ang):
   XX=             -8.4920   YY=             -3.5775   ZZ=            -14.7287
   XY=             -0.4791   XZ=              0.0000   YZ=              0.0000

 56113\MP4DQ=-152.62771\MP4SDQ=-152.6309944\CCSD=-152.6303232\CCSD(T)=-
 Normal termination of Gaussian 16 at Fri Aug 26 19:31:31 2022.
