 Gaussian 16, Revision A.03,
 Gaussian 16:  ES64L-G16RevA.03 25-Dec-2016

 ------------------
 #p CCSD(T)/cc-pVTZ
 ------------------

 ------------
 H2O_H2O_2526
 ------------
 Symbolic Z-matrix:
 Charge =  0 Multiplicity = 1

                         Standard orientation:
 ---------------------------------------------------------------------
 Center     Atomic      Atomic             Coordinates (Angstroms)
 Number     Number       Type             X           Y           Z
 ---------------------------------------------------------------------
      1          8           0        0.003735   -2.146353    0.000000
      2          1           0       -0.795921   -2.717366    0.000000
      3          1           0        0.803221   -2.717605    0.000000
      4          8           0        0.003735    2.146597    0.000000
      5          1           0        0.764335    2.768687    0.000000
      6          1           0       -0.831400    2.664337    0.000000
 ---------------------------------------------------------------------

 SCF Done:  E(RHF) =  -152.105491154     A.U. after   10 cycles
 E2 =    -0.5261687299D+00 EUMP2 =    -0.15263165988342D+03
 CCSD(T)
 CCSD(T)= -0.15265891017D+03

 The electronic state is 1-A'.
 Alpha  occ. eigenvalues --  -20.54689 -20.54686  -1.31978  -1.31972  -0.69393
 Alpha  occ. eigenvalues --   -0.69385  -0.55416  -0.55225  -0.49085  -0.49062
 Alpha virt. eigenvalues --    0.14291   0.15344   0.20637   0.20966   0.54678
 Alpha virt. eigenvalues --    0.55695   0.57849   0.58026   0.64256   0.73161
 Alpha virt. eigenvalues --    0.79619   0.79972   0.81145   0.81380   0.81867

 Mulliken charges:
               1
     1  O   -0.497193
     2  H    0.248351
     3  H    0.248843
     4  O   -0.497184
     5  H    0.248294
     6  H    0.248889
 Sum of Mulliken charges =  -0.00000

 Dipole moment (field-independent basis, Debye):
    X=             -0.1268    Y=             -0.0044    Z=              0.0000  Tot=              0.1269
 Quadrupole moment (field-independent basis, Debye-Ang):
   XX=             -7.8364   YY=              5.0488   ZZ=            -14.7095
   XY=             -0.1608   XZ=              0.0000   YZ=              0.0000

 Normal termination of Gaussian 16 at Fri Aug 26 13:21:56 2022.
