 Gaussian 16, Revision A.03,
 Gaussian 16:  ES64L-G16RevA.03 25-Dec-2016

 ------------------
 #p CCSD(T)/cc-pVTZ
 ------------------

 -----------
 H2O_H2O_571
 -----------
 Symbolic Z-matrix:
 Charge =  0 Multiplicity = 1

                         Standard orientation:
 ---------------------------------------------------------------------
 Center     Atomic      Atomic             Coordinates (Angstroms)
 Number     Number       Type             X           Y           Z
 ---------------------------------------------------------------------
      1          8           0        0.056218   -1.046439    0.000000
      2          1           0       -0.745867   -1.614035    0.000000
      3          1           0        0.853260   -1.621096    0.000000
      4          8           0        0.056218    1.137885    0.000000
      5          1           0       -0.343993    2.035291    0.000000
      6          1           0       -0.662892    0.468268    0.000000
 ---------------------------------------------------------------------

 SCF Done:  E(RHF) =  -152.079007268     A.U. after   11 cycles
 E2 =    -0.5337140658D+00 EUMP2 =    -0.15261272133348D+03
 CCSD(T)
 CCSD(T)= -0.15263940954D+03

 The electronic state is 1-A'.
 Alpha  occ. eigenvalues --  -20.56097 -20.51004  -1.34988  -1.28532  -0.72397
 Alpha  occ. eigenvalues --   -0.69223  -0.54176  -0.51885  -0.51713  -0.45509
 Alpha virt. eigenvalues --    0.13183   0.18622   0.19392   0.26018   0.50543
 Alpha virt. eigenvalues --    0.55827   0.61345   0.63785   0.71967   0.74250
 Alpha virt. eigenvalues --    0.78079   0.82052   0.83753   0.84773   0.87390

 Mulliken charges:
               1
     1  O   -0.423265
     2  H    0.215017
     3  H    0.241964
     4  O   -0.490036
     5  H    0.198207
     6  H    0.258113
 Sum of Mulliken charges =  -0.00000

 Dipole moment (field-independent basis, Debye):
    X=             -1.6829    Y=             -2.0145    Z=              0.0000  Tot=              2.6250
 Quadrupole moment (field-independent basis, Debye-Ang):
   XX=             -9.8029   YY=             -5.8987   ZZ=            -14.6906
   XY=             -2.0647   XZ=              0.0000   YZ=              0.0000

 Normal termination of Gaussian 16 at Fri Aug 26 17:44:55 2022.
