 Gaussian 16, Revision A.03,
 Gaussian 16:  ES64L-G16RevA.03 25-Dec-2016

 ------------------
 #p CCSD(T)/cc-pVTZ
 ------------------

 ------------
 H2O_H2O_3966
 ------------
 Symbolic Z-matrix:
 Charge =  0 Multiplicity = 1

                         Standard orientation:
 ---------------------------------------------------------------------
 Center     Atomic      Atomic             Coordinates (Angstroms)
 Number     Number       Type             X           Y           Z
 ---------------------------------------------------------------------
      1          8           0        0.049503   -2.873414    0.000000
      2          1           0       -0.750905   -3.443372    0.000000
      3          1           0        0.848235   -3.445718    0.000000
      4          8           0        0.049503    2.930382    0.000000
      5          1           0       -0.043891    3.908535    0.000000
      6          1           0       -0.845493    2.524810    0.000000
 ---------------------------------------------------------------------

 SCF Done:  E(RHF) =  -152.107201868     A.U. after   10 cycles
 E2 =    -0.5259078571D+00 EUMP2 =    -0.15263310972512D+03
 CCSD(T)
 CCSD(T)= -0.15266033351D+03

 The electronic state is 1-A'.
 Alpha  occ. eigenvalues --  -20.55466 -20.55071  -1.32764  -1.32367  -0.70171
 Alpha  occ. eigenvalues --   -0.69766  -0.56202  -0.55804  -0.49874  -0.49478
 Alpha virt. eigenvalues --    0.14147   0.14623   0.20248   0.20689   0.54387
 Alpha virt. eigenvalues --    0.54814   0.57293   0.57688   0.67894   0.68523
 Alpha virt. eigenvalues --    0.79006   0.79395   0.80439   0.80846   0.82409

 Mulliken charges:
               1
     1  O   -0.507688
     2  H    0.252432
     3  H    0.255260
     4  O   -0.507378
     5  H    0.251269
     6  H    0.256105
 Sum of Mulliken charges =  -0.00000

 Dipole moment (field-independent basis, Debye):
    X=             -1.6989    Y=             -0.9985    Z=              0.0000  Tot=              1.9706
 Quadrupole moment (field-independent basis, Debye-Ang):
   XX=             -9.3455   YY=              6.8552   ZZ=            -14.7117
   XY=             -4.2771   XZ=              0.0000   YZ=              0.0000

 Normal termination of Gaussian 16 at Sat Aug 27 04:37:21 2022.
