 Gaussian 16, Revision A.03,
 Gaussian 16:  ES64L-G16RevA.03 25-Dec-2016

 ------------------
 #p CCSD(T)/cc-pVTZ
 ------------------

 ------------
 H2O_H2O_1522
 ------------
 Symbolic Z-matrix:
 Charge =  0 Multiplicity = 1

                         Standard orientation:
 ---------------------------------------------------------------------
 Center     Atomic      Atomic             Coordinates (Angstroms)
 Number     Number       Type             X           Y           Z
 ---------------------------------------------------------------------
      1          8           0        0.056776   -1.547601    0.000000
      2          1           0       -0.744535   -2.116290    0.000000
      3          1           0        0.854600   -2.121170    0.000000
      4          8           0        0.056776    1.646571    0.000000
      5          1           0       -0.402456    2.515256    0.000000
      6          1           0       -0.616024    0.930438    0.000000
 ---------------------------------------------------------------------

 SCF Done:  E(RHF) =  -152.108969872     A.U. after   10 cycles
 E2 =    -0.5270201458D+00 EUMP2 =    -0.15263599001740D+03
 CCSD(T)
 CCSD(T)= -0.15266309792D+03

 The electronic state is 1-A'.
 Alpha  occ. eigenvalues --  -20.56299 -20.53523  -1.33587  -1.30828  -0.70990
 Alpha  occ. eigenvalues --   -0.68267  -0.56997  -0.54312  -0.50706  -0.47961
 Alpha virt. eigenvalues --    0.13074   0.17013   0.19674   0.24771   0.52809
 Alpha virt. eigenvalues --    0.55476   0.56738   0.58336   0.67731   0.75470
 Alpha virt. eigenvalues --    0.76320   0.76641   0.80409   0.81560   0.84256

 Mulliken charges:
               1
     1  O   -0.493526
     2  H    0.245013
     3  H    0.258824
     4  O   -0.512067
     5  H    0.238529
     6  H    0.263227
 Sum of Mulliken charges =  -0.00000

 Dipole moment (field-independent basis, Debye):
    X=             -1.8724    Y=             -1.9181    Z=              0.0000  Tot=              2.6805
 Quadrupole moment (field-independent basis, Debye-Ang):
   XX=             -9.8290   YY=             -3.0202   ZZ=            -14.7239
   XY=             -3.1658   XZ=              0.0000   YZ=              0.0000

 Normal termination of Gaussian 16 at Sat Aug 27 05:15:40 2022.
