 Gaussian 16, Revision A.03,
 Gaussian 16:  ES64L-G16RevA.03 25-Dec-2016

 ------------------
 #p CCSD(T)/cc-pVTZ
 ------------------

 ------------
 H2O_H2O_3476
 ------------
 Symbolic Z-matrix:
 Charge =  0 Multiplicity = 1

                         Standard orientation:
 ---------------------------------------------------------------------
 Center     Atomic      Atomic             Coordinates (Angstroms)
 Number     Number       Type             X           Y           Z
 ---------------------------------------------------------------------
      1          8           0        0.003735   -2.651598    0.000000
      2          1           0       -0.795905   -3.222633    0.000000
      3          1           0        0.803237   -3.222827    0.000000
      4          8           0        0.003735    2.651842    0.000000
      5          1           0        0.764317    3.273953    0.000000
      6          1           0       -0.831415    3.169557    0.000000
 ---------------------------------------------------------------------

 SCF Done:  E(RHF) =  -152.106363012     A.U. after   10 cycles
 E2 =    -0.5259908793D+00 EUMP2 =    -0.15263235389089D+03
 CCSD(T)
 CCSD(T)= -0.15265959505D+03

 The electronic state is 1-A'.
 Alpha  occ. eigenvalues --  -20.55000 -20.54998  -1.32294  -1.32292  -0.69703
 Alpha  occ. eigenvalues --   -0.69700  -0.55695  -0.55685  -0.49398  -0.49395
 Alpha virt. eigenvalues --    0.14475   0.14706   0.20573   0.20652   0.54824
 Alpha virt. eigenvalues --    0.54919   0.57681   0.57718   0.68035   0.69130
 Alpha virt. eigenvalues --    0.79474   0.79487   0.80906   0.80960   0.82783

 Mulliken charges:
               1
     1  O   -0.502714
     2  H    0.251219
     3  H    0.251496
     4  O   -0.502711
     5  H    0.251173
     6  H    0.251538
 Sum of Mulliken charges =  -0.00000

 Dipole moment (field-independent basis, Debye):
    X=             -0.1279    Y=             -0.0043    Z=              0.0000  Tot=              0.1279
 Quadrupole moment (field-independent basis, Debye-Ang):
   XX=             -7.8196   YY=              9.1477   ZZ=            -14.7101
   XY=             -0.2243   XZ=              0.0000   YZ=              0.0000

 Normal termination of Gaussian 16 at Fri Aug 26 22:39:23 2022.
