 Gaussian 16, Revision A.03,
 Gaussian 16:  ES64L-G16RevA.03 25-Dec-2016

 ------------------
 #p CCSD(T)/cc-pVTZ
 ------------------

 ------------
 H2O_H2O_1929
 ------------
 Symbolic Z-matrix:
 Charge =  0 Multiplicity = 1

                         Standard orientation:
 ---------------------------------------------------------------------
 Center     Atomic      Atomic             Coordinates (Angstroms)
 Number     Number       Type             X           Y           Z
 ---------------------------------------------------------------------
      1          8           0        0.014783   -1.825281    0.000000
      2          1           0       -0.785185   -2.395856    0.000000
      3          1           0        0.813956   -2.396970    0.000000
      4          8           0        0.014783    1.829153    0.000000
      5          1           0        0.639819    2.587333    0.000000
      6          1           0       -0.905123    2.174520    0.000000
 ---------------------------------------------------------------------

 SCF Done:  E(RHF) =  -152.104551492     A.U. after   10 cycles
 E2 =    -0.5265219205D+00 EUMP2 =    -0.15263107341276D+03
 CCSD(T)
 CCSD(T)= -0.15265832238D+03

 The electronic state is 1-A'.
 Alpha  occ. eigenvalues --  -20.54439 -20.54368  -1.31722  -1.31641  -0.69144
 Alpha  occ. eigenvalues --   -0.69061  -0.55333  -0.54586  -0.48842  -0.48711
 Alpha virt. eigenvalues --    0.14172   0.15959   0.20589   0.21351   0.53608
 Alpha virt. eigenvalues --    0.56815   0.57976   0.58330   0.61435   0.75734
 Alpha virt. eigenvalues --    0.79207   0.79818   0.80707   0.80887   0.83150

 Mulliken charges:
               1
     1  O   -0.488737
     2  H    0.242964
     3  H    0.245888
     4  O   -0.488720
     5  H    0.242577
     6  H    0.246027
 Sum of Mulliken charges =  -0.00000

 Dipole moment (field-independent basis, Debye):
    X=             -0.4958    Y=             -0.0714    Z=              0.0000  Tot=              0.5010
 Quadrupole moment (field-independent basis, Debye-Ang):
   XX=             -7.9846   YY=              2.3045   ZZ=            -14.7092
   XY=             -0.4960   XZ=              0.0000   YZ=              0.0000

 Normal termination of Gaussian 16 at Sat Aug 27 07:36:31 2022.
