 Gaussian 16, Revision A.03,
 Gaussian 16:  ES64L-G16RevA.03 25-Dec-2016

 ------------------
 #p CCSD(T)/cc-pVTZ
 ------------------

 -----------
 H2O_H2O_130
 -----------
 Symbolic Z-matrix:
 Charge =  0 Multiplicity = 1

                         Standard orientation:
 ---------------------------------------------------------------------
 Center     Atomic      Atomic             Coordinates (Angstroms)
 Number     Number       Type             X           Y           Z
 ---------------------------------------------------------------------
      1          8           0        0.018364   -0.866821    0.000000
      2          1           0       -0.782244   -1.436499    0.000000
      3          1           0        0.816896   -1.439405    0.000000
      4          8           0        0.018364    0.872817    0.000000
      5          1           0        0.593367    1.669609    0.000000
      6          1           0       -0.921841    1.158333    0.000000
 ---------------------------------------------------------------------

 SCF Done:  E(RHF) =  -151.977916703     A.U. after   11 cycles
 E2 =    -0.5444876892D+00 EUMP2 =    -0.15252240439267D+03
 CCSD(T)
 CCSD(T)= -0.15254796039D+03

 The electronic state is 1-A'.
 Alpha  occ. eigenvalues --  -20.51432 -20.51259  -1.34705  -1.27291  -0.70221
 Alpha  occ. eigenvalues --   -0.67128  -0.63789  -0.51314  -0.43596  -0.37062
 Alpha virt. eigenvalues --    0.14510   0.19147   0.20041   0.23185   0.51449
 Alpha virt. eigenvalues --    0.58180   0.59076   0.66276   0.69137   0.78951
 Alpha virt. eigenvalues --    0.79991   0.83663   0.83956   0.86026   0.88133

 Mulliken charges:
               1
     1  O   -0.384800
     2  H    0.184344
     3  H    0.200259
     4  O   -0.368540
     5  H    0.153300
     6  H    0.215437
 Sum of Mulliken charges =  -0.00000

 Dipole moment (field-independent basis, Debye):
    X=             -0.5197    Y=             -0.1501    Z=              0.0000  Tot=              0.5410
 Quadrupole moment (field-independent basis, Debye-Ang):
   XX=             -8.5239   YY=             -7.8985   ZZ=            -14.7493
   XY=             -0.2167   XZ=              0.0000   YZ=              0.0000

 Normal termination of Gaussian 16 at Fri Aug 26 13:06:10 2022.
