 Gaussian 16, Revision A.03,
 Gaussian 16:  ES64L-G16RevA.03 25-Dec-2016

 ------------------
 #p CCSD(T)/cc-pVTZ
 ------------------

 -----------
 H2O_H2O_630
 -----------
 Symbolic Z-matrix:
 Charge =  0 Multiplicity = 1

                         Standard orientation:
 ---------------------------------------------------------------------
 Center     Atomic      Atomic             Coordinates (Angstroms)
 Number     Number       Type             X           Y           Z
 ---------------------------------------------------------------------
      1          8           0        0.018363   -1.132731    0.000000
      2          1           0       -0.782002   -1.702750    0.000000
      3          1           0        0.817138   -1.704975    0.000000
      4          8           0        0.018363    1.138742    0.000000
      5          1           0        0.593026    1.935779    0.000000
      6          1           0       -0.921964    1.423860    0.000000
 ---------------------------------------------------------------------

 SCF Done:  E(RHF) =  -152.081640450     A.U. after   11 cycles
 E2 =    -0.5310428215D+00 EUMP2 =    -0.15261268327133D+03
 CCSD(T)
 CCSD(T)= -0.15263987161D+03

 The electronic state is 1-A'.
 Alpha  occ. eigenvalues --  -20.52746 -20.52559  -1.31258  -1.29552  -0.68379
 Alpha  occ. eigenvalues --   -0.67280  -0.58253  -0.48568  -0.47997  -0.46191
 Alpha virt. eigenvalues --    0.14523   0.17815   0.20524   0.22677   0.50904
 Alpha virt. eigenvalues --    0.58862   0.58942   0.64143   0.71269   0.76798
 Alpha virt. eigenvalues --    0.77531   0.81195   0.84165   0.86537   0.87023

 Mulliken charges:
               1
     1  O   -0.453763
     2  H    0.221366
     3  H    0.230985
     4  O   -0.443339
     5  H    0.212164
     6  H    0.232587
 Sum of Mulliken charges =  -0.00000

 Dipole moment (field-independent basis, Debye):
    X=             -0.5585    Y=             -0.1194    Z=              0.0000  Tot=              0.5712
 Quadrupole moment (field-independent basis, Debye-Ang):
   XX=             -8.2406   YY=             -4.0945   ZZ=            -14.7358
   XY=             -0.2349   XZ=              0.0000   YZ=              0.0000

 Normal termination of Gaussian 16 at Fri Aug 26 18:28:09 2022.
