 Gaussian 16, Revision A.03,
 Gaussian 16:  ES64L-G16RevA.03 25-Dec-2016

 ------------------
 #p CCSD(T)/cc-pVTZ
 ------------------

 ------------
 H2O_H2O_1363
 ------------
 Symbolic Z-matrix:
 Charge =  0 Multiplicity = 1

                         Standard orientation:
 ---------------------------------------------------------------------
 Center     Atomic      Atomic             Coordinates (Angstroms)
 Number     Number       Type             X           Y           Z
 ---------------------------------------------------------------------
      1          8           0        0.042987   -1.500556    0.000000
      2          1           0       -0.757970   -2.069742    0.000000
      3          1           0        0.841167   -2.073631    0.000000
      4          8           0        0.042987    1.539259    0.000000
      5          1           0        0.143159    2.516741    0.000000
      6          1           0       -0.914150    1.317010    0.000000
 ---------------------------------------------------------------------

 SCF Done:  E(RHF) =  -152.104199506     A.U. after   10 cycles
 E2 =    -0.5272963784D+00 EUMP2 =    -0.15263149588489D+03
 CCSD(T)
 CCSD(T)= -0.15265871601D+03

 The electronic state is 1-A'.
 Alpha  occ. eigenvalues --  -20.54777 -20.53766  -1.32090  -1.31016  -0.69516
 Alpha  occ. eigenvalues --   -0.68429  -0.55818  -0.53820  -0.49216  -0.48090
 Alpha virt. eigenvalues --    0.13891   0.16748   0.20233   0.22590   0.53663
 Alpha virt. eigenvalues --    0.56931   0.57809   0.58587   0.66288   0.76213
 Alpha virt. eigenvalues --    0.77338   0.77502   0.79881   0.82343   0.85407

 Mulliken charges:
               1
     1  O   -0.481608
     2  H    0.235901
     3  H    0.248398
     4  O   -0.481193
     5  H    0.230301
     6  H    0.248201
 Sum of Mulliken charges =  -0.00000

 Dipole moment (field-independent basis, Debye):
    X=             -1.4039    Y=             -0.7372    Z=              0.0000  Tot=              1.5856
 Quadrupole moment (field-independent basis, Debye-Ang):
   XX=             -9.0170   YY=             -1.1263   ZZ=            -14.7154
   XY=             -1.4735   XZ=              0.0000   YZ=              0.0000

 Normal termination of Gaussian 16 at Sat Aug 27 04:15:13 2022.
