 Gaussian 16, Revision A.03,
 Gaussian 16:  ES64L-G16RevA.03 25-Dec-2016

 ------------------
 #p CCSD(T)/cc-pVTZ
 ------------------

 ------------
 H2O_H2O_4931
 ------------
 Symbolic Z-matrix:
 Charge =  0 Multiplicity = 1

                         Standard orientation:
 ---------------------------------------------------------------------
 Center     Atomic      Atomic             Coordinates (Angstroms)
 Number     Number       Type             X           Y           Z
 ---------------------------------------------------------------------
      1          8           0        0.021859   -3.418184    0.000000
      2          1           0       -0.778026   -3.988876    0.000000
      3          1           0        0.821116   -3.989755    0.000000
      4          8           0        0.021859    3.426855    0.000000
      5          1           0        0.542462    4.260208    0.000000
      6          1           0       -0.935289    3.649055    0.000000
 ---------------------------------------------------------------------

 SCF Done:  E(RHF) =  -152.107009893     A.U. after   10 cycles
 E2 =    -0.5259087403D+00 EUMP2 =    -0.15263291863303D+03
 CCSD(T)
 CCSD(T)= -0.15266014756D+03

 The electronic state is 1-A'.
 Alpha  occ. eigenvalues --  -20.55296 -20.55254  -1.32593  -1.32550  -0.69999
 Alpha  occ. eigenvalues --   -0.69956  -0.56022  -0.55979  -0.49701  -0.49659
 Alpha virt. eigenvalues --    0.14348   0.14391   0.20402   0.20447   0.54568
 Alpha virt. eigenvalues --    0.54614   0.57450   0.57493   0.68198   0.68242
 Alpha virt. eigenvalues --    0.79178   0.79220   0.80618   0.80664   0.82543

 Mulliken charges:
               1
     1  O   -0.506515
     2  H    0.252863
     3  H    0.253652
     4  O   -0.506481
     5  H    0.252662
     6  H    0.253819
 Sum of Mulliken charges =  -0.00000

 Dipole moment (field-independent basis, Debye):
    X=             -0.7518    Y=             -0.1510    Z=              0.0000  Tot=              0.7669
 Quadrupole moment (field-independent basis, Debye-Ang):
   XX=             -8.1017   YY=             14.5936   ZZ=            -14.7110
   XY=             -1.9437   XZ=              0.0000   YZ=              0.0000

 Normal termination of Gaussian 16 at Sat Aug 27 10:11:26 2022.
