 Gaussian 16, Revision A.03,
 Gaussian 16:  ES64L-G16RevA.03 25-Dec-2016

 ------------------
 #p CCSD(T)/cc-pVTZ
 ------------------

 ------------
 H2O_H2O_1727
 ------------
 Symbolic Z-matrix:
 Charge =  0 Multiplicity = 1

                         Standard orientation:
 ---------------------------------------------------------------------
 Center     Atomic      Atomic             Coordinates (Angstroms)
 Number     Number       Type             X           Y           Z
 ---------------------------------------------------------------------
      1          8           0        0.007455   -1.720489    0.000000
      2          1           0       -0.792329   -2.291323    0.000000
      3          1           0        0.806813   -2.291919    0.000000
      4          8           0        0.007455    1.721460    0.000000
      5          1           0        0.725888    2.391804    0.000000
      6          1           0       -0.859652    2.183665    0.000000
 ---------------------------------------------------------------------

 SCF Done:  E(RHF) =  -152.103792308     A.U. after   10 cycles
 E2 =    -0.5267297248D+00 EUMP2 =    -0.15263052203330D+03
 CCSD(T)
 CCSD(T)= -0.15265778268D+03

 The electronic state is 1-A'.
 Alpha  occ. eigenvalues --  -20.54249 -20.54229  -1.31555  -1.31483  -0.68976
 Alpha  occ. eigenvalues --   -0.68914  -0.55335  -0.54173  -0.48700  -0.48519
 Alpha virt. eigenvalues --    0.14255   0.16178   0.20598   0.21480   0.53138
 Alpha virt. eigenvalues --    0.57819   0.58051   0.58454   0.61431   0.75971
 Alpha virt. eigenvalues --    0.78881   0.79215   0.80129   0.81422   0.84289

 Mulliken charges:
               1
     1  O   -0.483490
     2  H    0.240905
     3  H    0.242623
     4  O   -0.483470
     5  H    0.240787
     6  H    0.242644
 Sum of Mulliken charges =  -0.00000

 Dipole moment (field-independent basis, Debye):
    X=             -0.2486    Y=             -0.0181    Z=              0.0000  Tot=              0.2492
 Quadrupole moment (field-independent basis, Debye-Ang):
   XX=             -7.8961   YY=              1.4883   ZZ=            -14.7088
   XY=             -0.2174   XZ=              0.0000   YZ=              0.0000

 Normal termination of Gaussian 16 at Sat Aug 27 06:26:40 2022.
