 Gaussian 16, Revision A.03,
 Gaussian 16:  ES64L-G16RevA.03 25-Dec-2016

 ------------------
 #p CCSD(T)/cc-pVTZ
 ------------------

 ------------
 H2O_H2O_2245
 ------------
 Symbolic Z-matrix:
 Charge =  0 Multiplicity = 1

                         Standard orientation:
 ---------------------------------------------------------------------
 Center     Atomic      Atomic             Coordinates (Angstroms)
 Number     Number       Type             X           Y           Z
 ---------------------------------------------------------------------
      1          8           0        0.055268   -1.941098    0.000000
      2          1           0       -0.745668   -2.510313    0.000000
      3          1           0        0.853469   -2.514143    0.000000
      4          8           0        0.055268    2.025496    0.000000
      5          1           0       -0.287254    2.946465    0.000000
      6          1           0       -0.704840    1.402807    0.000000
 ---------------------------------------------------------------------

 SCF Done:  E(RHF) =  -152.107896294     A.U. after   10 cycles
 E2 =    -0.5261992718D+00 EUMP2 =    -0.15263409556576D+03
 CCSD(T)
 CCSD(T)= -0.15266127159D+03

 The electronic state is 1-A'.
 Alpha  occ. eigenvalues --  -20.55771 -20.54349  -1.33047  -1.31640  -0.70457
 Alpha  occ. eigenvalues --   -0.69011  -0.56490  -0.55086  -0.50163  -0.48763
 Alpha virt. eigenvalues --    0.13187   0.16002   0.19954   0.22455   0.54182
 Alpha virt. eigenvalues --    0.54424   0.57084   0.58503   0.65681   0.74302
 Alpha virt. eigenvalues --    0.78590   0.79239   0.80197   0.81194   0.83397

 Mulliken charges:
               1
     1  O   -0.503759
     2  H    0.248984
     3  H    0.257327
     4  O   -0.509022
     5  H    0.245587
     6  H    0.260883
 Sum of Mulliken charges =  -0.00000

 Dipole moment (field-independent basis, Debye):
    X=             -1.8662    Y=             -1.5475    Z=              0.0000  Tot=              2.4243
 Quadrupole moment (field-independent basis, Debye-Ang):
   XX=             -9.7238   YY=             -0.2538   ZZ=            -14.7157
   XY=             -3.5363   XZ=              0.0000   YZ=              0.0000

 Normal termination of Gaussian 16 at Sat Aug 27 09:25:26 2022.
