 Gaussian 16, Revision A.03,
 Gaussian 16:  ES64L-G16RevA.03 25-Dec-2016

 ------------------
 #p CCSD(T)/cc-pVTZ
 ------------------

 -----------
 H2O_H2O_983
 -----------
 Symbolic Z-matrix:
 Charge =  0 Multiplicity = 1

                         Standard orientation:
 ---------------------------------------------------------------------
 Center     Atomic      Atomic             Coordinates (Angstroms)
 Number     Number       Type             X           Y           Z
 ---------------------------------------------------------------------
      1          8           0        0.028571   -1.313884    0.000000
      2          1           0       -0.772061   -1.883528    0.000000
      3          1           0        0.827078   -1.886503    0.000000
      4          8           0        0.028571    1.329081    0.000000
      5          1           0        0.437118    2.222724    0.000000
      6          1           0       -0.949266    1.425730    0.000000
 ---------------------------------------------------------------------

 SCF Done:  E(RHF) =  -152.097723673     A.U. after   11 cycles
 E2 =    -0.5284893370D+00 EUMP2 =    -0.15262621300975D+03
 CCSD(T)
 CCSD(T)= -0.15265349411D+03

 The electronic state is 1-A'.
 Alpha  occ. eigenvalues --  -20.53758 -20.53319  -1.31331  -1.30525  -0.68702
 Alpha  occ. eigenvalues --   -0.68043  -0.56374  -0.51604  -0.48572  -0.47404
 Alpha virt. eigenvalues --    0.14296   0.17176   0.20457   0.22488   0.52039
 Alpha virt. eigenvalues --    0.58433   0.58695   0.61089   0.70358   0.76607
 Alpha virt. eigenvalues --    0.76744   0.78297   0.82642   0.83538   0.86083

 Mulliken charges:
               1
     1  O   -0.469457
     2  H    0.228600
     3  H    0.240272
     4  O   -0.459047
     5  H    0.221860
     6  H    0.237772
 Sum of Mulliken charges =  -0.00000

 Dipole moment (field-independent basis, Debye):
    X=             -0.9075    Y=             -0.2925    Z=              0.0000  Tot=              0.9535
 Quadrupole moment (field-independent basis, Debye-Ang):
   XX=             -8.4421   YY=             -2.2906   ZZ=            -14.7192
   XY=             -0.5921   XZ=              0.0000   YZ=              0.0000

 Normal termination of Gaussian 16 at Fri Aug 26 21:44:57 2022.
