 Gaussian 16, Revision A.03,
 Gaussian 16:  ES64L-G16RevA.03 25-Dec-2016

 ------------------
 #p CCSD(T)/cc-pVTZ
 ------------------

 ------------
 H2O_H2O_2390
 ------------
 Symbolic Z-matrix:
 Charge =  0 Multiplicity = 1

                         Standard orientation:
 ---------------------------------------------------------------------
 Center     Atomic      Atomic             Coordinates (Angstroms)
 Number     Number       Type             X           Y           Z
 ---------------------------------------------------------------------
      1          8           0        0.047538   -2.039241    0.000000
      2          1           0       -0.753162   -2.608788    0.000000
      3          1           0        0.845977   -2.611955    0.000000
      4          8           0        0.047538    2.089818    0.000000
      5          1           0        0.018822    3.072000    0.000000
      6          1           0       -0.872245    1.744123    0.000000
 ---------------------------------------------------------------------

 SCF Done:  E(RHF) =  -152.106714850     A.U. after   10 cycles
 E2 =    -0.5261601350D+00 EUMP2 =    -0.15263287498473D+03
 CCSD(T)
 CCSD(T)= -0.15266008835D+03

 The electronic state is 1-A'.
 Alpha  occ. eigenvalues --  -20.55278 -20.54534  -1.32563  -1.31818  -0.69975
 Alpha  occ. eigenvalues --   -0.69204  -0.55967  -0.55217  -0.49670  -0.48930
 Alpha virt. eigenvalues --    0.13611   0.15688   0.20221   0.21558   0.53842
 Alpha virt. eigenvalues --    0.54951   0.57474   0.58176   0.65136   0.74254
 Alpha virt. eigenvalues --    0.79116   0.79959   0.80023   0.81759   0.83541

 Mulliken charges:
               1
     1  O   -0.502107
     2  H    0.248009
     3  H    0.254887
     4  O   -0.502919
     5  H    0.245776
     6  H    0.256354
 Sum of Mulliken charges =  -0.00000

 Dipole moment (field-independent basis, Debye):
    X=             -1.6096    Y=             -0.9155    Z=              0.0000  Tot=              1.8518
 Quadrupole moment (field-independent basis, Debye-Ang):
   XX=             -9.2312   YY=              2.1229   ZZ=            -14.7124
   XY=             -2.6660   XZ=              0.0000   YZ=              0.0000

 Normal termination of Gaussian 16 at Sat Aug 27 10:17:42 2022.
