 Gaussian 16, Revision A.03,
 Gaussian 16:  ES64L-G16RevA.03 25-Dec-2016

 ------------------
 #p CCSD(T)/cc-pVTZ
 ------------------

 ------------
 H2O_H2O_4325
 ------------
 Symbolic Z-matrix:
 Charge =  0 Multiplicity = 1

                         Standard orientation:
 ---------------------------------------------------------------------
 Center     Atomic      Atomic             Coordinates (Angstroms)
 Number     Number       Type             X           Y           Z
 ---------------------------------------------------------------------
      1          8           0        0.000000    0.000000   -3.103791
      2          1           0        0.000000    0.799571   -3.674923
      3          1           0       -0.000000   -0.799571   -3.674923
      4          8           0       -0.000000    0.000000    3.103791
      5          1           0       -0.000000   -0.799571    3.674923
      6          1           0       -0.000000    0.799571    3.674923
 ---------------------------------------------------------------------

 SCF Done:  E(RHF) =  -152.106777256     A.U. after   10 cycles
 E2 =    -0.5259351130D+00 EUMP2 =    -0.15263271236904D+03
 CCSD(T)
 CCSD(T)= -0.15265994587D+03

 The electronic state is 1-AG.
 Alpha  occ. eigenvalues --  -20.55171 -20.55171  -1.32466  -1.32466  -0.69874
 Alpha  occ. eigenvalues --   -0.69874  -0.55885  -0.55884  -0.49573  -0.49573
 Alpha virt. eigenvalues --    0.14438   0.14470   0.20490   0.20504   0.54692
 Alpha virt. eigenvalues --    0.54700   0.57555   0.57562   0.68316   0.68394
 Alpha virt. eigenvalues --    0.79306   0.79306   0.80750   0.80751   0.82679

 Mulliken charges:
               1
     1  O   -0.505143
     2  H    0.252572
     3  H    0.252572
     4  O   -0.505143
     5  H    0.252572
     6  H    0.252572
 Sum of Mulliken charges =   0.00000

 Dipole moment (field-independent basis, Debye):
    X=              0.0000    Y=             -0.0000    Z=              0.0000  Tot=              0.0000
 Quadrupole moment (field-independent basis, Debye-Ang):
   XX=            -14.7106   YY=             -7.8036   ZZ=             12.7956
   XY=             -0.0000   XZ=              0.0000   YZ=             -0.0000

 3\MP4DQ=-152.6418382\MP4SDQ=-152.6448986\CCSD=-152.6443101\CCSD(T)=-15
 Normal termination of Gaussian 16 at Sat Aug 27 06:40:50 2022.
