 Gaussian 16, Revision A.03,
 Gaussian 16:  ES64L-G16RevA.03 25-Dec-2016

 ------------------
 #p CCSD(T)/cc-pVTZ
 ------------------

 ------------
 H2O_H2O_1240
 ------------
 Symbolic Z-matrix:
 Charge =  0 Multiplicity = 1

                         Standard orientation:
 ---------------------------------------------------------------------
 Center     Atomic      Atomic             Coordinates (Angstroms)
 Number     Number       Type             X           Y           Z
 ---------------------------------------------------------------------
      1          8           0        0.047559   -1.427670    0.000000
      2          1           0       -0.753616   -1.996550    0.000000
      3          1           0        0.845520   -2.001050    0.000000
      4          8           0        0.047559    1.478168    0.000000
      5          1           0        0.019662    2.460374    0.000000
      6          1           0       -0.872512    1.133241    0.000000
 ---------------------------------------------------------------------

 SCF Done:  E(RHF) =  -152.104198811     A.U. after   10 cycles
 E2 =    -0.5276147974D+00 EUMP2 =    -0.15263181360823D+03
 CCSD(T)
 CCSD(T)= -0.15265901293D+03

 The electronic state is 1-A'.
 Alpha  occ. eigenvalues --  -20.55008 -20.53543  -1.32353  -1.30791  -0.69777
 Alpha  occ. eigenvalues --   -0.68242  -0.56005  -0.53666  -0.49481  -0.47865
 Alpha virt. eigenvalues --    0.13774   0.16972   0.20100   0.23098   0.53869
 Alpha virt. eigenvalues --    0.57238   0.57605   0.58308   0.68014   0.75801
 Alpha virt. eigenvalues --    0.76595   0.76887   0.80665   0.82558   0.85204

 Mulliken charges:
               1
     1  O   -0.480432
     2  H    0.235188
     3  H    0.249994
     4  O   -0.482124
     5  H    0.227557
     6  H    0.249818
 Sum of Mulliken charges =  -0.00000

 Dipole moment (field-independent basis, Debye):
    X=             -1.5396    Y=             -0.9737    Z=              0.0000  Tot=              1.8217
 Quadrupole moment (field-independent basis, Debye-Ang):
   XX=             -9.2744   YY=             -1.9630   ZZ=            -14.7189
   XY=             -1.7027   XZ=              0.0000   YZ=              0.0000

 Normal termination of Gaussian 16 at Sat Aug 27 03:16:18 2022.
