 Gaussian 16, Revision A.03,
 Gaussian 16:  ES64L-G16RevA.03 25-Dec-2016

 ------------------
 #p CCSD(T)/cc-pVTZ
 ------------------

 ------------
 H2O_H2O_3998
 ------------
 Symbolic Z-matrix:
 Charge =  0 Multiplicity = 1

                         Standard orientation:
 ---------------------------------------------------------------------
 Center     Atomic      Atomic             Coordinates (Angstroms)
 Number     Number       Type             X           Y           Z
 ---------------------------------------------------------------------
      1          8           0        0.057081   -2.859776    0.000000
      2          1           0       -0.743451   -3.429560    0.000000
      3          1           0        0.855689   -3.432254    0.000000
      4          8           0        0.057081    2.966339    0.000000
      5          1           0       -0.459127    3.802423    0.000000
      6          1           0       -0.566403    2.206883    0.000000
 ---------------------------------------------------------------------

 SCF Done:  E(RHF) =  -152.107722163     A.U. after   10 cycles
 E2 =    -0.5258638613D+00 EUMP2 =    -0.15263358602440D+03
 CCSD(T)
 CCSD(T)= -0.15266079844D+03

 The electronic state is 1-A'.
 Alpha  occ. eigenvalues --  -20.55772 -20.55041  -1.33072  -1.32341  -0.70478
 Alpha  occ. eigenvalues --   -0.69737  -0.56535  -0.55795  -0.50186  -0.49457
 Alpha virt. eigenvalues --    0.13842   0.14714   0.20014   0.20826   0.54074
 Alpha virt. eigenvalues --    0.54822   0.57025   0.57739   0.67458   0.68562
 Alpha virt. eigenvalues --    0.78696   0.79410   0.80115   0.80714   0.82325

 Mulliken charges:
               1
     1  O   -0.510747
     2  H    0.253885
     3  H    0.256884
     4  O   -0.510229
     5  H    0.251855
     6  H    0.258351
 Sum of Mulliken charges =  -0.00000

 Dipole moment (field-independent basis, Debye):
    X=             -1.9596    Y=             -1.8696    Z=              0.0000  Tot=              2.7084
 Quadrupole moment (field-independent basis, Debye-Ang):
   XX=             -9.8545   YY=              2.3017   ZZ=            -14.7129
   XY=             -5.8438   XZ=              0.0000   YZ=              0.0000

 Normal termination of Gaussian 16 at Sat Aug 27 04:48:22 2022.
