 Gaussian 16, Revision A.03,
 Gaussian 16:  ES64L-G16RevA.03 25-Dec-2016

 ------------------
 #p CCSD(T)/cc-pVTZ
 ------------------

 ------------
 H2O_H2O_2703
 ------------
 Symbolic Z-matrix:
 Charge =  0 Multiplicity = 1

                         Standard orientation:
 ---------------------------------------------------------------------
 Center     Atomic      Atomic             Coordinates (Angstroms)
 Number     Number       Type             X           Y           Z
 ---------------------------------------------------------------------
      1          8           0        0.011143   -2.238370    0.000000
      2          1           0       -0.788673   -2.809160    0.000000
      3          1           0        0.810469   -2.809844    0.000000
      4          8           0        0.011143    2.240555    0.000000
      5          1           0        0.684234    2.956414    0.000000
      6          1           0       -0.884314    2.645109    0.000000
 ---------------------------------------------------------------------

 SCF Done:  E(RHF) =  -152.105736777     A.U. after   10 cycles
 E2 =    -0.5261117441D+00 EUMP2 =    -0.15263184852095D+03
 CCSD(T)
 CCSD(T)= -0.15265909724D+03

 The electronic state is 1-A'.
 Alpha  occ. eigenvalues --  -20.54779 -20.54754  -1.32069  -1.32043  -0.69482
 Alpha  occ. eigenvalues --   -0.69455  -0.55478  -0.55357  -0.49171  -0.49142
 Alpha virt. eigenvalues --    0.14322   0.15197   0.20617   0.20898   0.54749
 Alpha virt. eigenvalues --    0.55441   0.57808   0.57951   0.65449   0.72096
 Alpha virt. eigenvalues --    0.79611   0.79820   0.81162   0.81184   0.82219

 Mulliken charges:
               1
     1  O   -0.498880
     2  H    0.248786
     3  H    0.250101
     4  O   -0.498811
     5  H    0.248590
     6  H    0.250215
 Sum of Mulliken charges =  -0.00000

 Dipole moment (field-independent basis, Debye):
    X=             -0.3791    Y=             -0.0389    Z=              0.0000  Tot=              0.3811
 Quadrupole moment (field-independent basis, Debye-Ang):
   XX=             -7.9006   YY=              5.7226   ZZ=            -14.7096
   XY=             -0.5212   XZ=              0.0000   YZ=              0.0000

 Normal termination of Gaussian 16 at Fri Aug 26 15:15:29 2022.
