 Gaussian 16, Revision A.03,
 Gaussian 16:  ES64L-G16RevA.03 25-Dec-2016

 ------------------
 #p CCSD(T)/cc-pVTZ
 ------------------

 ------------
 H2O_H2O_3566
 ------------
 Symbolic Z-matrix:
 Charge =  0 Multiplicity = 1

                         Standard orientation:
 ---------------------------------------------------------------------
 Center     Atomic      Atomic             Coordinates (Angstroms)
 Number     Number       Type             X           Y           Z
 ---------------------------------------------------------------------
      1          8           0        0.049507   -2.660685    0.000000
      2          1           0       -0.750968   -3.230550    0.000000
      3          1           0        0.848172   -3.233082    0.000000
      4          8           0        0.049507    2.717642    0.000000
      5          1           0       -0.043774    3.695806    0.000000
      6          1           0       -0.845537    2.312174    0.000000
 ---------------------------------------------------------------------

 SCF Done:  E(RHF) =  -152.107138715     A.U. after   10 cycles
 E2 =    -0.5259280083D+00 EUMP2 =    -0.15263306672297D+03
 CCSD(T)
 CCSD(T)= -0.15266029070D+03

 The electronic state is 1-A'.
 Alpha  occ. eigenvalues --  -20.55440 -20.54976  -1.32737  -1.32270  -0.70145
 Alpha  occ. eigenvalues --   -0.69667  -0.56172  -0.55704  -0.49847  -0.49382
 Alpha virt. eigenvalues --    0.14074   0.14784   0.20247   0.20810   0.54394
 Alpha virt. eigenvalues --    0.54907   0.57313   0.57767   0.67661   0.68950
 Alpha virt. eigenvalues --    0.79034   0.79489   0.80452   0.80883   0.82570

 Mulliken charges:
               1
     1  O   -0.507305
     2  H    0.251902
     3  H    0.255427
     4  O   -0.506897
     5  H    0.250462
     6  H    0.256410
 Sum of Mulliken charges =  -0.00000

 Dipole moment (field-independent basis, Debye):
    X=             -1.6961    Y=             -1.0024    Z=              0.0000  Tot=              1.9702
 Quadrupole moment (field-independent basis, Debye-Ang):
   XX=             -9.3457   YY=              5.5733   ZZ=            -14.7117
   XY=             -3.9192   XZ=              0.0000   YZ=              0.0000

 Normal termination of Gaussian 16 at Sat Aug 27 01:33:26 2022.
