 Gaussian 16, Revision A.03,
 Gaussian 16:  ES64L-G16RevA.03 25-Dec-2016

 ------------------
 #p CCSD(T)/cc-pVTZ
 ------------------

 ------------
 H2O_H2O_4344
 ------------
 Symbolic Z-matrix:
 Charge =  0 Multiplicity = 1

                         Standard orientation:
 ---------------------------------------------------------------------
 Center     Atomic      Atomic             Coordinates (Angstroms)
 Number     Number       Type             X           Y           Z
 ---------------------------------------------------------------------
      1          8           0        0.054140   -3.061785    0.000000
      2          1           0       -0.746287   -3.631716    0.000000
      3          1           0        0.852853   -3.634117    0.000000
      4          8           0        0.054140    3.139132    0.000000
      5          1           0       -0.228256    4.080280    0.000000
      6          1           0       -0.744556    2.566777    0.000000
 ---------------------------------------------------------------------

 SCF Done:  E(RHF) =  -152.107423674     A.U. after   10 cycles
 E2 =    -0.5258807483D+00 EUMP2 =    -0.15263330442272D+03
 CCSD(T)
 CCSD(T)= -0.15266052399D+03

 The electronic state is 1-A'.
 Alpha  occ. eigenvalues --  -20.55599 -20.55133  -1.32898  -1.32430  -0.70304
 Alpha  occ. eigenvalues --   -0.69829  -0.56346  -0.55876  -0.50010  -0.49543
 Alpha virt. eigenvalues --    0.14061   0.14557   0.20151   0.20655   0.54256
 Alpha virt. eigenvalues --    0.54746   0.57177   0.57644   0.67808   0.68355
 Alpha virt. eigenvalues --    0.78871   0.79329   0.80300   0.80789   0.82245

 Mulliken charges:
               1
     1  O   -0.508991
     2  H    0.253247
     3  H    0.255746
     4  O   -0.508694
     5  H    0.251993
     6  H    0.256699
 Sum of Mulliken charges =  -0.00000

 Dipole moment (field-independent basis, Debye):
    X=             -1.8604    Y=             -1.3525    Z=              0.0000  Tot=              2.3001
 Quadrupole moment (field-independent basis, Debye-Ang):
   XX=             -9.6486   YY=              6.1106   ZZ=            -14.7121
   XY=             -5.3918   XZ=              0.0000   YZ=              0.0000

 Normal termination of Gaussian 16 at Sat Aug 27 06:47:13 2022.
