 Gaussian 16, Revision A.03,
 Gaussian 16:  ES64L-G16RevA.03 25-Dec-2016

 ------------------
 #p CCSD(T)/cc-pVTZ
 ------------------

 ------------
 H2O_H2O_2010
 ------------
 Symbolic Z-matrix:
 Charge =  0 Multiplicity = 1

                         Standard orientation:
 ---------------------------------------------------------------------
 Center     Atomic      Atomic             Coordinates (Angstroms)
 Number     Number       Type             X           Y           Z
 ---------------------------------------------------------------------
      1          8           0        0.034787   -1.854511    0.000000
      2          1           0       -0.765699   -2.424360    0.000000
      3          1           0        0.833441   -2.426925    0.000000
      4          8           0        0.034787    1.878004    0.000000
      5          1           0        0.322954    2.817401    0.000000
      6          1           0       -0.947292    1.845941    0.000000
 ---------------------------------------------------------------------

 SCF Done:  E(RHF) =  -152.105452918     A.U. after   10 cycles
 E2 =    -0.5264299627D+00 EUMP2 =    -0.15263188288074D+03
 CCSD(T)
 CCSD(T)= -0.15265911103D+03

 The electronic state is 1-A'.
 Alpha  occ. eigenvalues --  -20.54793 -20.54377  -1.32072  -1.31650  -0.69492
 Alpha  occ. eigenvalues --   -0.69050  -0.55523  -0.54855  -0.49177  -0.48750
 Alpha virt. eigenvalues --    0.13905   0.15956   0.20418   0.21530   0.53331
 Alpha virt. eigenvalues --    0.55688   0.57832   0.58322   0.63075   0.75932
 Alpha virt. eigenvalues --    0.79130   0.79560   0.80628   0.80879   0.83363

 Mulliken charges:
               1
     1  O   -0.493285
     2  H    0.243694
     3  H    0.250240
     4  O   -0.493627
     5  H    0.242154
     6  H    0.250824
 Sum of Mulliken charges =  -0.00000

 Dipole moment (field-independent basis, Debye):
    X=             -1.1684    Y=             -0.4314    Z=              0.0000  Tot=              1.2455
 Quadrupole moment (field-independent basis, Debye-Ang):
   XX=             -8.5916   YY=              1.9623   ZZ=            -14.7108
   XY=             -1.4246   XZ=              0.0000   YZ=              0.0000

 Normal termination of Gaussian 16 at Sat Aug 27 08:05:18 2022.
