 Gaussian 16, Revision A.03,
 Gaussian 16:  ES64L-G16RevA.03 25-Dec-2016

 ------------------
 #p CCSD(T)/cc-pVTZ
 ------------------

 ------------
 H2O_H2O_1974
 ------------
 Symbolic Z-matrix:
 Charge =  0 Multiplicity = 1

                         Standard orientation:
 ---------------------------------------------------------------------
 Center     Atomic      Atomic             Coordinates (Angstroms)
 Number     Number       Type             X           Y           Z
 ---------------------------------------------------------------------
      1          8           0        0.057266   -1.778810    0.000000
      2          1           0       -0.743832   -2.347799    0.000000
      3          1           0        0.855304   -2.352081    0.000000
      4          8           0        0.057266    1.892730    0.000000
      5          1           0       -0.511723    2.693828    0.000000
      6          1           0       -0.516005    1.094691    0.000000
 ---------------------------------------------------------------------

 SCF Done:  E(RHF) =  -152.109542771     A.U. after   10 cycles
 E2 =    -0.5263800371D+00 EUMP2 =    -0.15263592280770D+03
 CCSD(T)
 CCSD(T)= -0.15266304715D+03

 The electronic state is 1-A'.
 Alpha  occ. eigenvalues --  -20.56369 -20.53986  -1.33632  -1.31296  -0.71034
 Alpha  occ. eigenvalues --   -0.68668  -0.57136  -0.54779  -0.50758  -0.48431
 Alpha virt. eigenvalues --    0.12865   0.16497   0.19669   0.24212   0.53162
 Alpha virt. eigenvalues --    0.55823   0.56488   0.58240   0.67110   0.73982
 Alpha virt. eigenvalues --    0.77614   0.78771   0.79474   0.80614   0.84193

 Mulliken charges:
               1
     1  O   -0.502111
     2  H    0.249781
     3  H    0.259107
     4  O   -0.516603
     5  H    0.244825
     6  H    0.265001
 Sum of Mulliken charges =  -0.00000

 Dipole moment (field-independent basis, Debye):
    X=             -1.9232    Y=             -2.1387    Z=              0.0000  Tot=              2.8762
 Quadrupole moment (field-independent basis, Debye-Ang):
   XX=             -9.8601   YY=             -2.7830   ZZ=            -14.7207
   XY=             -3.9109   XZ=              0.0000   YZ=              0.0000

 Normal termination of Gaussian 16 at Sat Aug 27 07:52:09 2022.
