 Gaussian 16, Revision A.03,
 Gaussian 16:  ES64L-G16RevA.03 25-Dec-2016

 ------------------
 #p CCSD(T)/cc-pVTZ
 ------------------

 ------------
 H2O_H2O_4751
 ------------
 Symbolic Z-matrix:
 Charge =  0 Multiplicity = 1

                         Standard orientation:
 ---------------------------------------------------------------------
 Center     Atomic      Atomic             Coordinates (Angstroms)
 Number     Number       Type             X           Y           Z
 ---------------------------------------------------------------------
      1          8           0        0.003735   -3.329690    0.000000
      2          1           0       -0.795891   -3.900744    0.000000
      3          1           0        0.803251   -3.900899    0.000000
      4          8           0        0.003735    3.329934    0.000000
      5          1           0        0.764301    3.952063    0.000000
      6          1           0       -0.831428    3.847628    0.000000
 ---------------------------------------------------------------------

 SCF Done:  E(RHF) =  -152.106913239     A.U. after   10 cycles
 E2 =    -0.5259184768D+00 EUMP2 =    -0.15263283171537D+03
 CCSD(T)
 CCSD(T)= -0.15266006261D+03

 The electronic state is 1-A'.
 Alpha  occ. eigenvalues --  -20.55235 -20.55234  -1.32531  -1.32530  -0.69938
 Alpha  occ. eigenvalues --   -0.69937  -0.55956  -0.55954  -0.49639  -0.49638
 Alpha virt. eigenvalues --    0.14397   0.14407   0.20449   0.20454   0.54630
 Alpha virt. eigenvalues --    0.54633   0.57504   0.57507   0.68264   0.68282
 Alpha virt. eigenvalues --    0.79240   0.79242   0.80682   0.80684   0.82608

 Mulliken charges:
               1
     1  O   -0.505943
     2  H    0.252899
     3  H    0.253044
     4  O   -0.505942
     5  H    0.252868
     6  H    0.253074
 Sum of Mulliken charges =  -0.00000

 Dipole moment (field-independent basis, Debye):
    X=             -0.1284    Y=             -0.0043    Z=              0.0000  Tot=              0.1285
 Quadrupole moment (field-independent basis, Debye-Ang):
   XX=             -7.8101   YY=             14.5833   ZZ=            -14.7108
   XY=             -0.3104   XZ=              0.0000   YZ=              0.0000

 Normal termination of Gaussian 16 at Sat Aug 27 09:08:26 2022.
