 Gaussian 16, Revision A.03,
 Gaussian 16:  ES64L-G16RevA.03 25-Dec-2016

 ------------------
 #p CCSD(T)/cc-pVTZ
 ------------------

 -----------
 H2O_H2O_445
 -----------
 Symbolic Z-matrix:
 Charge =  0 Multiplicity = 1

                         Standard orientation:
 ---------------------------------------------------------------------
 Center     Atomic      Atomic             Coordinates (Angstroms)
 Number     Number       Type             X           Y           Z
 ---------------------------------------------------------------------
      1          8           0        0.055362   -0.983921    0.000000
      2          1           0       -0.746844   -1.551346    0.000000
      3          1           0        0.852281   -1.558748    0.000000
      4          8           0        0.055362    1.068072    0.000000
      5          1           0       -0.285102    1.989804    0.000000
      6          1           0       -0.706135    0.447083    0.000000
 ---------------------------------------------------------------------

 SCF Done:  E(RHF) =  -152.061046427     A.U. after   11 cycles
 E2 =    -0.5359346187D+00 EUMP2 =    -0.15259698104595D+03
 CCSD(T)
 CCSD(T)= -0.15262352300D+03

 The electronic state is 1-A'.
 Alpha  occ. eigenvalues --  -20.55534 -20.50748  -1.35268  -1.28163  -0.72780
 Alpha  occ. eigenvalues --   -0.69527  -0.53874  -0.51784  -0.50309  -0.45100
 Alpha virt. eigenvalues --    0.13323   0.18743   0.19454   0.25621   0.50742
 Alpha virt. eigenvalues --    0.55817   0.61371   0.64472   0.72242   0.74948
 Alpha virt. eigenvalues --    0.79138   0.81628   0.83864   0.84976   0.87768

 Mulliken charges:
               1
     1  O   -0.405426
     2  H    0.203495
     3  H    0.234767
     4  O   -0.471112
     5  H    0.183935
     6  H    0.254341
 Sum of Mulliken charges =  -0.00000

 Dipole moment (field-independent basis, Debye):
    X=             -1.6142    Y=             -1.8624    Z=              0.0000  Tot=              2.4646
 Quadrupole moment (field-independent basis, Debye-Ang):
   XX=             -9.7654   YY=             -6.3067   ZZ=            -14.6760
   XY=             -1.7757   XZ=              0.0000   YZ=              0.0000

 Normal termination of Gaussian 16 at Fri Aug 26 16:31:18 2022.
