 Gaussian 16, Revision A.03,
 Gaussian 16:  ES64L-G16RevA.03 25-Dec-2016

 ------------------
 #p CCSD(T)/cc-pVTZ
 ------------------

 ------------
 H2O_H2O_3512
 ------------
 Symbolic Z-matrix:
 Charge =  0 Multiplicity = 1

                         Standard orientation:
 ---------------------------------------------------------------------
 Center     Atomic      Atomic             Coordinates (Angstroms)
 Number     Number       Type             X           Y           Z
 ---------------------------------------------------------------------
      1          8           0        0.040407   -2.646913    0.000000
      2          1           0       -0.759909   -3.217001    0.000000
      3          1           0        0.839232   -3.219089    0.000000
      4          8           0        0.040407    2.680264    0.000000
      5          1           0        0.203203    3.649285    0.000000
      6          1           0       -0.929037    2.519998    0.000000
 ---------------------------------------------------------------------

 SCF Done:  E(RHF) =  -152.106807350     A.U. after   10 cycles
 E2 =    -0.5259554986D+00 EUMP2 =    -0.15263276284819D+03
 CCSD(T)
 CCSD(T)= -0.15265999422D+03

 The electronic state is 1-A'.
 Alpha  occ. eigenvalues --  -20.55256 -20.54982  -1.32552  -1.32275  -0.69960
 Alpha  occ. eigenvalues --   -0.69676  -0.55971  -0.55695  -0.49659  -0.49384
 Alpha virt. eigenvalues --    0.14252   0.14747   0.20385   0.20737   0.54582
 Alpha virt. eigenvalues --    0.54914   0.57470   0.57749   0.67834   0.69016
 Alpha virt. eigenvalues --    0.79220   0.79490   0.80651   0.80953   0.82650

 Mulliken charges:
               1
     1  O   -0.505360
     2  H    0.251197
     3  H    0.254173
     4  O   -0.505040
     5  H    0.250256
     6  H    0.254775
 Sum of Mulliken charges =  -0.00000

 Dipole moment (field-independent basis, Debye):
    X=             -1.3837    Y=             -0.5866    Z=              0.0000  Tot=              1.5029
 Quadrupole moment (field-independent basis, Debye-Ang):
   XX=             -8.8329   YY=              7.1342   ZZ=            -14.7110
   XY=             -2.8635   XZ=              0.0000   YZ=              0.0000

 Normal termination of Gaussian 16 at Fri Aug 26 22:56:24 2022.
