 Gaussian 16, Revision A.03,
 Gaussian 16:  ES64L-G16RevA.03 25-Dec-2016

 ------------------
 #p CCSD(T)/cc-pVTZ
 ------------------

 -----------
 H2O_H2O_669
 -----------
 Symbolic Z-matrix:
 Charge =  0 Multiplicity = 1

                         Standard orientation:
 ---------------------------------------------------------------------
 Center     Atomic      Atomic             Coordinates (Angstroms)
 Number     Number       Type             X           Y           Z
 ---------------------------------------------------------------------
      1          8           0        0.054239   -1.107431    0.000000
      2          1           0       -0.747645   -1.675310    0.000000
      3          1           0        0.851483   -1.681807    0.000000
      4          8           0        0.054239    1.184501    0.000000
      5          1           0       -0.225746    2.126368    0.000000
      6          1           0       -0.745920    0.614193    0.000000
 ---------------------------------------------------------------------

 SCF Done:  E(RHF) =  -152.089468473     A.U. after   11 cycles
 E2 =    -0.5316353874D+00 EUMP2 =    -0.15262110386012D+03
 CCSD(T)
 CCSD(T)= -0.15264806017D+03

 The electronic state is 1-A'.
 Alpha  occ. eigenvalues --  -20.55477 -20.51949  -1.33749  -1.29266  -0.71126
 Alpha  occ. eigenvalues --   -0.68400  -0.55514  -0.51984  -0.50724  -0.46245
 Alpha virt. eigenvalues --    0.13459   0.18166   0.19686   0.24977   0.51610
 Alpha virt. eigenvalues --    0.56666   0.60327   0.61781   0.71666   0.74318
 Alpha virt. eigenvalues --    0.78161   0.82802   0.84164   0.84237   0.87455

 Mulliken charges:
               1
     1  O   -0.447360
     2  H    0.221881
     3  H    0.243047
     4  O   -0.475142
     5  H    0.203794
     6  H    0.253780
 Sum of Mulliken charges =  -0.00000

 Dipole moment (field-independent basis, Debye):
    X=             -1.6513    Y=             -1.6063    Z=              0.0000  Tot=              2.3037
 Quadrupole moment (field-independent basis, Debye-Ang):
   XX=             -9.6977   YY=             -5.0326   ZZ=            -14.7132
   XY=             -1.8521   XZ=              0.0000   YZ=              0.0000

 370443\MP4DQ=-152.62906\MP4SDQ=-152.6323594\CCSD=-152.6316783\CCSD(T)=
 Normal termination of Gaussian 16 at Fri Aug 26 18:52:05 2022.
