 Gaussian 16, Revision A.03,
 Gaussian 16:  ES64L-G16RevA.03 25-Dec-2016

 ------------------
 #p CCSD(T)/cc-pVTZ
 ------------------

 ------------
 H2O_H2O_1477
 ------------
 Symbolic Z-matrix:
 Charge =  0 Multiplicity = 1

                         Standard orientation:
 ---------------------------------------------------------------------
 Center     Atomic      Atomic             Coordinates (Angstroms)
 Number     Number       Type             X           Y           Z
 ---------------------------------------------------------------------
      1          8           0        0.007455   -1.587530    0.000000
      2          1           0       -0.792347   -2.158339    0.000000
      3          1           0        0.806795   -2.158985    0.000000
      4          8           0        0.007455    1.588501    0.000000
      5          1           0        0.725909    2.258822    0.000000
      6          1           0       -0.859637    2.050733    0.000000
 ---------------------------------------------------------------------

 SCF Done:  E(RHF) =  -152.102537612     A.U. after   10 cycles
 E2 =    -0.5270804482D+00 EUMP2 =    -0.15262961806036D+03
 CCSD(T)
 CCSD(T)= -0.15265689931D+03

 The electronic state is 1-A'.
 Alpha  occ. eigenvalues --  -20.54025 -20.54003  -1.31377  -1.31233  -0.68794
 Alpha  occ. eigenvalues --   -0.68680  -0.55459  -0.53513  -0.48552  -0.48225
 Alpha virt. eigenvalues --    0.14337   0.16494   0.20576   0.21701   0.52261
 Alpha virt. eigenvalues --    0.58199   0.58566   0.59068   0.63592   0.76153
 Alpha virt. eigenvalues --    0.78251   0.78295   0.79559   0.82192   0.86016

 Mulliken charges:
               1
     1  O   -0.476753
     2  H    0.237310
     3  H    0.239479
     4  O   -0.476578
     5  H    0.237266
     6  H    0.239276
 Sum of Mulliken charges =  -0.00000

 Dipole moment (field-independent basis, Debye):
    X=             -0.2461    Y=             -0.0182    Z=              0.0000  Tot=              0.2467
 Quadrupole moment (field-independent basis, Debye-Ang):
   XX=             -7.9160   YY=              0.3325   ZZ=            -14.7092
   XY=             -0.1851   XZ=              0.0000   YZ=              0.0000

 Normal termination of Gaussian 16 at Sat Aug 27 04:58:59 2022.
