 Gaussian 16, Revision A.03,
 Gaussian 16:  ES64L-G16RevA.03 25-Dec-2016

 ------------------
 #p CCSD(T)/cc-pVTZ
 ------------------

 -----------
 H2O_H2O_205
 -----------
 Symbolic Z-matrix:
 Charge =  0 Multiplicity = 1

                         Standard orientation:
 ---------------------------------------------------------------------
 Center     Atomic      Atomic             Coordinates (Angstroms)
 Number     Number       Type             X           Y           Z
 ---------------------------------------------------------------------
      1          8           0        0.018364   -0.906707    0.000000
      2          1           0       -0.782198   -1.476449    0.000000
      3          1           0        0.816941   -1.479228    0.000000
      4          8           0        0.018364    0.912705    0.000000
      5          1           0        0.593303    1.709544    0.000000
      6          1           0       -0.921864    1.198148    0.000000
 ---------------------------------------------------------------------

 SCF Done:  E(RHF) =  -152.007274559     A.U. after   11 cycles
 E2 =    -0.5408281806D+00 EUMP2 =    -0.15254810273989D+03
 CCSD(T)
 CCSD(T)= -0.15257420740D+03

 The electronic state is 1-A'.
 Alpha  occ. eigenvalues --  -20.51525 -20.51348  -1.33576  -1.27667  -0.69552
 Alpha  occ. eigenvalues --   -0.66605  -0.62986  -0.50452  -0.44008  -0.39509
 Alpha virt. eigenvalues --    0.14574   0.18849   0.20198   0.23130   0.51326
 Alpha virt. eigenvalues --    0.58482   0.59059   0.66289   0.69167   0.78705
 Alpha virt. eigenvalues --    0.79668   0.83515   0.84096   0.86278   0.87952

 Mulliken charges:
               1
     1  O   -0.404831
     2  H    0.194928
     3  H    0.209084
     4  O   -0.388033
     5  H    0.168665
     6  H    0.220187
 Sum of Mulliken charges =  -0.00000

 Dipole moment (field-independent basis, Debye):
    X=             -0.5224    Y=             -0.1404    Z=              0.0000  Tot=              0.5409
 Quadrupole moment (field-independent basis, Debye-Ang):
   XX=             -8.4507   YY=             -7.1461   ZZ=            -14.7484
   XY=             -0.1944   XZ=              0.0000   YZ=              0.0000

 Normal termination of Gaussian 16 at Fri Aug 26 14:01:16 2022.
