 Gaussian 16, Revision A.03,
 Gaussian 16:  ES64L-G16RevA.03 25-Dec-2016

 ------------------
 #p CCSD(T)/cc-pVTZ
 ------------------

 ------------
 H2O_H2O_2358
 ------------
 Symbolic Z-matrix:
 Charge =  0 Multiplicity = 1

                         Standard orientation:
 ---------------------------------------------------------------------
 Center     Atomic      Atomic             Coordinates (Angstroms)
 Number     Number       Type             X           Y           Z
 ---------------------------------------------------------------------
      1          8           0        0.028566   -2.045140    0.000000
      2          1           0       -0.771689   -2.615314    0.000000
      3          1           0        0.827452   -2.617229    0.000000
      4          8           0        0.028566    2.060374    0.000000
      5          1           0        0.436521    2.954287    0.000000
      6          1           0       -0.949335    2.156376    0.000000
 ---------------------------------------------------------------------

 SCF Done:  E(RHF) =  -152.105665953     A.U. after   10 cycles
 E2 =    -0.5262197688D+00 EUMP2 =    -0.15263188572150D+03
 CCSD(T)
 CCSD(T)= -0.15265912536D+03

 The electronic state is 1-A'.
 Alpha  occ. eigenvalues --  -20.54805 -20.54587  -1.32090  -1.31870  -0.69505
 Alpha  occ. eigenvalues --   -0.69275  -0.55498  -0.55163  -0.49192  -0.48970
 Alpha virt. eigenvalues --    0.14057   0.15561   0.20509   0.21166   0.54140
 Alpha virt. eigenvalues --    0.55635   0.57803   0.58090   0.63758   0.74132
 Alpha virt. eigenvalues --    0.79473   0.80098   0.80678   0.81154   0.82418

 Mulliken charges:
               1
     1  O   -0.497454
     2  H    0.246692
     3  H    0.250933
     4  O   -0.497157
     5  H    0.245767
     6  H    0.251220
 Sum of Mulliken charges =  -0.00000

 Dipole moment (field-independent basis, Debye):
    X=             -0.9670    Y=             -0.2749    Z=              0.0000  Tot=              1.0053
 Quadrupole moment (field-independent basis, Debye-Ang):
   XX=             -8.3377   YY=              3.6983   ZZ=            -14.7102
   XY=             -1.2741   XZ=              0.0000   YZ=              0.0000

 Normal termination of Gaussian 16 at Sat Aug 27 10:07:04 2022.
