 Gaussian 16, Revision A.03,
 Gaussian 16:  ES64L-G16RevA.03 25-Dec-2016

 ------------------
 #p CCSD(T)/cc-pVTZ
 ------------------

 ------------
 H2O_H2O_1694
 ------------
 Symbolic Z-matrix:
 Charge =  0 Multiplicity = 1

                         Standard orientation:
 ---------------------------------------------------------------------
 Center     Atomic      Atomic             Coordinates (Angstroms)
 Number     Number       Type             X           Y           Z
 ---------------------------------------------------------------------
      1          8           0        0.054189   -1.652489    0.000000
      2          1           0       -0.746952   -2.221418    0.000000
      3          1           0        0.852184   -2.225820    0.000000
      4          8           0        0.054189    1.729701    0.000000
      5          1           0       -0.227029    2.671201    0.000000
      6          1           0       -0.745223    1.158345    0.000000
 ---------------------------------------------------------------------

 SCF Done:  E(RHF) =  -152.107608980     A.U. after   10 cycles
 E2 =    -0.5267039512D+00 EUMP2 =    -0.15263431293130D+03
 CCSD(T)
 CCSD(T)= -0.15266146916D+03

 The electronic state is 1-A'.
 Alpha  occ. eigenvalues --  -20.55736 -20.53906  -1.33011  -1.31183  -0.70426
 Alpha  occ. eigenvalues --   -0.68561  -0.56421  -0.54601  -0.50127  -0.48308
 Alpha virt. eigenvalues --    0.13331   0.16604   0.19910   0.23356   0.53959
 Alpha virt. eigenvalues --    0.54791   0.57068   0.58364   0.65691   0.75953
 Alpha virt. eigenvalues --    0.77579   0.77665   0.78821   0.81216   0.84685

 Mulliken charges:
               1
     1  O   -0.493771
     2  H    0.243658
     3  H    0.255546
     4  O   -0.503924
     5  H    0.239293
     6  H    0.259198
 Sum of Mulliken charges =  -0.00000

 Dipole moment (field-independent basis, Debye):
    X=             -1.7992    Y=             -1.4609    Z=              0.0000  Tot=              2.3176
 Quadrupole moment (field-independent basis, Debye-Ang):
   XX=             -9.6571   YY=             -1.4489   ZZ=            -14.7183
   XY=             -2.8178   XZ=              0.0000   YZ=              0.0000

 Normal termination of Gaussian 16 at Sat Aug 27 06:15:39 2022.
