 Gaussian 16, Revision A.03,
 Gaussian 16:  ES64L-G16RevA.03 25-Dec-2016

 ------------------
 #p CCSD(T)/cc-pVTZ
 ------------------

 ------------
 H2O_H2O_1298
 ------------
 Symbolic Z-matrix:
 Charge =  0 Multiplicity = 1

                         Standard orientation:
 ---------------------------------------------------------------------
 Center     Atomic      Atomic             Coordinates (Angstroms)
 Number     Number       Type             X           Y           Z
 ---------------------------------------------------------------------
      1          8           0        0.057168   -1.423915    0.000000
      2          1           0       -0.744296   -1.992389    0.000000
      3          1           0        0.854838   -1.997700    0.000000
      4          8           0        0.057168    1.530292    0.000000
      5          1           0       -0.457670    2.367219    0.000000
      6          1           0       -0.567559    0.771857    0.000000
 ---------------------------------------------------------------------

 SCF Done:  E(RHF) =  -152.109043307     A.U. after   10 cycles
 E2 =    -0.5276891882D+00 EUMP2 =    -0.15263673249546D+03
 CCSD(T)
 CCSD(T)= -0.15266379069D+03

 The electronic state is 1-A'.
 Alpha  occ. eigenvalues --  -20.56639 -20.53033  -1.33991  -1.30380  -0.71376
 Alpha  occ. eigenvalues --   -0.68035  -0.57254  -0.53891  -0.51098  -0.47508
 Alpha virt. eigenvalues --    0.12970   0.17442   0.19532   0.25801   0.51813
 Alpha virt. eigenvalues --    0.56082   0.56836   0.59079   0.69304   0.74512
 Alpha virt. eigenvalues --    0.74886   0.78133   0.82068   0.82839   0.83977

 Mulliken charges:
               1
     1  O   -0.490028
     2  H    0.244793
     3  H    0.260271
     4  O   -0.516480
     5  H    0.235119
     6  H    0.266325
 Sum of Mulliken charges =  -0.00000

 Dipole moment (field-independent basis, Debye):
    X=             -1.8623    Y=             -2.1240    Z=              0.0000  Tot=              2.8248
 Quadrupole moment (field-independent basis, Debye-Ang):
   XX=             -9.8530   YY=             -4.0000   ZZ=            -14.7274
   XY=             -3.0966   XZ=              0.0000   YZ=              0.0000

 Normal termination of Gaussian 16 at Sat Aug 27 03:43:29 2022.
