 Gaussian 16, Revision A.03,
 Gaussian 16:  ES64L-G16RevA.03 25-Dec-2016

 ------------------
 #p CCSD(T)/cc-pVTZ
 ------------------

 ------------
 H2O_H2O_2327
 ------------
 Symbolic Z-matrix:
 Charge =  0 Multiplicity = 1

                         Standard orientation:
 ---------------------------------------------------------------------
 Center     Atomic      Atomic             Coordinates (Angstroms)
 Number     Number       Type             X           Y           Z
 ---------------------------------------------------------------------
      1          8           0        0.007455   -2.039590    0.000000
      2          1           0       -0.792296   -2.610471    0.000000
      3          1           0        0.806846   -2.610974    0.000000
      4          8           0        0.007455    2.040563    0.000000
      5          1           0        0.725849    2.710948    0.000000
      6          1           0       -0.859679    2.502717    0.000000
 ---------------------------------------------------------------------

 SCF Done:  E(RHF) =  -152.105237034     A.U. after   10 cycles
 E2 =    -0.5262526352D+00 EUMP2 =    -0.15263148966872D+03
 CCSD(T)
 CCSD(T)= -0.15265873926D+03

 The electronic state is 1-A'.
 Alpha  occ. eigenvalues --  -20.54609 -20.54595  -1.31896  -1.31878  -0.69313
 Alpha  occ. eigenvalues --   -0.69294  -0.55368  -0.55059  -0.49005  -0.48964
 Alpha virt. eigenvalues --    0.14231   0.15535   0.20632   0.21070   0.54467
 Alpha virt. eigenvalues --    0.56036   0.57882   0.58118   0.62868   0.74268
 Alpha virt. eigenvalues --    0.79568   0.80191   0.80943   0.81386   0.81827

 Mulliken charges:
               1
     1  O   -0.495129
     2  H    0.247009
     3  H    0.248131
     4  O   -0.495096
     5  H    0.246870
     6  H    0.248215
 Sum of Mulliken charges =  -0.00000

 Dipole moment (field-independent basis, Debye):
    X=             -0.2523    Y=             -0.0176    Z=              0.0000  Tot=              0.2529
 Quadrupole moment (field-independent basis, Debye-Ang):
   XX=             -7.8680   YY=              4.1506   ZZ=            -14.7094
   XY=             -0.2961   XZ=              0.0000   YZ=              0.0000

 1576\MP4DQ=-152.640574\MP4SDQ=-152.643655\CCSD=-152.6430574\CCSD(T)=-1
 Normal termination of Gaussian 16 at Sat Aug 27 09:53:32 2022.
