 Gaussian 16, Revision A.03,
 Gaussian 16:  ES64L-G16RevA.03 25-Dec-2016

 ------------------
 #p CCSD(T)/cc-pVTZ
 ------------------

 ------------
 H2O_H2O_3881
 ------------
 Symbolic Z-matrix:
 Charge =  0 Multiplicity = 1

                         Standard orientation:
 ---------------------------------------------------------------------
 Center     Atomic      Atomic             Coordinates (Angstroms)
 Number     Number       Type             X           Y           Z
 ---------------------------------------------------------------------
      1          8           0        0.021859   -2.859758    0.000000
      2          1           0       -0.778087   -3.430365    0.000000
      3          1           0        0.821055   -3.431416    0.000000
      4          8           0        0.021859    2.868425    0.000000
      5          1           0        0.542552    3.701722    0.000000
      6          1           0       -0.935265    3.090728    0.000000
 ---------------------------------------------------------------------

 SCF Done:  E(RHF) =  -152.106675877     A.U. after   10 cycles
 E2 =    -0.5259525058D+00 EUMP2 =    -0.15263262838250D+03
 CCSD(T)
 CCSD(T)= -0.15265986354D+03

 The electronic state is 1-A'.
 Alpha  occ. eigenvalues --  -20.55145 -20.55084  -1.32440  -1.32379  -0.69848
 Alpha  occ. eigenvalues --   -0.69785  -0.55853  -0.55792  -0.49546  -0.49485
 Alpha virt. eigenvalues --    0.14433   0.14569   0.20498   0.20581   0.54716
 Alpha virt. eigenvalues --    0.54795   0.57574   0.57640   0.68246   0.68605
 Alpha virt. eigenvalues --    0.79332   0.79392   0.80777   0.80847   0.82711

 Mulliken charges:
               1
     1  O   -0.504557
     2  H    0.251624
     3  H    0.252933
     4  O   -0.504477
     5  H    0.251322
     6  H    0.253155
 Sum of Mulliken charges =  -0.00000

 Dipole moment (field-independent basis, Debye):
    X=             -0.7497    Y=             -0.1518    Z=              0.0000  Tot=              0.7649
 Quadrupole moment (field-independent basis, Debye-Ang):
   XX=             -8.1067   YY=             10.2930   ZZ=            -14.7105
   XY=             -1.5278   XZ=              0.0000   YZ=              0.0000

 Normal termination of Gaussian 16 at Sat Aug 27 04:00:50 2022.
