 Gaussian 16, Revision A.03,
 Gaussian 16:  ES64L-G16RevA.03 25-Dec-2016

 ------------------
 #p CCSD(T)/cc-pVTZ
 ------------------

 ------------
 H2O_H2O_3856
 ------------
 Symbolic Z-matrix:
 Charge =  0 Multiplicity = 1

                         Standard orientation:
 ---------------------------------------------------------------------
 Center     Atomic      Atomic             Coordinates (Angstroms)
 Number     Number       Type             X           Y           Z
 ---------------------------------------------------------------------
      1          8           0        0.021859   -2.846462    0.000000
      2          1           0       -0.778089   -3.417066    0.000000
      3          1           0        0.821053   -3.418122    0.000000
      4          8           0        0.021859    2.855128    0.000000
      5          1           0        0.542554    3.688425    0.000000
      6          1           0       -0.935264    3.077435    0.000000
 ---------------------------------------------------------------------

 SCF Done:  E(RHF) =  -152.106664631     A.U. after   10 cycles
 E2 =    -0.5259541155D+00 EUMP2 =    -0.15263261874664D+03
 CCSD(T)
 CCSD(T)= -0.15265985411D+03

 The electronic state is 1-A'.
 Alpha  occ. eigenvalues --  -20.55140 -20.55079  -1.32436  -1.32373  -0.69843
 Alpha  occ. eigenvalues --   -0.69780  -0.55848  -0.55786  -0.49542  -0.49480
 Alpha virt. eigenvalues --    0.14434   0.14576   0.20501   0.20586   0.54720
 Alpha virt. eigenvalues --    0.54801   0.57578   0.57645   0.68239   0.68625
 Alpha virt. eigenvalues --    0.79337   0.79397   0.80782   0.80852   0.82716

 Mulliken charges:
               1
     1  O   -0.504492
     2  H    0.251583
     3  H    0.252909
     4  O   -0.504410
     5  H    0.251278
     6  H    0.253132
 Sum of Mulliken charges =  -0.00000

 Dipole moment (field-independent basis, Debye):
    X=             -0.7496    Y=             -0.1518    Z=              0.0000  Tot=              0.7648
 Quadrupole moment (field-independent basis, Debye-Ang):
   XX=             -8.1069   YY=             10.1902   ZZ=            -14.7105
   XY=             -1.5179   XZ=              0.0000   YZ=              0.0000

 Normal termination of Gaussian 16 at Sat Aug 27 03:49:41 2022.
