 Gaussian 16, Revision A.03,
 Gaussian 16:  ES64L-G16RevA.03 25-Dec-2016

 ------------------
 #p CCSD(T)/cc-pVTZ
 ------------------

 ------------
 H2O_H2O_2441
 ------------
 Symbolic Z-matrix:
 Charge =  0 Multiplicity = 1

                         Standard orientation:
 ---------------------------------------------------------------------
 Center     Atomic      Atomic             Coordinates (Angstroms)
 Number     Number       Type             X           Y           Z
 ---------------------------------------------------------------------
      1          8           0        0.049520   -2.062393    0.000000
      2          1           0       -0.751213   -2.631895    0.000000
      3          1           0        0.847926   -2.635152    0.000000
      4          8           0        0.049520    2.119304    0.000000
      5          1           0       -0.043318    3.097510    0.000000
      6          1           0       -0.845707    1.714243    0.000000
 ---------------------------------------------------------------------

 SCF Done:  E(RHF) =  -152.106923385     A.U. after   10 cycles
 E2 =    -0.5261315009D+00 EUMP2 =    -0.15263305488609D+03
 CCSD(T)
 CCSD(T)= -0.15266026466D+03

 The electronic state is 1-A'.
 Alpha  occ. eigenvalues --  -20.55367 -20.54547  -1.32652  -1.31833  -0.70063
 Alpha  occ. eigenvalues --   -0.69217  -0.56064  -0.55245  -0.49760  -0.48947
 Alpha virt. eigenvalues --    0.13549   0.15665   0.20177   0.21594   0.53914
 Alpha virt. eigenvalues --    0.54865   0.57405   0.58170   0.65433   0.73922
 Alpha virt. eigenvalues --    0.79055   0.79914   0.79979   0.81928   0.83386

 Mulliken charges:
               1
     1  O   -0.503256
     2  H    0.248602
     3  H    0.255510
     4  O   -0.504281
     5  H    0.246214
     6  H    0.257210
 Sum of Mulliken charges =  -0.00000

 Dipole moment (field-independent basis, Debye):
    X=             -1.6782    Y=             -1.0290    Z=              0.0000  Tot=              1.9686
 Quadrupole moment (field-independent basis, Debye-Ang):
   XX=             -9.3499   YY=              1.9445   ZZ=            -14.7128
   XY=             -2.9194   XZ=              0.0000   YZ=              0.0000

 Normal termination of Gaussian 16 at Sat Aug 27 10:34:44 2022.
