 Gaussian 16, Revision A.03,
 Gaussian 16:  ES64L-G16RevA.03 25-Dec-2016

 ------------------
 #p CCSD(T)/cc-pVTZ
 ------------------

 ------------
 H2O_H2O_3849
 ------------
 Symbolic Z-matrix:
 Charge =  0 Multiplicity = 1

                         Standard orientation:
 ---------------------------------------------------------------------
 Center     Atomic      Atomic             Coordinates (Angstroms)
 Number     Number       Type             X           Y           Z
 ---------------------------------------------------------------------
      1          8           0        0.057212   -2.775947    0.000000
      2          1           0       -0.743349   -3.345690    0.000000
      3          1           0        0.855791   -3.348466    0.000000
      4          8           0        0.057212    2.889975    0.000000
      5          1           0       -0.512531    3.690536    0.000000
      6          1           0       -0.515307    2.091396    0.000000
 ---------------------------------------------------------------------

 SCF Done:  E(RHF) =  -152.107835769     A.U. after   10 cycles
 E2 =    -0.5258607474D+00 EUMP2 =    -0.15263369651627D+03
 CCSD(T)
 CCSD(T)= -0.15266090579D+03

 The electronic state is 1-A'.
 Alpha  occ. eigenvalues --  -20.55829 -20.54998  -1.33129  -1.32299  -0.70534
 Alpha  occ. eigenvalues --   -0.69694  -0.56596  -0.55756  -0.50244  -0.49416
 Alpha virt. eigenvalues --    0.13743   0.14795   0.19971   0.20906   0.54014
 Alpha virt. eigenvalues --    0.54847   0.56977   0.57771   0.67290   0.68703
 Alpha virt. eigenvalues --    0.78639   0.79448   0.80049   0.80579   0.82506

 Mulliken charges:
               1
     1  O   -0.511368
     2  H    0.254112
     3  H    0.257307
     4  O   -0.510765
     5  H    0.251753
     6  H    0.258961
 Sum of Mulliken charges =  -0.00000

 Dipole moment (field-independent basis, Debye):
    X=             -1.9631    Y=             -2.0040    Z=              0.0000  Tot=              2.8053
 Quadrupole moment (field-independent basis, Debye-Ang):
   XX=             -9.8636   YY=              1.2181   ZZ=            -14.7133
   XY=             -5.8347   XZ=              0.0000   YZ=              0.0000

 Normal termination of Gaussian 16 at Sat Aug 27 03:46:31 2022.
