 Gaussian 16, Revision A.03,
 Gaussian 16:  ES64L-G16RevA.03 25-Dec-2016

 ------------------
 #p CCSD(T)/cc-pVTZ
 ------------------

 ------------
 H2O_H2O_1103
 ------------
 Symbolic Z-matrix:
 Charge =  0 Multiplicity = 1

                         Standard orientation:
 ---------------------------------------------------------------------
 Center     Atomic      Atomic             Coordinates (Angstroms)
 Number     Number       Type             X           Y           Z
 ---------------------------------------------------------------------
      1          8           0        0.011143   -1.387435    0.000000
      2          1           0       -0.788822   -1.958015    0.000000
      3          1           0        0.810319   -1.959119    0.000000
      4          8           0        0.011143    1.389615    0.000000
      5          1           0        0.684422    2.105296    0.000000
      6          1           0       -0.884208    1.794402    0.000000
 ---------------------------------------------------------------------

 SCF Done:  E(RHF) =  -152.098756951     A.U. after   11 cycles
 E2 =    -0.5279841923D+00 EUMP2 =    -0.15262674114287D+03
 CCSD(T)
 CCSD(T)= -0.15265405493D+03

 The electronic state is 1-A'.
 Alpha  occ. eigenvalues --  -20.53583 -20.53526  -1.31128  -1.30701  -0.68507
 Alpha  occ. eigenvalues --   -0.68197  -0.56045  -0.51935  -0.48370  -0.47583
 Alpha virt. eigenvalues --    0.14426   0.17045   0.20556   0.22090   0.51098
 Alpha virt. eigenvalues --    0.58526   0.58765   0.61229   0.70215   0.76421
 Alpha virt. eigenvalues --    0.77107   0.78383   0.79455   0.83361   0.86267

 Mulliken charges:
               1
     1  O   -0.467383
     2  H    0.231365
     3  H    0.235891
     4  O   -0.465609
     5  H    0.230833
     6  H    0.234903
 Sum of Mulliken charges =  -0.00000

 Dipole moment (field-independent basis, Debye):
    X=             -0.3588    Y=             -0.0415    Z=              0.0000  Tot=              0.3612
 Quadrupole moment (field-independent basis, Debye-Ang):
   XX=             -8.0048   YY=             -1.5033   ZZ=            -14.7146
   XY=             -0.2105   XZ=              0.0000   YZ=              0.0000

 Normal termination of Gaussian 16 at Sat Aug 27 02:09:21 2022.
