 Gaussian 16, Revision A.03,
 Gaussian 16:  ES64L-G16RevA.03 25-Dec-2016

 ------------------
 #p CCSD(T)/cc-pVTZ
 ------------------

 -----------
 H2O_H2O_847
 -----------
 Symbolic Z-matrix:
 Charge =  0 Multiplicity = 1

                         Standard orientation:
 ---------------------------------------------------------------------
 Center     Atomic      Atomic             Coordinates (Angstroms)
 Number     Number       Type             X           Y           Z
 ---------------------------------------------------------------------
      1          8           0        0.056820   -1.188664    0.000000
      2          1           0       -0.744994   -1.756643    0.000000
      3          1           0        0.854136   -1.762939    0.000000
      4          8           0        0.056820    1.287534    0.000000
      5          1           0       -0.401643    2.156624    0.000000
      6          1           0       -0.616614    0.571996    0.000000
 ---------------------------------------------------------------------

 SCF Done:  E(RHF) =  -152.100038658     A.U. after   11 cycles
 E2 =    -0.5303250351D+00 EUMP2 =    -0.15263036369315D+03
 CCSD(T)
 CCSD(T)= -0.15265728220D+03

 The electronic state is 1-A'.
 Alpha  occ. eigenvalues --  -20.56565 -20.51907  -1.34424  -1.29368  -0.71771
 Alpha  occ. eigenvalues --   -0.68337  -0.56118  -0.52952  -0.51419  -0.46427
 Alpha virt. eigenvalues --    0.13074   0.18189   0.19425   0.26171   0.50854
 Alpha virt. eigenvalues --    0.56125   0.60212   0.61343   0.71420   0.73649
 Alpha virt. eigenvalues --    0.75992   0.82487   0.82709   0.83722   0.86858

 Mulliken charges:
               1
     1  O   -0.460132
     2  H    0.232936
     3  H    0.252011
     4  O   -0.508361
     5  H    0.218909
     6  H    0.264637
 Sum of Mulliken charges =   0.00000

 Dipole moment (field-independent basis, Debye):
    X=             -1.7752    Y=             -2.0967    Z=              0.0000  Tot=              2.7473
 Quadrupole moment (field-independent basis, Debye-Ang):
   XX=             -9.8319   YY=             -5.0593   ZZ=            -14.7162
   XY=             -2.5016   XZ=              0.0000   YZ=              0.0000

 Normal termination of Gaussian 16 at Fri Aug 26 20:32:04 2022.
