 Gaussian 16, Revision A.03,
 Gaussian 16:  ES64L-G16RevA.03 25-Dec-2016

 ------------------
 #p CCSD(T)/cc-pVTZ
 ------------------

 -----------
 H2O_H2O_558
 -----------
 Symbolic Z-matrix:
 Charge =  0 Multiplicity = 1

                         Standard orientation:
 ---------------------------------------------------------------------
 Center     Atomic      Atomic             Coordinates (Angstroms)
 Number     Number       Type             X           Y           Z
 ---------------------------------------------------------------------
      1          8           0        0.028574   -1.087865    0.000000
      2          1           0       -0.772277   -1.657201    0.000000
      3          1           0        0.826861   -1.660790    0.000000
      4          8           0        0.028574    1.103040    0.000000
      5          1           0        0.437464    1.996526    0.000000
      6          1           0       -0.949226    1.200064    0.000000
 ---------------------------------------------------------------------

 SCF Done:  E(RHF) =  -152.077027337     A.U. after   11 cycles
 E2 =    -0.5319572420D+00 EUMP2 =    -0.15260898457944D+03
 CCSD(T)
 CCSD(T)= -0.15263608784D+03

 The electronic state is 1-A'.
 Alpha  occ. eigenvalues --  -20.52881 -20.52389  -1.31631  -1.29351  -0.68720
 Alpha  occ. eigenvalues --   -0.67290  -0.58521  -0.48904  -0.47528  -0.45984
 Alpha virt. eigenvalues --    0.14442   0.17846   0.20413   0.22979   0.51978
 Alpha virt. eigenvalues --    0.58449   0.58629   0.63745   0.70518   0.76715
 Alpha virt. eigenvalues --    0.77880   0.81549   0.83937   0.86287   0.87481

 Mulliken charges:
               1
     1  O   -0.453828
     2  H    0.218076
     3  H    0.233602
     4  O   -0.431394
     5  H    0.198089
     6  H    0.235455
 Sum of Mulliken charges =  -0.00000

 Dipole moment (field-independent basis, Debye):
    X=             -0.8574    Y=             -0.3040    Z=              0.0000  Tot=              0.9097
 Quadrupole moment (field-independent basis, Debye-Ang):
   XX=             -8.5378   YY=             -4.5788   ZZ=            -14.7353
   XY=             -0.4088   XZ=              0.0000   YZ=              0.0000

 Normal termination of Gaussian 16 at Fri Aug 26 17:37:56 2022.
