 Gaussian 16, Revision A.03,
 Gaussian 16:  ES64L-G16RevA.03 25-Dec-2016

 ------------------
 #p CCSD(T)/cc-pVTZ
 ------------------

 -----------
 H2O_H2O_355
 -----------
 Symbolic Z-matrix:
 Charge =  0 Multiplicity = 1

                         Standard orientation:
 ---------------------------------------------------------------------
 Center     Atomic      Atomic             Coordinates (Angstroms)
 Number     Number       Type             X           Y           Z
 ---------------------------------------------------------------------
      1          8           0        0.018363   -0.986480    0.000000
      2          1           0       -0.782119   -1.556334    0.000000
      3          1           0        0.817021   -1.558889    0.000000
      4          8           0        0.018363    0.992483    0.000000
      5          1           0        0.593191    1.789402    0.000000
      6          1           0       -0.921904    1.277795    0.000000
 ---------------------------------------------------------------------

 SCF Done:  E(RHF) =  -152.046885498     A.U. after   11 cycles
 E2 =    -0.5358250310D+00 EUMP2 =    -0.15258271052920D+03
 CCSD(T)
 CCSD(T)= -0.15260945180D+03

 The electronic state is 1-A'.
 Alpha  occ. eigenvalues --  -20.51934 -20.51749  -1.32209  -1.28425  -0.68796
 Alpha  occ. eigenvalues --   -0.66612  -0.61018  -0.49379  -0.44865  -0.43372
 Alpha virt. eigenvalues --    0.14603   0.18397   0.20395   0.22981   0.51092
 Alpha virt. eigenvalues --    0.58813   0.59003   0.65797   0.69660   0.77946
 Alpha virt. eigenvalues --    0.78911   0.82934   0.84218   0.86527   0.87590

 Mulliken charges:
               1
     1  O   -0.430719
     2  H    0.208724
     3  H    0.220579
     4  O   -0.415177
     5  H    0.189574
     6  H    0.227018
 Sum of Mulliken charges =  -0.00000

 Dipole moment (field-independent basis, Debye):
    X=             -0.5338    Y=             -0.1286    Z=              0.0000  Tot=              0.5491
 Quadrupole moment (field-independent basis, Debye-Ang):
   XX=             -8.3516   YY=             -5.9064   ZZ=            -14.7471
   XY=             -0.1881   XZ=              0.0000   YZ=              0.0000

 Normal termination of Gaussian 16 at Fri Aug 26 15:36:10 2022.
