 Gaussian 16, Revision A.03,
 Gaussian 16:  ES64L-G16RevA.03 25-Dec-2016

 ------------------
 #p CCSD(T)/cc-pVTZ
 ------------------

 ------------
 H2O_H2O_4672
 ------------
 Symbolic Z-matrix:
 Charge =  0 Multiplicity = 1

                         Standard orientation:
 ---------------------------------------------------------------------
 Center     Atomic      Atomic             Coordinates (Angstroms)
 Number     Number       Type             X           Y           Z
 ---------------------------------------------------------------------
      1          8           0        0.056699   -3.222793    0.000000
      2          1           0       -0.743722   -3.792733    0.000000
      3          1           0        0.855418   -3.795115    0.000000
      4          8           0        0.056699    3.321941    0.000000
      5          1           0       -0.403890    4.189906    0.000000
      6          1           0       -0.614982    2.604758    0.000000
 ---------------------------------------------------------------------

 SCF Done:  E(RHF) =  -152.107583856     A.U. after   10 cycles
 E2 =    -0.5258613319D+00 EUMP2 =    -0.15263344518776D+03
 CCSD(T)
 CCSD(T)= -0.15266066171D+03

 The electronic state is 1-A'.
 Alpha  occ. eigenvalues --  -20.55707 -20.55177  -1.33007  -1.32476  -0.70412
 Alpha  occ. eigenvalues --   -0.69876  -0.56462  -0.55927  -0.50120  -0.49591
 Alpha virt. eigenvalues --    0.13978   0.14517   0.20067   0.20632   0.54147
 Alpha virt. eigenvalues --    0.54695   0.57081   0.57611   0.67702   0.68272
 Alpha virt. eigenvalues --    0.78760   0.79281   0.80188   0.80744   0.82119

 Mulliken charges:
               1
     1  O   -0.509929
     2  H    0.253889
     3  H    0.256041
     4  O   -0.509627
     5  H    0.252565
     6  H    0.257061
 Sum of Mulliken charges =  -0.00000

 Dipole moment (field-independent basis, Debye):
    X=             -1.9498    Y=             -1.7307    Z=              0.0000  Tot=              2.6071
 Quadrupole moment (field-independent basis, Debye-Ang):
   XX=             -9.8284   YY=              4.6671   ZZ=            -14.7124
   XY=             -6.3690   XZ=              0.0000   YZ=              0.0000

 Normal termination of Gaussian 16 at Sat Aug 27 08:40:28 2022.
