 Gaussian 16, Revision A.03,
 Gaussian 16:  ES64L-G16RevA.03 25-Dec-2016

 ------------------
 #p CCSD(T)/cc-pVTZ
 ------------------

 ------------
 H2O_H2O_2991
 ------------
 Symbolic Z-matrix:
 Charge =  0 Multiplicity = 1

                         Standard orientation:
 ---------------------------------------------------------------------
 Center     Atomic      Atomic             Coordinates (Angstroms)
 Number     Number       Type             X           Y           Z
 ---------------------------------------------------------------------
      1          8           0        0.049512   -2.354890    0.000000
      2          1           0       -0.751078   -2.924592    0.000000
      3          1           0        0.848062   -2.927449    0.000000
      4          8           0        0.049512    2.411826    0.000000
      5          1           0       -0.043569    3.390009    0.000000
      6          1           0       -0.845613    2.006541    0.000000
 ---------------------------------------------------------------------

 SCF Done:  E(RHF) =  -152.107031346     A.U. after   10 cycles
 E2 =    -0.5259870308D+00 EUMP2 =    -0.15263301837635D+03
 CCSD(T)
 CCSD(T)= -0.15266023972D+03

 The electronic state is 1-A'.
 Alpha  occ. eigenvalues --  -20.55400 -20.54794  -1.32694  -1.32086  -0.70103
 Alpha  occ. eigenvalues --   -0.69478  -0.56120  -0.55512  -0.49803  -0.49198
 Alpha virt. eigenvalues --    0.13827   0.15161   0.20221   0.21096   0.54302
 Alpha virt. eigenvalues --    0.54989   0.57356   0.57888   0.66814   0.70629
 Alpha virt. eigenvalues --    0.79077   0.79670   0.80323   0.81131   0.82852

 Mulliken charges:
               1
     1  O   -0.506249
     2  H    0.250749
     3  H    0.255691
     4  O   -0.505920
     5  H    0.248814
     6  H    0.256915
 Sum of Mulliken charges =  -0.00000

 Dipole moment (field-independent basis, Debye):
    X=             -1.6897    Y=             -1.0120    Z=              0.0000  Tot=              1.9696
 Quadrupole moment (field-independent basis, Debye-Ang):
   XX=             -9.3467   YY=              3.7237   ZZ=            -14.7120
   XY=             -3.4069   XZ=              0.0000   YZ=              0.0000

 Normal termination of Gaussian 16 at Fri Aug 26 18:12:28 2022.
