 Gaussian 16, Revision A.03,
 Gaussian 16:  ES64L-G16RevA.03 25-Dec-2016

 ------------------
 #p CCSD(T)/cc-pVTZ
 ------------------

 ------------
 H2O_H2O_1706
 ------------
 Symbolic Z-matrix:
 Charge =  0 Multiplicity = 1

                         Standard orientation:
 ---------------------------------------------------------------------
 Center     Atomic      Atomic             Coordinates (Angstroms)
 Number     Number       Type             X           Y           Z
 ---------------------------------------------------------------------
      1          8           0        0.021861   -1.703024    0.000000
      2          1           0       -0.778339   -2.273275    0.000000
      3          1           0        0.820802   -2.275037    0.000000
      4          8           0        0.021861    1.711671    0.000000
      5          1           0        0.542924    2.544737    0.000000
      6          1           0       -0.935164    1.934401    0.000000
 ---------------------------------------------------------------------

 SCF Done:  E(RHF) =  -152.104058163     A.U. after   10 cycles
 E2 =    -0.5267508454D+00 EUMP2 =    -0.15263080900838D+03
 CCSD(T)
 CCSD(T)= -0.15265806055D+03

 The electronic state is 1-A'.
 Alpha  occ. eigenvalues --  -20.54372 -20.54195  -1.31660  -1.31462  -0.69084
 Alpha  occ. eigenvalues --   -0.68882  -0.55394  -0.54228  -0.48786  -0.48522
 Alpha virt. eigenvalues --    0.14157   0.16230   0.20531   0.21592   0.52976
 Alpha virt. eigenvalues --    0.57118   0.58070   0.58487   0.62477   0.76426
 Alpha virt. eigenvalues --    0.78755   0.78957   0.80144   0.81449   0.84384

 Mulliken charges:
               1
     1  O   -0.484258
     2  H    0.239723
     3  H    0.244890
     4  O   -0.484108
     5  H    0.238911
     6  H    0.244842
 Sum of Mulliken charges =  -0.00000

 Dipole moment (field-independent basis, Debye):
    X=             -0.7279    Y=             -0.1611    Z=              0.0000  Tot=              0.7455
 Quadrupole moment (field-independent basis, Debye-Ang):
   XX=             -8.1568   YY=              1.1781   ZZ=            -14.7095
   XY=             -0.6794   XZ=              0.0000   YZ=              0.0000

 4225\MP4DQ=-152.6398022\MP4SDQ=-152.6429151\CCSD=-152.6423039\CCSD(T)=
 Normal termination of Gaussian 16 at Sat Aug 27 06:19:34 2022.
