 Gaussian 16, Revision A.03,
 Gaussian 16:  ES64L-G16RevA.03 25-Dec-2016

 ------------------
 #p CCSD(T)/cc-pVTZ
 ------------------

 -----------
 H2O_H2O_494
 -----------
 Symbolic Z-matrix:
 Charge =  0 Multiplicity = 1

                         Standard orientation:
 ---------------------------------------------------------------------
 Center     Atomic      Atomic             Coordinates (Angstroms)
 Number     Number       Type             X           Y           Z
 ---------------------------------------------------------------------
      1          8           0        0.054253   -1.014380    0.000000
      2          1           0       -0.747835   -1.581971    0.000000
      3          1           0        0.851291   -1.589042    0.000000
      4          8           0        0.054253    1.091411    0.000000
      5          1           0       -0.225394    2.033379    0.000000
      6          1           0       -0.746111    0.521390    0.000000
 ---------------------------------------------------------------------

 SCF Done:  E(RHF) =  -152.070726503     A.U. after   11 cycles
 E2 =    -0.5344719184D+00 EUMP2 =    -0.15260519842104D+03
 CCSD(T)
 CCSD(T)= -0.15263193676D+03

 The electronic state is 1-A'.
 Alpha  occ. eigenvalues --  -20.55224 -20.51298  -1.34457  -1.28589  -0.71892
 Alpha  occ. eigenvalues --   -0.68994  -0.54824  -0.51193  -0.50472  -0.45517
 Alpha virt. eigenvalues --    0.13473   0.18516   0.19596   0.25155   0.51271
 Alpha virt. eigenvalues --    0.56322   0.60806   0.63452   0.72067   0.74847
 Alpha virt. eigenvalues --    0.79146   0.82271   0.83978   0.84682   0.87755

 Mulliken charges:
               1
     1  O   -0.421303
     2  H    0.208469
     3  H    0.235695
     4  O   -0.462427
     5  H    0.187911
     6  H    0.251655
 Sum of Mulliken charges =  -0.00000

 Dipole moment (field-independent basis, Debye):
    X=             -1.5996    Y=             -1.6509    Z=              0.0000  Tot=              2.2988
 Quadrupole moment (field-independent basis, Debye-Ang):
   XX=             -9.7079   YY=             -5.8666   ZZ=            -14.6931
   XY=             -1.6760   XZ=              0.0000   YZ=              0.0000

 Normal termination of Gaussian 16 at Fri Aug 26 16:58:44 2022.
