 Gaussian 16, Revision A.03,
 Gaussian 16:  ES64L-G16RevA.03 25-Dec-2016

 ------------------
 #p CCSD(T)/cc-pVTZ
 ------------------

 ------------
 H2O_H2O_1731
 ------------
 Symbolic Z-matrix:
 Charge =  0 Multiplicity = 1

                         Standard orientation:
 ---------------------------------------------------------------------
 Center     Atomic      Atomic             Coordinates (Angstroms)
 Number     Number       Type             X           Y           Z
 ---------------------------------------------------------------------
      1          8           0        0.021861   -1.716320    0.000000
      2          1           0       -0.778334   -2.286577    0.000000
      3          1           0        0.820807   -2.288326    0.000000
      4          8           0        0.021861    1.724967    0.000000
      5          1           0        0.542917    2.558038    0.000000
      6          1           0       -0.935166    1.947688    0.000000
 ---------------------------------------------------------------------

 SCF Done:  E(RHF) =  -152.104148656     A.U. after   10 cycles
 E2 =    -0.5267210417D+00 EUMP2 =    -0.15263086969745D+03
 CCSD(T)
 CCSD(T)= -0.15265811995D+03

 The electronic state is 1-A'.
 Alpha  occ. eigenvalues --  -20.54390 -20.54215  -1.31676  -1.31483  -0.69100
 Alpha  occ. eigenvalues --   -0.68902  -0.55388  -0.54280  -0.48800  -0.48546
 Alpha virt. eigenvalues --    0.14150   0.16201   0.20533   0.21570   0.53029
 Alpha virt. eigenvalues --    0.57029   0.58057   0.58468   0.62360   0.76371
 Alpha virt. eigenvalues --    0.78809   0.79034   0.80223   0.81377   0.84228

 Mulliken charges:
               1
     1  O   -0.484868
     2  H    0.240077
     3  H    0.245138
     4  O   -0.484769
     5  H    0.239282
     6  H    0.245139
 Sum of Mulliken charges =  -0.00000

 Dipole moment (field-independent basis, Debye):
    X=             -0.7285    Y=             -0.1609    Z=              0.0000  Tot=              0.7461
 Quadrupole moment (field-independent basis, Debye-Ang):
   XX=             -8.1552   YY=              1.2882   ZZ=            -14.7095
   XY=             -0.6889   XZ=              0.0000   YZ=              0.0000

 Normal termination of Gaussian 16 at Sat Aug 27 06:27:59 2022.
