 Gaussian 16, Revision A.03,
 Gaussian 16:  ES64L-G16RevA.03 25-Dec-2016

 ------------------
 #p CCSD(T)/cc-pVTZ
 ------------------

 ------------
 H2O_H2O_2904
 ------------
 Symbolic Z-matrix:
 Charge =  0 Multiplicity = 1

                         Standard orientation:
 ---------------------------------------------------------------------
 Center     Atomic      Atomic             Coordinates (Angstroms)
 Number     Number       Type             X           Y           Z
 ---------------------------------------------------------------------
      1          8           0        0.014783   -2.343819    0.000000
      2          1           0       -0.785098   -2.914517    0.000000
      3          1           0        0.814044   -2.915385    0.000000
      4          8           0        0.014783    2.347695    0.000000
      5          1           0        0.639701    3.105972    0.000000
      6          1           0       -0.905177    2.692921    0.000000
 ---------------------------------------------------------------------

 SCF Done:  E(RHF) =  -152.105968576     A.U. after   10 cycles
 E2 =    -0.5260640777D+00 EUMP2 =    -0.15263203265385D+03
 CCSD(T)
 CCSD(T)= -0.15265927915D+03

 The electronic state is 1-A'.
 Alpha  occ. eigenvalues --  -20.54866 -20.54825  -1.32158  -1.32116  -0.69569
 Alpha  occ. eigenvalues --   -0.69526  -0.55552  -0.55474  -0.49259  -0.49218
 Alpha virt. eigenvalues --    0.14364   0.15043   0.20597   0.20827   0.54797
 Alpha virt. eigenvalues --    0.55239   0.57763   0.57877   0.66511   0.70997
 Alpha virt. eigenvalues --    0.79577   0.79693   0.81034   0.81160   0.82493

 Mulliken charges:
               1
     1  O   -0.500364
     2  H    0.249415
     3  H    0.250954
     4  O   -0.500265
     5  H    0.249151
     6  H    0.251109
 Sum of Mulliken charges =   0.00000

 Dipole moment (field-independent basis, Debye):
    X=             -0.5040    Y=             -0.0687    Z=              0.0000  Tot=              0.5086
 Quadrupole moment (field-independent basis, Debye-Ang):
   XX=             -7.9554   YY=              6.4985   ZZ=            -14.7098
   XY=             -0.7520   XZ=              0.0000   YZ=              0.0000

 Normal termination of Gaussian 16 at Fri Aug 26 17:19:43 2022.
