 Gaussian 16, Revision A.03,
 Gaussian 16:  ES64L-G16RevA.03 25-Dec-2016

 ------------------
 #p CCSD(T)/cc-pVTZ
 ------------------

 ------------
 H2O_H2O_1066
 ------------
 Symbolic Z-matrix:
 Charge =  0 Multiplicity = 1

                         Standard orientation:
 ---------------------------------------------------------------------
 Center     Atomic      Atomic             Coordinates (Angstroms)
 Number     Number       Type             X           Y           Z
 ---------------------------------------------------------------------
      1          8           0        0.049551   -1.331174    0.000000
      2          1           0       -0.751805   -1.899799    0.000000
      3          1           0        0.847329   -1.904807    0.000000
      4          8           0        0.049551    1.387977    0.000000
      5          1           0       -0.042215    2.366284    0.000000
      6          1           0       -0.846119    0.983896    0.000000
 ---------------------------------------------------------------------

 SCF Done:  E(RHF) =  -152.102792593     A.U. after   10 cycles
 E2 =    -0.5282440966D+00 EUMP2 =    -0.15263103668954D+03
 CCSD(T)
 CCSD(T)= -0.15265821787D+03

 The electronic state is 1-A'.
 Alpha  occ. eigenvalues --  -20.55084 -20.53228  -1.32524  -1.30476  -0.69939
 Alpha  occ. eigenvalues --   -0.68056  -0.56145  -0.53233  -0.49656  -0.47526
 Alpha virt. eigenvalues --    0.13718   0.17258   0.20020   0.23544   0.53447
 Alpha virt. eigenvalues --    0.57485   0.58265   0.58483   0.70005   0.75706
 Alpha virt. eigenvalues --    0.76221   0.77797   0.81978   0.82826   0.85078

 Mulliken charges:
               1
     1  O   -0.477081
     2  H    0.233346
     3  H    0.250460
     4  O   -0.479453
     5  H    0.222583
     6  H    0.250147
 Sum of Mulliken charges =  -0.00000

 Dipole moment (field-independent basis, Debye):
    X=             -1.5815    Y=             -1.1118    Z=              0.0000  Tot=              1.9332
 Quadrupole moment (field-independent basis, Debye-Ang):
   XX=             -9.4016   YY=             -2.8269   ZZ=            -14.7223
   XY=             -1.7234   XZ=              0.0000   YZ=              0.0000

 Normal termination of Gaussian 16 at Sat Aug 27 01:48:30 2022.
