 Gaussian 16, Revision A.03,
 Gaussian 16:  ES64L-G16RevA.03 25-Dec-2016

 ------------------
 #p CCSD(T)/cc-pVTZ
 ------------------

 ------------
 H2O_H2O_4841
 ------------
 Symbolic Z-matrix:
 Charge =  0 Multiplicity = 1

                         Standard orientation:
 ---------------------------------------------------------------------
 Center     Atomic      Atomic             Coordinates (Angstroms)
 Number     Number       Type             X           Y           Z
 ---------------------------------------------------------------------
      1          8           0        0.049498   -3.338760    0.000000
      2          1           0       -0.750795   -3.908880    0.000000
      3          1           0        0.848346   -3.910902    0.000000
      4          8           0        0.049498    3.395748    0.000000
      5          1           0       -0.044095    4.373882    0.000000
      6          1           0       -0.845416    2.989996    0.000000
 ---------------------------------------------------------------------

 SCF Done:  E(RHF) =  -152.107299928     A.U. after   10 cycles
 E2 =    -0.5258848280D+00 EUMP2 =    -0.15263318475606D+03
 CCSD(T)
 CCSD(T)= -0.15266040741D+03

 The electronic state is 1-A'.
 Alpha  occ. eigenvalues --  -20.55511 -20.55223  -1.32810  -1.32520  -0.70216
 Alpha  occ. eigenvalues --   -0.69922  -0.56252  -0.55961  -0.49921  -0.49632
 Alpha virt. eigenvalues --    0.14156   0.14445   0.20225   0.20529   0.54347
 Alpha virt. eigenvalues --    0.54652   0.57256   0.57545   0.67945   0.68242
 Alpha virt. eigenvalues --    0.78959   0.79244   0.80392   0.80701   0.82317

 Mulliken charges:
               1
     1  O   -0.508241
     2  H    0.253204
     3  H    0.255037
     4  O   -0.508072
     5  H    0.252438
     6  H    0.255634
 Sum of Mulliken charges =  -0.00000

 Dipole moment (field-independent basis, Debye):
    X=             -1.7026    Y=             -0.9935    Z=              0.0000  Tot=              1.9712
 Quadrupole moment (field-independent basis, Debye-Ang):
   XX=             -9.3455   YY=              9.6474   ZZ=            -14.7117
   XY=             -5.0631   XZ=              0.0000   YZ=              0.0000

 Normal termination of Gaussian 16 at Sat Aug 27 09:38:16 2022.
