 Gaussian 16, Revision A.03,
 Gaussian 16:  ES64L-G16RevA.03 25-Dec-2016

 ------------------
 #p CCSD(T)/cc-pVTZ
 ------------------

 ------------
 H2O_H2O_2922
 ------------
 Symbolic Z-matrix:
 Charge =  0 Multiplicity = 1

                         Standard orientation:
 ---------------------------------------------------------------------
 Center     Atomic      Atomic             Coordinates (Angstroms)
 Number     Number       Type             X           Y           Z
 ---------------------------------------------------------------------
      1          8           0        0.056728   -2.292114    0.000000
      2          1           0       -0.744030   -2.861580    0.000000
      3          1           0        0.855108   -2.864909    0.000000
      4          8           0        0.056728    2.391195    0.000000
      5          1           0       -0.403347    3.259434    0.000000
      6          1           0       -0.615377    1.674410    0.000000
 ---------------------------------------------------------------------

 SCF Done:  E(RHF) =  -152.107965101     A.U. after   10 cycles
 E2 =    -0.5259587473D+00 EUMP2 =    -0.15263392384844D+03
 CCSD(T)
 CCSD(T)= -0.15266111811D+03

 The electronic state is 1-A'.
 Alpha  occ. eigenvalues --  -20.55830 -20.54698  -1.33120  -1.31996  -0.70526
 Alpha  occ. eigenvalues --   -0.69380  -0.56585  -0.55452  -0.50236  -0.49116
 Alpha virt. eigenvalues --    0.13306   0.15387   0.19953   0.21526   0.53975
 Alpha virt. eigenvalues --    0.54843   0.57019   0.58009   0.66631   0.70712
 Alpha virt. eigenvalues --    0.78656   0.79642   0.79740   0.80483   0.82775

 Mulliken charges:
               1
     1  O   -0.509927
     2  H    0.252566
     3  H    0.258148
     4  O   -0.510667
     5  H    0.249327
     6  H    0.260553
 Sum of Mulliken charges =  -0.00000

 Dipole moment (field-independent basis, Debye):
    X=             -1.9351    Y=             -1.7722    Z=              0.0000  Tot=              2.6240
 Quadrupole moment (field-independent basis, Debye-Ang):
   XX=             -9.8260   YY=              0.4612   ZZ=            -14.7144
   XY=             -4.5735   XZ=              0.0000   YZ=              0.0000

 Normal termination of Gaussian 16 at Fri Aug 26 17:29:03 2022.
