 Gaussian 16, Revision A.03,
 Gaussian 16:  ES64L-G16RevA.03 25-Dec-2016

 ------------------
 #p CCSD(T)/cc-pVTZ
 ------------------

 ----------
 H2O_H2O_70
 ----------
 Symbolic Z-matrix:
 Charge =  0 Multiplicity = 1

                         Standard orientation:
 ---------------------------------------------------------------------
 Center     Atomic      Atomic             Coordinates (Angstroms)
 Number     Number       Type             X           Y           Z
 ---------------------------------------------------------------------
      1          8           0        0.055409   -0.784547    0.000000
      2          1           0       -0.747430   -1.351075    0.000000
      3          1           0        0.851686   -1.360263    0.000000
      4          8           0        0.055409    0.868574    0.000000
      5          1           0       -0.284025    1.790686    0.000000
      6          1           0       -0.706781    0.248436    0.000000
 ---------------------------------------------------------------------

 SCF Done:  E(RHF) =  -151.907877670     A.U. after   12 cycles
 E2 =    -0.5515612214D+00 EUMP2 =    -0.15245943889114D+03
 CCSD(T)
 CCSD(T)= -0.15248392010D+03

 The electronic state is 1-A'.
 Alpha  occ. eigenvalues --  -20.55430 -20.48864  -1.41824  -1.25818  -0.78636
 Alpha  occ. eigenvalues --   -0.72707  -0.55559  -0.52280  -0.42850  -0.40628
 Alpha virt. eigenvalues --    0.13147   0.18430   0.20285   0.25456   0.50013
 Alpha virt. eigenvalues --    0.54240   0.61732   0.68616   0.73233   0.76436
 Alpha virt. eigenvalues --    0.77709   0.80387   0.84269   0.84825   0.88960

 Mulliken charges:
               1
     1  O   -0.283857
     2  H    0.148099
     3  H    0.201225
     4  O   -0.435783
     5  H    0.111940
     6  H    0.258376
 Sum of Mulliken charges =  -0.00000

 Dipole moment (field-independent basis, Debye):
    X=             -1.4182    Y=             -2.0835    Z=              0.0000  Tot=              2.5203
 Quadrupole moment (field-independent basis, Debye-Ang):
   XX=             -9.8191   YY=             -9.0656   ZZ=            -14.5479
   XY=             -1.2977   XZ=              0.0000   YZ=              0.0000

 714236\MP4DQ=-152.4624127\MP4SDQ=-152.46647\CCSD=-152.4653534\CCSD(T)=
 Normal termination of Gaussian 16 at Fri Aug 26 12:27:53 2022.
