 Gaussian 16, Revision A.03,
 Gaussian 16:  ES64L-G16RevA.03 25-Dec-2016

 ------------------
 #p CCSD(T)/cc-pVTZ
 ------------------

 ------------
 H2O_H2O_1811
 ------------
 Symbolic Z-matrix:
 Charge =  0 Multiplicity = 1

                         Standard orientation:
 ---------------------------------------------------------------------
 Center     Atomic      Atomic             Coordinates (Angstroms)
 Number     Number       Type             X           Y           Z
 ---------------------------------------------------------------------
      1          8           0        0.037683   -1.745584    0.000000
      2          1           0       -0.762938   -2.315242    0.000000
      3          1           0        0.836201   -2.318188    0.000000
      4          8           0        0.037683    1.773791    0.000000
      5          1           0        0.264021    2.729970    0.000000
      6          1           0       -0.940219    1.677798    0.000000
 ---------------------------------------------------------------------

 SCF Done:  E(RHF) =  -152.105255801     A.U. after   10 cycles
 E2 =    -0.5266096714D+00 EUMP2 =    -0.15263186547232D+03
 CCSD(T)
 CCSD(T)= -0.15265908879D+03

 The electronic state is 1-A'.
 Alpha  occ. eigenvalues --  -20.54790 -20.54226  -1.32068  -1.31492  -0.69490
 Alpha  occ. eigenvalues --   -0.68890  -0.55568  -0.54618  -0.49176  -0.48590
 Alpha virt. eigenvalues --    0.13877   0.16192   0.20364   0.21804   0.53161
 Alpha virt. eigenvalues --    0.55738   0.57836   0.58507   0.63417   0.76737
 Alpha virt. eigenvalues --    0.78762   0.78853   0.80270   0.81075   0.84500

 Mulliken charges:
               1
     1  O   -0.489890
     2  H    0.241425
     3  H    0.249597
     4  O   -0.490717
     5  H    0.239309
     6  H    0.250276
 Sum of Mulliken charges =  -0.00000

 Dipole moment (field-independent basis, Debye):
    X=             -1.2578    Y=             -0.5235    Z=              0.0000  Tot=              1.3624
 Quadrupole moment (field-independent basis, Debye-Ang):
   XX=             -8.7289   YY=              0.9964   ZZ=            -14.7114
   XY=             -1.4651   XZ=              0.0000   YZ=              0.0000

 Normal termination of Gaussian 16 at Sat Aug 27 06:55:11 2022.
