 Gaussian 16, Revision A.03,
 Gaussian 16:  ES64L-G16RevA.03 25-Dec-2016

 ------------------
 #p CCSD(T)/cc-pVTZ
 ------------------

 ------------
 H2O_H2O_4933
 ------------
 Symbolic Z-matrix:
 Charge =  0 Multiplicity = 1

                         Standard orientation:
 ---------------------------------------------------------------------
 Center     Atomic      Atomic             Coordinates (Angstroms)
 Number     Number       Type             X           Y           Z
 ---------------------------------------------------------------------
      1          8           0        0.028562   -3.414604    0.000000
      2          1           0       -0.771419   -3.985162    0.000000
      3          1           0        0.827723   -3.986310    0.000000
      4          8           0        0.028562    3.429867    0.000000
      5          1           0        0.436088    4.323974    0.000000
      6          1           0       -0.949385    3.525398    0.000000
 ---------------------------------------------------------------------

 SCF Done:  E(RHF) =  -152.107049957     A.U. after   10 cycles
 E2 =    -0.5259053964D+00 EUMP2 =    -0.15263295535337D+03
 CCSD(T)
 CCSD(T)= -0.15266018342D+03

 The electronic state is 1-A'.
 Alpha  occ. eigenvalues --  -20.55326 -20.55251  -1.32623  -1.32548  -0.70030
 Alpha  occ. eigenvalues --   -0.69953  -0.56054  -0.55979  -0.49732  -0.49657
 Alpha virt. eigenvalues --    0.14321   0.14396   0.20378   0.20455   0.54537
 Alpha virt. eigenvalues --    0.54617   0.57423   0.57498   0.68163   0.68239
 Alpha virt. eigenvalues --    0.79147   0.79222   0.80587   0.80668   0.82512

 Mulliken charges:
               1
     1  O   -0.506754
     2  H    0.252862
     3  H    0.253892
     4  O   -0.506697
     5  H    0.252576
     6  H    0.254121
 Sum of Mulliken charges =   0.00000

 Dipole moment (field-independent basis, Debye):
    X=             -0.9824    Y=             -0.2658    Z=              0.0000  Tot=              1.0178
 Quadrupole moment (field-independent basis, Debye-Ang):
   XX=             -8.3147   YY=             14.0055   ZZ=            -14.7111
   XY=             -2.5990   XZ=              0.0000   YZ=              0.0000

 Normal termination of Gaussian 16 at Sat Aug 27 10:12:04 2022.
