 Gaussian 16, Revision A.03,
 Gaussian 16:  ES64L-G16RevA.03 25-Dec-2016

 ------------------
 #p CCSD(T)/cc-pVTZ
 ------------------

 ------------
 H2O_H2O_1962
 ------------
 Symbolic Z-matrix:
 Charge =  0 Multiplicity = 1

                         Standard orientation:
 ---------------------------------------------------------------------
 Center     Atomic      Atomic             Coordinates (Angstroms)
 Number     Number       Type             X           Y           Z
 ---------------------------------------------------------------------
      1          8           0        0.040417   -1.822592    0.000000
      2          1           0       -0.760232   -2.392211    0.000000
      3          1           0        0.838907   -2.395234    0.000000
      4          8           0        0.040417    1.855895    0.000000
      5          1           0        0.203779    2.824821    0.000000
      6          1           0       -0.929121    1.696196    0.000000
 ---------------------------------------------------------------------

 SCF Done:  E(RHF) =  -152.105752484     A.U. after   10 cycles
 E2 =    -0.5264567583D+00 EUMP2 =    -0.15263220924264D+03
 CCSD(T)
 CCSD(T)= -0.15265942699D+03

 The electronic state is 1-A'.
 Alpha  occ. eigenvalues --  -20.54935 -20.54320  -1.32213  -1.31590  -0.69632
 Alpha  occ. eigenvalues --   -0.68983  -0.55644  -0.54844  -0.49319  -0.48695
 Alpha virt. eigenvalues --    0.13785   0.16052   0.20329   0.21736   0.53267
 Alpha virt. eigenvalues --    0.55387   0.57734   0.58415   0.63553   0.76268
 Alpha virt. eigenvalues --    0.78961   0.79170   0.80698   0.80730   0.84014

 Mulliken charges:
               1
     1  O   -0.493749
     2  H    0.243490
     3  H    0.251337
     4  O   -0.494805
     5  H    0.241410
     6  H    0.252318
 Sum of Mulliken charges =  -0.00000

 Dipole moment (field-independent basis, Debye):
    X=             -1.3553    Y=             -0.6136    Z=              0.0000  Tot=              1.4877
 Quadrupole moment (field-independent basis, Debye-Ang):
   XX=             -8.8539   YY=              1.3920   ZZ=            -14.7117
   XY=             -1.7426   XZ=              0.0000   YZ=              0.0000

 Normal termination of Gaussian 16 at Sat Aug 27 07:48:00 2022.
