 Gaussian 16, Revision A.03,
 Gaussian 16:  ES64L-G16RevA.03 25-Dec-2016

 ------------------
 #p CCSD(T)/cc-pVTZ
 ------------------

 ------------
 H2O_H2O_1012
 ------------
 Symbolic Z-matrix:
 Charge =  0 Multiplicity = 1

                         Standard orientation:
 ---------------------------------------------------------------------
 Center     Atomic      Atomic             Coordinates (Angstroms)
 Number     Number       Type             X           Y           Z
 ---------------------------------------------------------------------
      1          8           0        0.040429   -1.317377    0.000000
      2          1           0       -0.760628   -1.886424    0.000000
      3          1           0        0.838508   -1.890591    0.000000
      4          8           0        0.040429    1.350623    0.000000
      5          1           0        0.204485    2.319432    0.000000
      6          1           0       -0.929223    1.191618    0.000000
 ---------------------------------------------------------------------

 SCF Done:  E(RHF) =  -152.099960172     A.U. after   11 cycles
 E2 =    -0.5283915431D+00 EUMP2 =    -0.15262835171512D+03
 CCSD(T)
 CCSD(T)= -0.15265559029D+03

 The electronic state is 1-A'.
 Alpha  occ. eigenvalues --  -20.54325 -20.53308  -1.31814  -1.30538  -0.69216
 Alpha  occ. eigenvalues --   -0.68064  -0.56235  -0.52354  -0.48997  -0.47507
 Alpha virt. eigenvalues --    0.14057   0.17162   0.20271   0.22903   0.53231
 Alpha virt. eigenvalues --    0.58018   0.58268   0.59743   0.69742   0.76261
 Alpha virt. eigenvalues --    0.76909   0.77259   0.82783   0.83233   0.85655

 Mulliken charges:
               1
     1  O   -0.473422
     2  H    0.230017
     3  H    0.245258
     4  O   -0.464744
     5  H    0.219688
     6  H    0.243202
 Sum of Mulliken charges =  -0.00000

 Dipole moment (field-independent basis, Debye):
    X=             -1.2852    Y=             -0.6438    Z=              0.0000  Tot=              1.4374
 Quadrupole moment (field-independent basis, Debye-Ang):
   XX=             -8.9253   YY=             -2.4724   ZZ=            -14.7202
   XY=             -1.0761   XZ=              0.0000   YZ=              0.0000

 Normal termination of Gaussian 16 at Sat Aug 27 01:22:15 2022.
