 Gaussian 16, Revision A.03,
 Gaussian 16:  ES64L-G16RevA.03 25-Dec-2016

 ------------------
 #p CCSD(T)/cc-pVTZ
 ------------------

 ------------
 H2O_H2O_1129
 ------------
 Symbolic Z-matrix:
 Charge =  0 Multiplicity = 1

                         Standard orientation:
 ---------------------------------------------------------------------
 Center     Atomic      Atomic             Coordinates (Angstroms)
 Number     Number       Type             X           Y           Z
 ---------------------------------------------------------------------
      1          8           0        0.014784   -1.399815    0.000000
      2          1           0       -0.785305   -1.970221    0.000000
      3          1           0        0.813836   -1.971673    0.000000
      4          8           0        0.014784    1.403681    0.000000
      5          1           0        0.639979    2.161729    0.000000
      6          1           0       -0.905050    1.749243    0.000000
 ---------------------------------------------------------------------

 SCF Done:  E(RHF) =  -152.099301549     A.U. after   11 cycles
 E2 =    -0.5279018329D+00 EUMP2 =    -0.15262720338235D+03
 CCSD(T)
 CCSD(T)= -0.15265451167D+03

 The electronic state is 1-A'.
 Alpha  occ. eigenvalues --  -20.53665 -20.53565  -1.31170  -1.30758  -0.68555
 Alpha  occ. eigenvalues --   -0.68246  -0.55985  -0.52123  -0.48404  -0.47655
 Alpha virt. eigenvalues --    0.14397   0.16996   0.20545   0.22092   0.51310
 Alpha virt. eigenvalues --    0.58495   0.58747   0.60919   0.69610   0.76440
 Alpha virt. eigenvalues --    0.77153   0.78449   0.79434   0.83279   0.86214

 Mulliken charges:
               1
     1  O   -0.468780
     2  H    0.231391
     3  H    0.237229
     4  O   -0.465984
     5  H    0.230345
     6  H    0.235799
 Sum of Mulliken charges =   0.00000

 Dipole moment (field-independent basis, Debye):
    X=             -0.4770    Y=             -0.0735    Z=              0.0000  Tot=              0.4826
 Quadrupole moment (field-independent basis, Debye-Ang):
   XX=             -8.0579   YY=             -1.4000   ZZ=            -14.7141
   XY=             -0.2928   XZ=              0.0000   YZ=              0.0000

 Normal termination of Gaussian 16 at Sat Aug 27 02:21:18 2022.
