 Gaussian 16, Revision A.03,
 Gaussian 16:  ES64L-G16RevA.03 25-Dec-2016

 ------------------
 #p CCSD(T)/cc-pVTZ
 ------------------

 ------------
 H2O_H2O_2031
 ------------
 Symbolic Z-matrix:
 Charge =  0 Multiplicity = 1

                         Standard orientation:
 ---------------------------------------------------------------------
 Center     Atomic      Atomic             Coordinates (Angstroms)
 Number     Number       Type             X           Y           Z
 ---------------------------------------------------------------------
      1          8           0        0.021861   -1.875869    0.000000
      2          1           0       -0.778282   -2.446200    0.000000
      3          1           0        0.820860   -2.447801    0.000000
      4          8           0        0.021861    1.884520    0.000000
      5          1           0        0.542840    2.717638    0.000000
      6          1           0       -0.935187    2.107152    0.000000
 ---------------------------------------------------------------------

 SCF Done:  E(RHF) =  -152.104959501     A.U. after   10 cycles
 E2 =    -0.5264318403D+00 EUMP2 =    -0.15263139134104D+03
 CCSD(T)
 CCSD(T)= -0.15265863404D+03

 The electronic state is 1-A'.
 Alpha  occ. eigenvalues --  -20.54571 -20.54423  -1.31852  -1.31698  -0.69273
 Alpha  occ. eigenvalues --   -0.69112  -0.55375  -0.54781  -0.48959  -0.48786
 Alpha virt. eigenvalues --    0.14100   0.15869   0.20553   0.21325   0.53676
 Alpha virt. eigenvalues --    0.56281   0.57935   0.58266   0.62038   0.75537
 Alpha virt. eigenvalues --    0.79294   0.79967   0.80644   0.80973   0.82807

 Mulliken charges:
               1
     1  O   -0.491532
     2  H    0.243855
     3  H    0.247890
     4  O   -0.491482
     5  H    0.243157
     6  H    0.248112
 Sum of Mulliken charges =   0.00000

 Dipole moment (field-independent basis, Debye):
    X=             -0.7350    Y=             -0.1586    Z=              0.0000  Tot=              0.7520
 Quadrupole moment (field-independent basis, Debye-Ang):
   XX=             -8.1397   YY=              2.5883   ZZ=            -14.7097
   XY=             -0.8043   XZ=              0.0000   YZ=              0.0000

 Normal termination of Gaussian 16 at Sat Aug 27 08:12:05 2022.
