 Gaussian 16, Revision A.03,
 Gaussian 16:  ES64L-G16RevA.03 25-Dec-2016

 ------------------
 #p CCSD(T)/cc-pVTZ
 ------------------

 ------------
 H2O_H2O_3558
 ------------
 Symbolic Z-matrix:
 Charge =  0 Multiplicity = 1

                         Standard orientation:
 ---------------------------------------------------------------------
 Center     Atomic      Atomic             Coordinates (Angstroms)
 Number     Number       Type             X           Y           Z
 ---------------------------------------------------------------------
      1          8           0        0.028564   -2.683335    0.000000
      2          1           0       -0.771529   -3.253736    0.000000
      3          1           0        0.827612   -3.255197    0.000000
      4          8           0        0.028564    2.698586    0.000000
      5          1           0        0.436264    3.592614    0.000000
      6          1           0       -0.949364    2.794309    0.000000
 ---------------------------------------------------------------------

 SCF Done:  E(RHF) =  -152.106595850     A.U. after   10 cycles
 E2 =    -0.5259695905D+00 EUMP2 =    -0.15263256544060D+03
 CCSD(T)
 CCSD(T)= -0.15265980170D+03

 The electronic state is 1-A'.
 Alpha  occ. eigenvalues --  -20.55129 -20.55007  -1.32424  -1.32301  -0.69832
 Alpha  occ. eigenvalues --   -0.69706  -0.55833  -0.55710  -0.49529  -0.49407
 Alpha virt. eigenvalues --    0.14390   0.14688   0.20489   0.20665   0.54717
 Alpha virt. eigenvalues --    0.54889   0.57581   0.57713   0.68022   0.68955
 Alpha virt. eigenvalues --    0.79348   0.79469   0.80790   0.80936   0.82733

 Mulliken charges:
               1
     1  O   -0.504101
     2  H    0.251031
     3  H    0.253072
     4  O   -0.503926
     5  H    0.250523
     6  H    0.253402
 Sum of Mulliken charges =  -0.00000

 Dipole moment (field-independent basis, Debye):
    X=             -0.9782    Y=             -0.2679    Z=              0.0000  Tot=              1.0143
 Quadrupole moment (field-independent basis, Debye-Ang):
   XX=             -8.3209   YY=              8.5362   ZZ=            -14.7105
   XY=             -1.8879   XZ=              0.0000   YZ=              0.0000

 Normal termination of Gaussian 16 at Sat Aug 27 01:28:58 2022.
