 Gaussian 16, Revision A.03,
 Gaussian 16:  ES64L-G16RevA.03 25-Dec-2016

 ------------------
 #p CCSD(T)/cc-pVTZ
 ------------------

 -----------
 H2O_H2O_884
 -----------
 Symbolic Z-matrix:
 Charge =  0 Multiplicity = 1

                         Standard orientation:
 ---------------------------------------------------------------------
 Center     Atomic      Atomic             Coordinates (Angstroms)
 Number     Number       Type             X           Y           Z
 ---------------------------------------------------------------------
      1          8           0        0.031751   -1.258573    0.000000
      2          1           0       -0.769048   -1.827981    0.000000
      3          1           0        0.830090   -1.831426    0.000000
      4          8           0        0.031751    1.277687    0.000000
      5          1           0        0.381245    2.196033    0.000000
      6          1           0       -0.950304    1.310463    0.000000
 ---------------------------------------------------------------------

 SCF Done:  E(RHF) =  -152.095606843     A.U. after   11 cycles
 E2 =    -0.5290040217D+00 EUMP2 =    -0.15262461086510D+03
 CCSD(T)
 CCSD(T)= -0.15265187262D+03

 The electronic state is 1-A'.
 Alpha  occ. eigenvalues --  -20.53716 -20.53133  -1.31411  -1.30320  -0.68757
 Alpha  occ. eigenvalues --   -0.67897  -0.56680  -0.51063  -0.48663  -0.47167
 Alpha virt. eigenvalues --    0.14280   0.17312   0.20417   0.22700   0.52292
 Alpha virt. eigenvalues --    0.58395   0.58570   0.61444   0.70525   0.76354
 Alpha virt. eigenvalues --    0.76914   0.78948   0.83645   0.84736   0.86055

 Mulliken charges:
               1
     1  O   -0.468015
     2  H    0.226817
     3  H    0.240500
     4  O   -0.454418
     5  H    0.216749
     6  H    0.238367
 Sum of Mulliken charges =  -0.00000

 Dipole moment (field-independent basis, Debye):
    X=             -0.9972    Y=             -0.3706    Z=              0.0000  Tot=              1.0638
 Quadrupole moment (field-independent basis, Debye-Ang):
   XX=             -8.5739   YY=             -2.8368   ZZ=            -14.7227
   XY=             -0.6435   XZ=              0.0000   YZ=              0.0000

 Normal termination of Gaussian 16 at Fri Aug 26 20:51:19 2022.
