 Gaussian 16, Revision A.03,
 Gaussian 16:  ES64L-G16RevA.03 25-Dec-2016

 ------------------
 #p CCSD(T)/cc-pVTZ
 ------------------

 ------------
 H2O_H2O_2076
 ------------
 Symbolic Z-matrix:
 Charge =  0 Multiplicity = 1

                         Standard orientation:
 ---------------------------------------------------------------------
 Center     Atomic      Atomic             Coordinates (Angstroms)
 Number     Number       Type             X           Y           Z
 ---------------------------------------------------------------------
      1          8           0        0.003735   -1.907027    0.000000
      2          1           0       -0.795932   -2.478025    0.000000
      3          1           0        0.803210   -2.478294    0.000000
      4          8           0        0.003735    1.907271    0.000000
      5          1           0        0.764346    2.529346    0.000000
      6          1           0       -0.831390    2.425026    0.000000
 ---------------------------------------------------------------------

 SCF Done:  E(RHF) =  -152.104770885     A.U. after   10 cycles
 E2 =    -0.5264053489D+00 EUMP2 =    -0.15263117623377D+03
 CCSD(T)
 CCSD(T)= -0.15265842673D+03

 The electronic state is 1-A'.
 Alpha  occ. eigenvalues --  -20.54470 -20.54466  -1.31761  -1.31737  -0.69181
 Alpha  occ. eigenvalues --   -0.69157  -0.55318  -0.54767  -0.48882  -0.48806
 Alpha virt. eigenvalues --    0.14211   0.15786   0.20631   0.21213   0.54091
 Alpha virt. eigenvalues --    0.56681   0.57930   0.58249   0.61365   0.75287
 Alpha virt. eigenvalues --    0.79411   0.80476   0.80593   0.80883   0.82509

 Mulliken charges:
               1
     1  O   -0.491186
     2  H    0.245264
     3  H    0.245928
     4  O   -0.491182
     5  H    0.245196
     6  H    0.245980
 Sum of Mulliken charges =  -0.00000

 Dipole moment (field-independent basis, Debye):
    X=             -0.1258    Y=             -0.0045    Z=              0.0000  Tot=              0.1259
 Quadrupole moment (field-independent basis, Debye-Ang):
   XX=             -7.8517   YY=              3.0781   ZZ=            -14.7092
   XY=             -0.1310   XZ=              0.0000   YZ=              0.0000

 Normal termination of Gaussian 16 at Sat Aug 27 08:26:58 2022.
