 Gaussian 16, Revision A.03,
 Gaussian 16:  ES64L-G16RevA.03 25-Dec-2016

 ------------------
 #p CCSD(T)/cc-pVTZ
 ------------------

 ------------
 H2O_H2O_2967
 ------------
 Symbolic Z-matrix:
 Charge =  0 Multiplicity = 1

                         Standard orientation:
 ---------------------------------------------------------------------
 Center     Atomic      Atomic             Coordinates (Angstroms)
 Number     Number       Type             X           Y           Z
 ---------------------------------------------------------------------
      1          8           0        0.051282   -2.338021    0.000000
      2          1           0       -0.749350   -2.907665    0.000000
      3          1           0        0.849789   -2.910640    0.000000
      4          8           0        0.051282    2.401536    0.000000
      5          1           0       -0.105504    3.371548    0.000000
      6          1           0       -0.815454    1.938639    0.000000
 ---------------------------------------------------------------------

 SCF Done:  E(RHF) =  -152.107163552     A.U. after   10 cycles
 E2 =    -0.5259840171D+00 EUMP2 =    -0.15263314756876D+03
 CCSD(T)
 CCSD(T)= -0.15266036497D+03

 The electronic state is 1-A'.
 Alpha  occ. eigenvalues --  -20.55464 -20.54775  -1.32758  -1.32068  -0.70166
 Alpha  occ. eigenvalues --   -0.69458  -0.56190  -0.55499  -0.49867  -0.49181
 Alpha virt. eigenvalues --    0.13738   0.15207   0.20176   0.21162   0.54236
 Alpha virt. eigenvalues --    0.54960   0.57306   0.57902   0.66748   0.70745
 Alpha virt. eigenvalues --    0.79014   0.79686   0.80212   0.81077   0.82825

 Mulliken charges:
               1
     1  O   -0.506827
     2  H    0.250957
     3  H    0.256131
     4  O   -0.506610
     5  H    0.248805
     6  H    0.257544
 Sum of Mulliken charges =  -0.00000

 Dipole moment (field-independent basis, Debye):
    X=             -1.7498    Y=             -1.1304    Z=              0.0000  Tot=              2.0831
 Quadrupole moment (field-independent basis, Debye-Ang):
   XX=             -9.4582   YY=              3.2018   ZZ=            -14.7123
   XY=             -3.6112   XZ=              0.0000   YZ=              0.0000

 Normal termination of Gaussian 16 at Fri Aug 26 17:53:40 2022.
