 Gaussian 16, Revision A.03,
 Gaussian 16:  ES64L-G16RevA.03 25-Dec-2016

 ------------------
 #p CCSD(T)/cc-pVTZ
 ------------------

 ------------
 H2O_H2O_3972
 ------------
 Symbolic Z-matrix:
 Charge =  0 Multiplicity = 1

                         Standard orientation:
 ---------------------------------------------------------------------
 Center     Atomic      Atomic             Coordinates (Angstroms)
 Number     Number       Type             X           Y           Z
 ---------------------------------------------------------------------
      1          8           0        0.056708   -2.850518    0.000000
      2          1           0       -0.743822   -3.420306    0.000000
      3          1           0        0.855318   -3.422994    0.000000
      4          8           0        0.056708    2.949645    0.000000
      5          1           0       -0.403715    3.817699    0.000000
      6          1           0       -0.615109    2.232590    0.000000
 ---------------------------------------------------------------------

 SCF Done:  E(RHF) =  -152.107649002     A.U. after   10 cycles
 E2 =    -0.5258709186D+00 EUMP2 =    -0.15263351992022D+03
 CCSD(T)
 CCSD(T)= -0.15266073386D+03

 The electronic state is 1-A'.
 Alpha  occ. eigenvalues --  -20.55729 -20.55041  -1.33029  -1.32340  -0.70435
 Alpha  occ. eigenvalues --   -0.69736  -0.56488  -0.55792  -0.50142  -0.49455
 Alpha virt. eigenvalues --    0.13881   0.14708   0.20046   0.20813   0.54118
 Alpha virt. eigenvalues --    0.54826   0.57063   0.57737   0.67511   0.68571
 Alpha virt. eigenvalues --    0.78740   0.79412   0.80160   0.80740   0.82336

 Mulliken charges:
               1
     1  O   -0.510319
     2  H    0.253634
     3  H    0.256706
     4  O   -0.509833
     5  H    0.251710
     6  H    0.258103
 Sum of Mulliken charges =   0.00000

 Dipole moment (field-independent basis, Debye):
    X=             -1.9466    Y=             -1.7393    Z=              0.0000  Tot=              2.6105
 Quadrupole moment (field-independent basis, Debye-Ang):
   XX=             -9.8275   YY=              2.9858   ZZ=            -14.7127
   XY=             -5.6481   XZ=              0.0000   YZ=              0.0000

 Normal termination of Gaussian 16 at Sat Aug 27 04:39:41 2022.
