 Gaussian 16, Revision A.03,
 Gaussian 16:  ES64L-G16RevA.03 25-Dec-2016

 ------------------
 #p CCSD(T)/cc-pVTZ
 ------------------

 ------------
 H2O_H2O_3581
 ------------
 Symbolic Z-matrix:
 Charge =  0 Multiplicity = 1

                         Standard orientation:
 ---------------------------------------------------------------------
 Center     Atomic      Atomic             Coordinates (Angstroms)
 Number     Number       Type             X           Y           Z
 ---------------------------------------------------------------------
      1          8           0        0.021859   -2.700208    0.000000
      2          1           0       -0.778109   -3.270784    0.000000
      3          1           0        0.821033   -3.271896    0.000000
      4          8           0        0.021859    2.708872    0.000000
      5          1           0        0.542584    3.542150    0.000000
      6          1           0       -0.935256    2.931213    0.000000
 ---------------------------------------------------------------------

 SCF Done:  E(RHF) =  -152.106527753     A.U. after   10 cycles
 E2 =    -0.5259739176D+00 EUMP2 =    -0.15263250167102D+03
 CCSD(T)
 CCSD(T)= -0.15265973949D+03

 The electronic state is 1-A'.
 Alpha  occ. eigenvalues --  -20.55086 -20.55017  -1.32380  -1.32311  -0.69789
 Alpha  occ. eigenvalues --   -0.69718  -0.55786  -0.55717  -0.49485  -0.49417
 Alpha virt. eigenvalues --    0.14432   0.14669   0.20524   0.20642   0.54761
 Alpha virt. eigenvalues --    0.54878   0.57619   0.57699   0.68088   0.68934
 Alpha virt. eigenvalues --    0.79392   0.79460   0.80835   0.80924   0.82761

 Mulliken charges:
               1
     1  O   -0.503692
     2  H    0.251078
     3  H    0.252616
     4  O   -0.503587
     5  H    0.250736
     6  H    0.252850
 Sum of Mulliken charges =  -0.00000

 Dipole moment (field-independent basis, Debye):
    X=             -0.7487    Y=             -0.1521    Z=              0.0000  Tot=              0.7640
 Quadrupole moment (field-independent basis, Debye-Ang):
   XX=             -8.1090   YY=              9.0575   ZZ=            -14.7103
   XY=             -1.4095   XZ=              0.0000   YZ=              0.0000

 Normal termination of Gaussian 16 at Sat Aug 27 01:39:59 2022.
