 Gaussian 16, Revision A.03,
 Gaussian 16:  ES64L-G16RevA.03 25-Dec-2016

 ------------------
 #p CCSD(T)/cc-pVTZ
 ------------------

 ------------
 H2O_H2O_2610
 ------------
 Symbolic Z-matrix:
 Charge =  0 Multiplicity = 1

                         Standard orientation:
 ---------------------------------------------------------------------
 Center     Atomic      Atomic             Coordinates (Angstroms)
 Number     Number       Type             X           Y           Z
 ---------------------------------------------------------------------
      1          8           0        0.034784   -2.173605    0.000000
      2          1           0       -0.765568   -2.743641    0.000000
      3          1           0        0.833572   -2.745831    0.000000
      4          8           0        0.034784    2.197114    0.000000
      5          1           0        0.322731    3.136579    0.000000
      6          1           0       -0.947287    2.164820    0.000000
 ---------------------------------------------------------------------

 SCF Done:  E(RHF) =  -152.106118214     A.U. after   10 cycles
 E2 =    -0.5261110140D+00 EUMP2 =    -0.15263222922839D+03
 CCSD(T)
 CCSD(T)= -0.15265946625D+03

 The electronic state is 1-A'.
 Alpha  occ. eigenvalues --  -20.54983 -20.54689  -1.32273  -1.31975  -0.69685
 Alpha  occ. eigenvalues --   -0.69377  -0.55663  -0.55345  -0.49376  -0.49080
 Alpha virt. eigenvalues --    0.14043   0.15355   0.20447   0.21081   0.54361
 Alpha virt. eigenvalues --    0.55317   0.57682   0.57985   0.65322   0.72665
 Alpha virt. eigenvalues --    0.79441   0.79846   0.80774   0.81311   0.82559

 Mulliken charges:
               1
     1  O   -0.500795
     2  H    0.248267
     3  H    0.252665
     4  O   -0.500386
     5  H    0.247137
     6  H    0.253112
 Sum of Mulliken charges =  -0.00000

 Dipole moment (field-independent basis, Debye):
    X=             -1.1820    Y=             -0.4206    Z=              0.0000  Tot=              1.2546
 Quadrupole moment (field-independent basis, Debye-Ang):
   XX=             -8.5769   YY=              4.3195   ZZ=            -14.7105
   XY=             -1.7963   XZ=              0.0000   YZ=              0.0000

 Normal termination of Gaussian 16 at Fri Aug 26 14:19:05 2022.
