 Gaussian 16, Revision A.03,
 Gaussian 16:  ES64L-G16RevA.03 25-Dec-2016

 ------------------
 #p CCSD(T)/cc-pVTZ
 ------------------

 -----------
 H2O_H2O_842
 -----------
 Symbolic Z-matrix:
 Charge =  0 Multiplicity = 1

                         Standard orientation:
 ---------------------------------------------------------------------
 Center     Atomic      Atomic             Coordinates (Angstroms)
 Number     Number       Type             X           Y           Z
 ---------------------------------------------------------------------
      1          8           0        0.051336   -1.207960    0.000000
      2          1           0       -0.750261   -1.776244    0.000000
      3          1           0        0.848871   -1.781932    0.000000
      4          8           0        0.051336    1.271300    0.000000
      5          1           0       -0.103804    2.241577    0.000000
      6          1           0       -0.816185    0.809874    0.000000
 ---------------------------------------------------------------------

 SCF Done:  E(RHF) =  -152.098068474     A.U. after   11 cycles
 E2 =    -0.5295844692D+00 EUMP2 =    -0.15262765294318D+03
 CCSD(T)
 CCSD(T)= -0.15265477800D+03

 The electronic state is 1-A'.
 Alpha  occ. eigenvalues --  -20.55116 -20.52713  -1.32845  -1.29962  -0.70235
 Alpha  occ. eigenvalues --   -0.67987  -0.56175  -0.52460  -0.49958  -0.46962
 Alpha virt. eigenvalues --    0.13654   0.17665   0.19922   0.24094   0.52685
 Alpha virt. eigenvalues --    0.57270   0.59112   0.59982   0.71109   0.74811
 Alpha virt. eigenvalues --    0.77545   0.81887   0.82994   0.84682   0.84831

 Mulliken charges:
               1
     1  O   -0.467942
     2  H    0.229275
     3  H    0.247995
     4  O   -0.473632
     5  H    0.213278
     6  H    0.251026
 Sum of Mulliken charges =   0.00000

 Dipole moment (field-independent basis, Debye):
    X=             -1.6004    Y=             -1.2677    Z=              0.0000  Tot=              2.0416
 Quadrupole moment (field-independent basis, Debye-Ang):
   XX=             -9.5221   YY=             -3.9142   ZZ=            -14.7239
   XY=             -1.6928   XZ=              0.0000   YZ=              0.0000

 Normal termination of Gaussian 16 at Fri Aug 26 20:29:38 2022.
