 Gaussian 16, Revision A.03,
 Gaussian 16:  ES64L-G16RevA.03 25-Dec-2016

 ------------------
 #p CCSD(T)/cc-pVTZ
 ------------------

 ------------
 H2O_H2O_1366
 ------------
 Symbolic Z-matrix:
 Charge =  0 Multiplicity = 1

                         Standard orientation:
 ---------------------------------------------------------------------
 Center     Atomic      Atomic             Coordinates (Angstroms)
 Number     Number       Type             X           Y           Z
 ---------------------------------------------------------------------
      1          8           0        0.049541   -1.490708    0.000000
      2          1           0       -0.751627   -2.059596    0.000000
      3          1           0        0.847508   -2.064079    0.000000
      4          8           0        0.049541    1.547543    0.000000
      5          1           0       -0.042546    2.525821    0.000000
      6          1           0       -0.845996    1.143169    0.000000
 ---------------------------------------------------------------------

 SCF Done:  E(RHF) =  -152.105461308     A.U. after   10 cycles
 E2 =    -0.5272956021D+00 EUMP2 =    -0.15263275690975D+03
 CCSD(T)
 CCSD(T)= -0.15265994197D+03

 The electronic state is 1-A'.
 Alpha  occ. eigenvalues --  -20.55229 -20.53664  -1.32541  -1.30918  -0.69964
 Alpha  occ. eigenvalues --   -0.68338  -0.56037  -0.54053  -0.49660  -0.48017
 Alpha virt. eigenvalues --    0.13664   0.16860   0.20048   0.23126   0.54083
 Alpha virt. eigenvalues --    0.56152   0.57460   0.58315   0.66944   0.75863
 Alpha virt. eigenvalues --    0.76940   0.76940   0.79836   0.82186   0.85055

 Mulliken charges:
               1
     1  O   -0.484010
     2  H    0.237566
     3  H    0.251600
     4  O   -0.489044
     5  H    0.231330
     6  H    0.252558
 Sum of Mulliken charges =  -0.00000

 Dipole moment (field-independent basis, Debye):
    X=             -1.6172    Y=             -1.0905    Z=              0.0000  Tot=              1.9505
 Quadrupole moment (field-independent basis, Debye-Ang):
   XX=             -9.3806   YY=             -1.6979   ZZ=            -14.7184
   XY=             -1.9787   XZ=              0.0000   YZ=              0.0000

 Normal termination of Gaussian 16 at Sat Aug 27 04:16:27 2022.
