 Gaussian 16, Revision A.03,
 Gaussian 16:  ES64L-G16RevA.03 25-Dec-2016

 ------------------
 #p CCSD(T)/cc-pVTZ
 ------------------

 ------------
 H2O_H2O_1180
 ------------
 Symbolic Z-matrix:
 Charge =  0 Multiplicity = 1

                         Standard orientation:
 ---------------------------------------------------------------------
 Center     Atomic      Atomic             Coordinates (Angstroms)
 Number     Number       Type             X           Y           Z
 ---------------------------------------------------------------------
      1          8           0        0.018362   -1.425236    0.000000
      2          1           0       -0.781841   -1.995483    0.000000
      3          1           0        0.817300   -1.997253    0.000000
      4          8           0        0.018362    1.431258    0.000000
      5          1           0        0.592798    2.228457    0.000000
      6          1           0       -0.922046    1.716106    0.000000
 ---------------------------------------------------------------------

 SCF Done:  E(RHF) =  -152.100179506     A.U. after   11 cycles
 E2 =    -0.5277480929D+00 EUMP2 =    -0.15262792759914D+03
 CCSD(T)
 CCSD(T)= -0.15265522743D+03

 The electronic state is 1-A'.
 Alpha  occ. eigenvalues --  -20.53791 -20.53636  -1.31238  -1.30853  -0.68636
 Alpha  occ. eigenvalues --   -0.68327  -0.55881  -0.52441  -0.48459  -0.47775
 Alpha virt. eigenvalues --    0.14355   0.16913   0.20530   0.22077   0.51608
 Alpha virt. eigenvalues --    0.58435   0.58712   0.60419   0.68595   0.76478
 Alpha virt. eigenvalues --    0.77270   0.78471   0.79336   0.83119   0.86134

 Mulliken charges:
               1
     1  O   -0.470854
     2  H    0.231927
     3  H    0.238829
     4  O   -0.467335
     5  H    0.230365
     6  H    0.237070
 Sum of Mulliken charges =  -0.00000

 Dipole moment (field-independent basis, Debye):
    X=             -0.5945    Y=             -0.1143    Z=              0.0000  Tot=              0.6054
 Quadrupole moment (field-independent basis, Debye-Ang):
   XX=             -8.1223   YY=             -1.1854   ZZ=            -14.7132
   XY=             -0.3908   XZ=              0.0000   YZ=              0.0000

 Normal termination of Gaussian 16 at Sat Aug 27 02:46:46 2022.
