 Gaussian 16, Revision A.03,
 Gaussian 16:  ES64L-G16RevA.03 25-Dec-2016

 ------------------
 #p CCSD(T)/cc-pVTZ
 ------------------

 ----------
 H2O_H2O_26
 ----------
 Symbolic Z-matrix:
 Charge =  0 Multiplicity = 1

                         Standard orientation:
 ---------------------------------------------------------------------
 Center     Atomic      Atomic             Coordinates (Angstroms)
 Number     Number       Type             X           Y           Z
 ---------------------------------------------------------------------
      1          8           0        0.003735   -0.816764    0.000000
      2          1           0       -0.796060   -1.387581    0.000000
      3          1           0        0.803082   -1.388210    0.000000
      4          8           0        0.003735    0.817005    0.000000
      5          1           0        0.764486    1.438909    0.000000
      6          1           0       -0.831274    1.334948    0.000000
 ---------------------------------------------------------------------

 SCF Done:  E(RHF) =  -151.920577371     A.U. after   11 cycles
 E2 =    -0.5518637574D+00 EUMP2 =    -0.15247244112855D+03
 CCSD(T)
 CCSD(T)= -0.15249669265D+03

 The electronic state is 1-A'.
 Alpha  occ. eigenvalues --  -20.51403 -20.51396  -1.36793  -1.26953  -0.70986
 Alpha  occ. eigenvalues --   -0.68639  -0.65411  -0.52922  -0.43155  -0.32434
 Alpha virt. eigenvalues --    0.14423   0.19702   0.19933   0.23011   0.50422
 Alpha virt. eigenvalues --    0.58733   0.59202   0.66384   0.68013   0.79230
 Alpha virt. eigenvalues --    0.81027   0.83978   0.84074   0.85805   0.87926

 Mulliken charges:
               1
     1  O   -0.336470
     2  H    0.165824
     3  H    0.170706
     4  O   -0.335620
     5  H    0.158103
     6  H    0.177456
 Sum of Mulliken charges =  -0.00000

 Dipole moment (field-independent basis, Debye):
    X=             -0.1087    Y=             -0.0071    Z=              0.0000  Tot=              0.1089
 Quadrupole moment (field-independent basis, Debye-Ang):
   XX=             -8.5835   YY=             -9.1881   ZZ=            -14.7835
   XY=             -0.0622   XZ=              0.0000   YZ=              0.0000

 39332\MP4DQ=-152.4749016\MP4SDQ=-152.4793569\CCSD=-152.477921\CCSD(T)=
 Normal termination of Gaussian 16 at Fri Aug 26 12:00:59 2022.
