 Gaussian 16, Revision A.03,
 Gaussian 16:  ES64L-G16RevA.03 25-Dec-2016

 ------------------
 #p CCSD(T)/cc-pVTZ
 ------------------

 -----------
 H2O_H2O_710
 -----------
 Symbolic Z-matrix:
 Charge =  0 Multiplicity = 1

                         Standard orientation:
 ---------------------------------------------------------------------
 Center     Atomic      Atomic             Coordinates (Angstroms)
 Number     Number       Type             X           Y           Z
 ---------------------------------------------------------------------
      1          8           0        0.034798   -1.163159    0.000000
      2          1           0       -0.766225   -1.732252    0.000000
      3          1           0        0.832912   -1.736326    0.000000
      4          8           0        0.034798    1.186586    0.000000
      5          1           0        0.323852    2.125711    0.000000
      6          1           0       -0.947310    1.155449    0.000000
 ---------------------------------------------------------------------

 SCF Done:  E(RHF) =  -152.089055098     A.U. after   11 cycles
 E2 =    -0.5302756394D+00 EUMP2 =    -0.15261933073766D+03
 CCSD(T)
 CCSD(T)= -0.15264653121D+03

 The electronic state is 1-A'.
 Alpha  occ. eigenvalues --  -20.53529 -20.52763  -1.31606  -1.29878  -0.68873
 Alpha  occ. eigenvalues --   -0.67659  -0.57348  -0.49756  -0.48866  -0.46647
 Alpha virt. eigenvalues --    0.14283   0.17567   0.20357   0.23011   0.52603
 Alpha virt. eigenvalues --    0.58250   0.58361   0.62204   0.70644   0.76168
 Alpha virt. eigenvalues --    0.77532   0.80404   0.83706   0.86016   0.87357

 Mulliken charges:
               1
     1  O   -0.463361
     2  H    0.222948
     3  H    0.239520
     4  O   -0.443806
     5  H    0.205706
     6  H    0.238994
 Sum of Mulliken charges =   0.00000

 Dipole moment (field-independent basis, Debye):
    X=             -1.0679    Y=             -0.4606    Z=              0.0000  Tot=              1.1630
 Quadrupole moment (field-independent basis, Debye-Ang):
   XX=             -8.7268   YY=             -3.7870   ZZ=            -14.7284
   XY=             -0.6535   XZ=              0.0000   YZ=              0.0000

 Normal termination of Gaussian 16 at Fri Aug 26 19:19:15 2022.
