 Gaussian 16, Revision A.03,
 Gaussian 16:  ES64L-G16RevA.03 25-Dec-2016

 ------------------
 #p CCSD(T)/cc-pVTZ
 ------------------

 ------------
 H2O_H2O_4965
 ------------
 Symbolic Z-matrix:
 Charge =  0 Multiplicity = 1

                         Standard orientation:
 ---------------------------------------------------------------------
 Center     Atomic      Atomic             Coordinates (Angstroms)
 Number     Number       Type             X           Y           Z
 ---------------------------------------------------------------------
      1          8           0        0.047518   -3.408680    0.000000
      2          1           0       -0.752732   -3.978860    0.000000
      3          1           0        0.846409   -3.980764    0.000000
      4          8           0        0.047518    3.459333    0.000000
      5          1           0        0.018026    4.441491    0.000000
      6          1           0       -0.871992    3.112912    0.000000
 ---------------------------------------------------------------------

 SCF Done:  E(RHF) =  -152.107271232     A.U. after   10 cycles
 E2 =    -0.5258861883D+00 EUMP2 =    -0.15263315742038D+03
 CCSD(T)
 CCSD(T)= -0.15266038076D+03

 The electronic state is 1-A'.
 Alpha  occ. eigenvalues --  -20.55488 -20.55242  -1.32787  -1.32539  -0.70193
 Alpha  occ. eigenvalues --   -0.69942  -0.56228  -0.55980  -0.49897  -0.49651
 Alpha virt. eigenvalues --    0.14177   0.14423   0.20245   0.20503   0.54371
 Alpha virt. eigenvalues --    0.54631   0.57277   0.57524   0.67973   0.68224
 Alpha virt. eigenvalues --    0.78982   0.79226   0.80417   0.80680   0.82340

 Mulliken charges:
               1
     1  O   -0.508068
     2  H    0.253200
     3  H    0.254869
     4  O   -0.507925
     5  H    0.252538
     6  H    0.255387
 Sum of Mulliken charges =   0.00000

 Dipole moment (field-independent basis, Debye):
    X=             -1.6348    Y=             -0.8825    Z=              0.0000  Tot=              1.8578
 Quadrupole moment (field-independent basis, Debye-Ang):
   XX=             -9.2243   YY=             10.6971   ZZ=            -14.7116
   XY=             -4.8741   XZ=              0.0000   YZ=              0.0000

 Normal termination of Gaussian 16 at Sat Aug 27 10:22:37 2022.
