 Gaussian 16, Revision A.03,
 Gaussian 16:  ES64L-G16RevA.03 25-Dec-2016

 ------------------
 #p CCSD(T)/cc-pVTZ
 ------------------

 ------------
 H2O_H2O_4949
 ------------
 Symbolic Z-matrix:
 Charge =  0 Multiplicity = 1

                         Standard orientation:
 ---------------------------------------------------------------------
 Center     Atomic      Atomic             Coordinates (Angstroms)
 Number     Number       Type             X           Y           Z
 ---------------------------------------------------------------------
      1          8           0        0.057195   -3.360949    0.000000
      2          1           0       -0.743196   -3.930930    0.000000
      3          1           0        0.855944   -3.933231    0.000000
      4          8           0        0.057195    3.475011    0.000000
      5          1           0       -0.512786    4.275403    0.000000
      6          1           0       -0.515086    2.676261    0.000000
 ---------------------------------------------------------------------

 SCF Done:  E(RHF) =  -152.107656305     A.U. after   10 cycles
 E2 =    -0.5258512962D+00 EUMP2 =    -0.15263350760141D+03
 CCSD(T)
 CCSD(T)= -0.15266072285D+03

 The electronic state is 1-A'.
 Alpha  occ. eigenvalues --  -20.55763 -20.55212  -1.33064  -1.32513  -0.70469
 Alpha  occ. eigenvalues --   -0.69913  -0.56522  -0.55966  -0.50177  -0.49627
 Alpha virt. eigenvalues --    0.13932   0.14485   0.20020   0.20603   0.54089
 Alpha virt. eigenvalues --    0.54656   0.57030   0.57580   0.67645   0.68221
 Alpha virt. eigenvalues --    0.78702   0.79245   0.80129   0.80707   0.82054

 Mulliken charges:
               1
     1  O   -0.510352
     2  H    0.254255
     3  H    0.256097
     4  O   -0.510060
     5  H    0.252955
     6  H    0.257104
 Sum of Mulliken charges =   0.00000

 Dipole moment (field-independent basis, Debye):
    X=             -1.9679    Y=             -1.9882    Z=              0.0000  Tot=              2.7974
 Quadrupole moment (field-independent basis, Debye-Ang):
   XX=             -9.8649   YY=              3.5520   ZZ=            -14.7126
   XY=             -6.9787   XZ=              0.0000   YZ=              0.0000

 Normal termination of Gaussian 16 at Sat Aug 27 10:17:20 2022.
