 Gaussian 16, Revision A.03,
 Gaussian 16:  ES64L-G16RevA.03 25-Dec-2016

 ------------------
 #p CCSD(T)/cc-pVTZ
 ------------------

 ------------
 H2O_H2O_4418
 ------------
 Symbolic Z-matrix:
 Charge =  0 Multiplicity = 1

                         Standard orientation:
 ---------------------------------------------------------------------
 Center     Atomic      Atomic             Coordinates (Angstroms)
 Number     Number       Type             X           Y           Z
 ---------------------------------------------------------------------
      1          8           0        0.052817   -3.105467    0.000000
      2          1           0       -0.747580   -3.675442    0.000000
      3          1           0        0.851561   -3.677755    0.000000
      4          8           0        0.052817    3.175828    0.000000
      5          1           0       -0.167473    4.133417    0.000000
      6          1           0       -0.781575    2.656889    0.000000
 ---------------------------------------------------------------------

 SCF Done:  E(RHF) =  -152.107367980     A.U. after   10 cycles
 E2 =    -0.5258842809D+00 EUMP2 =    -0.15263325226053D+03
 CCSD(T)
 CCSD(T)= -0.15266047310D+03

 The electronic state is 1-A'.
 Alpha  occ. eigenvalues --  -20.55563 -20.55150  -1.32862  -1.32447  -0.70268
 Alpha  occ. eigenvalues --   -0.69847  -0.56307  -0.55891  -0.49973  -0.49560
 Alpha virt. eigenvalues --    0.14099   0.14531   0.20181   0.20624   0.54293
 Alpha virt. eigenvalues --    0.54728   0.57209   0.57623   0.67864   0.68330
 Alpha virt. eigenvalues --    0.78907   0.79314   0.80338   0.80776   0.82272

 Mulliken charges:
               1
     1  O   -0.508657
     2  H    0.253145
     3  H    0.255513
     4  O   -0.508396
     5  H    0.252033
     6  H    0.256362
 Sum of Mulliken charges =   0.00000

 Dipole moment (field-independent basis, Debye):
    X=             -1.8152    Y=             -1.2296    Z=              0.0000  Tot=              2.1925
 Quadrupole moment (field-independent basis, Debye-Ang):
   XX=             -9.5594   YY=              7.0125   ZZ=            -14.7119
   XY=             -5.2162   XZ=              0.0000   YZ=              0.0000

 Normal termination of Gaussian 16 at Sat Aug 27 07:12:43 2022.
