 Gaussian 16, Revision A.03,
 Gaussian 16:  ES64L-G16RevA.03 25-Dec-2016

 ------------------
 #p CCSD(T)/cc-pVTZ
 ------------------

 ------------
 H2O_H2O_4106
 ------------
 Symbolic Z-matrix:
 Charge =  0 Multiplicity = 1

                         Standard orientation:
 ---------------------------------------------------------------------
 Center     Atomic      Atomic             Coordinates (Angstroms)
 Number     Number       Type             X           Y           Z
 ---------------------------------------------------------------------
      1          8           0        0.021859   -2.979421    0.000000
      2          1           0       -0.778072   -3.550049    0.000000
      3          1           0        0.821070   -3.551057    0.000000
      4          8           0        0.021859    2.988088    0.000000
      5          1           0        0.542530    3.821400    0.000000
      6          1           0       -0.935271    3.210366    0.000000
 ---------------------------------------------------------------------

 SCF Done:  E(RHF) =  -152.106768109     A.U. after   10 cycles
 E2 =    -0.5259398886D+00 EUMP2 =    -0.15263270799729D+03
 CCSD(T)
 CCSD(T)= -0.15265994146D+03

 The electronic state is 1-A'.
 Alpha  occ. eigenvalues --  -20.55184 -20.55128  -1.32480  -1.32423  -0.69887
 Alpha  occ. eigenvalues --   -0.69829  -0.55897  -0.55841  -0.49586  -0.49530
 Alpha virt. eigenvalues --    0.14422   0.14514   0.20477   0.20545   0.54680
 Alpha virt. eigenvalues --    0.54746   0.57543   0.57602   0.68278   0.68464
 Alpha virt. eigenvalues --    0.79292   0.79348   0.80737   0.80799   0.82667

 Mulliken charges:
               1
     1  O   -0.505097
     2  H    0.251966
     3  H    0.253132
     4  O   -0.505032
     5  H    0.251690
     6  H    0.253341
 Sum of Mulliken charges =  -0.00000

 Dipole moment (field-independent basis, Debye):
    X=             -0.7503    Y=             -0.1516    Z=              0.0000  Tot=              0.7654
 Quadrupole moment (field-independent basis, Debye-Ang):
   XX=             -8.1053   YY=             11.2174   ZZ=            -14.7106
   XY=             -1.6167   XZ=              0.0000   YZ=              0.0000

 Normal termination of Gaussian 16 at Sat Aug 27 05:24:53 2022.
