 Gaussian 16, Revision A.03,
 Gaussian 16:  ES64L-G16RevA.03 25-Dec-2016

 ------------------
 #p CCSD(T)/cc-pVTZ
 ------------------

 ------------
 H2O_H2O_1665
 ------------
 Symbolic Z-matrix:
 Charge =  0 Multiplicity = 1

                         Standard orientation:
 ---------------------------------------------------------------------
 Center     Atomic      Atomic             Coordinates (Angstroms)
 Number     Number       Type             X           Y           Z
 ---------------------------------------------------------------------
      1          8           0        0.047550   -1.653682    0.000000
      2          1           0       -0.753410   -2.222865    0.000000
      3          1           0        0.845728   -2.226759    0.000000
      4          8           0        0.047550    1.704216    0.000000
      5          1           0        0.019280    2.686411    0.000000
      6          1           0       -0.872391    1.358939    0.000000
 ---------------------------------------------------------------------

 SCF Done:  E(RHF) =  -152.106040039     A.U. after   10 cycles
 E2 =    -0.5267604004D+00 EUMP2 =    -0.15263280043975D+03
 CCSD(T)
 CCSD(T)= -0.15265999502D+03

 The electronic state is 1-A'.
 Alpha  occ. eigenvalues --  -20.55169 -20.54022  -1.32448  -1.31283  -0.69869
 Alpha  occ. eigenvalues --   -0.68667  -0.55895  -0.54532  -0.49560  -0.48393
 Alpha virt. eigenvalues --    0.13655   0.16466   0.20149   0.22505   0.53893
 Alpha virt. eigenvalues --    0.55062   0.57541   0.58566   0.64659   0.76648
 Alpha virt. eigenvalues --    0.78112   0.78449   0.78793   0.81390   0.85126

 Mulliken charges:
               1
     1  O   -0.489873
     2  H    0.240887
     3  H    0.251956
     4  O   -0.493833
     5  H    0.237118
     6  H    0.253745
 Sum of Mulliken charges =  -0.00000

 Dipole moment (field-independent basis, Debye):
    X=             -1.5766    Y=             -0.9495    Z=              0.0000  Tot=              1.8404
 Quadrupole moment (field-independent basis, Debye-Ang):
   XX=             -9.2493   YY=             -0.3872   ZZ=            -14.7147
   XY=             -2.0540   XZ=              0.0000   YZ=              0.0000

 Normal termination of Gaussian 16 at Sat Aug 27 06:06:13 2022.
