 Gaussian 16, Revision A.03,
 Gaussian 16:  ES64L-G16RevA.03 25-Dec-2016

 ------------------
 #p CCSD(T)/cc-pVTZ
 ------------------

 ------------
 H2O_H2O_1028
 ------------
 Symbolic Z-matrix:
 Charge =  0 Multiplicity = 1

                         Standard orientation:
 ---------------------------------------------------------------------
 Center     Atomic      Atomic             Coordinates (Angstroms)
 Number     Number       Type             X           Y           Z
 ---------------------------------------------------------------------
      1          8           0        0.011143   -1.347547    0.000000
      2          1           0       -0.788834   -1.918111    0.000000
      3          1           0        0.810308   -1.919248    0.000000
      4          8           0        0.011143    1.349726    0.000000
      5          1           0        0.684437    2.065395    0.000000
      6          1           0       -0.884199    1.754533    0.000000
 ---------------------------------------------------------------------

 SCF Done:  E(RHF) =  -152.097404747     A.U. after   11 cycles
 E2 =    -0.5282635943D+00 EUMP2 =    -0.15262566834100D+03
 CCSD(T)
 CCSD(T)= -0.15265298402D+03

 The electronic state is 1-A'.
 Alpha  occ. eigenvalues --  -20.53464 -20.53405  -1.31088  -1.30559  -0.68448
 Alpha  occ. eigenvalues --   -0.68073  -0.56255  -0.51483  -0.48345  -0.47411
 Alpha virt. eigenvalues --    0.14444   0.17167   0.20558   0.22168   0.50917
 Alpha virt. eigenvalues --    0.58602   0.58802   0.61732   0.71493   0.76510
 Alpha virt. eigenvalues --    0.76923   0.78564   0.80181   0.83562   0.86327

 Mulliken charges:
               1
     1  O   -0.465502
     2  H    0.230272
     3  H    0.235024
     4  O   -0.463380
     5  H    0.229509
     6  H    0.234078
 Sum of Mulliken charges =  -0.00000

 Dipole moment (field-independent basis, Debye):
    X=             -0.3564    Y=             -0.0416    Z=              0.0000  Tot=              0.3588
 Quadrupole moment (field-independent basis, Debye-Ang):
   XX=             -8.0177   YY=             -1.8833   ZZ=            -14.7168
   XY=             -0.1969   XZ=              0.0000   YZ=              0.0000

 Normal termination of Gaussian 16 at Sat Aug 27 01:30:50 2022.
