 Gaussian 16, Revision A.03,
 Gaussian 16:  ES64L-G16RevA.03 25-Dec-2016

 ------------------
 #p CCSD(T)/cc-pVTZ
 ------------------

 ------------
 H2O_H2O_1622
 ------------
 Symbolic Z-matrix:
 Charge =  0 Multiplicity = 1

                         Standard orientation:
 ---------------------------------------------------------------------
 Center     Atomic      Atomic             Coordinates (Angstroms)
 Number     Number       Type             X           Y           Z
 ---------------------------------------------------------------------
      1          8           0        0.056771   -1.600778    0.000000
      2          1           0       -0.744483   -2.169546    0.000000
      3          1           0        0.854652   -2.174270    0.000000
      4          8           0        0.056771    1.699760    0.000000
      5          1           0       -0.402546    2.568400    0.000000
      6          1           0       -0.615958    0.983561    0.000000
 ---------------------------------------------------------------------

 SCF Done:  E(RHF) =  -152.109002996     A.U. after   10 cycles
 E2 =    -0.5268264936D+00 EUMP2 =    -0.15263582948993D+03
 CCSD(T)
 CCSD(T)= -0.15266294630D+03

 The electronic state is 1-A'.
 Alpha  occ. eigenvalues --  -20.56251 -20.53664  -1.33528  -1.30966  -0.70932
 Alpha  occ. eigenvalues --   -0.68372  -0.56965  -0.54446  -0.50648  -0.48100
 Alpha virt. eigenvalues --    0.13066   0.16869   0.19699   0.24534   0.52988
 Alpha virt. eigenvalues --    0.55438   0.56711   0.58200   0.67219   0.75583
 Alpha virt. eigenvalues --    0.76590   0.76783   0.79910   0.81328   0.84294

 Mulliken charges:
               1
     1  O   -0.495169
     2  H    0.245725
     3  H    0.258474
     4  O   -0.512271
     5  H    0.240027
     6  H    0.263214
 Sum of Mulliken charges =  -0.00000

 Dipole moment (field-independent basis, Debye):
    X=             -1.8811    Y=             -1.9011    Z=              0.0000  Tot=              2.6745
 Quadrupole moment (field-independent basis, Debye-Ang):
   XX=             -9.8282   YY=             -2.7537   ZZ=            -14.7226
   XY=             -3.2646   XZ=              0.0000   YZ=              0.0000

 Normal termination of Gaussian 16 at Sat Aug 27 05:49:58 2022.
