 Gaussian 16, Revision A.03,
 Gaussian 16:  ES64L-G16RevA.03 25-Dec-2016

 ------------------
 #p CCSD(T)/cc-pVTZ
 ------------------

 ------------
 H2O_H2O_1721
 ------------
 Symbolic Z-matrix:
 Charge =  0 Multiplicity = 1

                         Standard orientation:
 ---------------------------------------------------------------------
 Center     Atomic      Atomic             Coordinates (Angstroms)
 Number     Number       Type             X           Y           Z
 ---------------------------------------------------------------------
      1          8           0        0.056146   -1.657958    0.000000
      2          1           0       -0.745039   -2.226825    0.000000
      3          1           0        0.854097   -2.231351    0.000000
      4          8           0        0.056146    1.749583    0.000000
      5          1           0       -0.345487    2.646353    0.000000
      6          1           0       -0.661903    1.078826    0.000000
 ---------------------------------------------------------------------

 SCF Done:  E(RHF) =  -152.108502475     A.U. after   10 cycles
 E2 =    -0.5266664834D+00 EUMP2 =    -0.15263516895828D+03
 CCSD(T)
 CCSD(T)= -0.15266230497D+03

 The electronic state is 1-A'.
 Alpha  occ. eigenvalues --  -20.56043 -20.53842  -1.33315  -1.31133  -0.70724
 Alpha  occ. eigenvalues --   -0.68514  -0.56749  -0.54595  -0.50434  -0.48264
 Alpha virt. eigenvalues --    0.13148   0.16676   0.19788   0.23924   0.53421
 Alpha virt. eigenvalues --    0.55229   0.56809   0.58251   0.66376   0.75495
 Alpha virt. eigenvalues --    0.77273   0.77392   0.79257   0.81117   0.84450

 Mulliken charges:
               1
     1  O   -0.495959
     2  H    0.245538
     3  H    0.257322
     4  O   -0.509630
     5  H    0.240770
     6  H    0.261958
 Sum of Mulliken charges =  -0.00000

 Dipole moment (field-independent basis, Debye):
    X=             -1.8673    Y=             -1.7400    Z=              0.0000  Tot=              2.5523
 Quadrupole moment (field-independent basis, Debye-Ang):
   XX=             -9.7860   YY=             -2.0964   ZZ=            -14.7202
   XY=             -3.1978   XZ=              0.0000   YZ=              0.0000

 Normal termination of Gaussian 16 at Sat Aug 27 06:24:34 2022.
