 Gaussian 16, Revision A.03,
 Gaussian 16:  ES64L-G16RevA.03 25-Dec-2016

 ------------------
 #p CCSD(T)/cc-pVTZ
 ------------------

 ------------
 H2O_H2O_2882
 ------------
 Symbolic Z-matrix:
 Charge =  0 Multiplicity = 1

                         Standard orientation:
 ---------------------------------------------------------------------
 Center     Atomic      Atomic             Coordinates (Angstroms)
 Number     Number       Type             X           Y           Z
 ---------------------------------------------------------------------
      1          8           0        0.025266   -2.326256    0.000000
      2          1           0       -0.774837   -2.896642    0.000000
      3          1           0        0.824304   -2.898133    0.000000
      4          8           0        0.025266    2.337989    0.000000
      5          1           0        0.490581    3.203429    0.000000
      6          1           0       -0.944305    2.497484    0.000000
 ---------------------------------------------------------------------

 SCF Done:  E(RHF) =  -152.106093221     A.U. after   10 cycles
 E2 =    -0.5260587770D+00 EUMP2 =    -0.15263215199811D+03
 CCSD(T)
 CCSD(T)= -0.15265939529D+03

 The electronic state is 1-A'.
 Alpha  occ. eigenvalues --  -20.54935 -20.54809  -1.32227  -1.32100  -0.69638
 Alpha  occ. eigenvalues --   -0.69506  -0.55616  -0.55474  -0.49329  -0.49203
 Alpha virt. eigenvalues --    0.14281   0.15081   0.20542   0.20870   0.54708
 Alpha virt. eigenvalues --    0.55224   0.57716   0.57887   0.66444   0.71083
 Alpha virt. eigenvalues --    0.79522   0.79693   0.80947   0.81195   0.82530

 Mulliken charges:
               1
     1  O   -0.501083
     2  H    0.249213
     3  H    0.251893
     4  O   -0.500819
     5  H    0.248636
     6  H    0.252161
 Sum of Mulliken charges =  -0.00000

 Dipole moment (field-independent basis, Debye):
    X=             -0.8612    Y=             -0.2081    Z=              0.0000  Tot=              0.8860
 Quadrupole moment (field-independent basis, Debye-Ang):
   XX=             -8.2172   YY=              6.0043   ZZ=            -14.7100
   XY=             -1.3360   XZ=              0.0000   YZ=              0.0000

 Normal termination of Gaussian 16 at Fri Aug 26 17:06:48 2022.
