 Gaussian 16, Revision A.03,
 Gaussian 16:  ES64L-G16RevA.03 25-Dec-2016

 ------------------
 #p CCSD(T)/cc-pVTZ
 ------------------

 ------------
 H2O_H2O_2240
 ------------
 Symbolic Z-matrix:
 Charge =  0 Multiplicity = 1

                         Standard orientation:
 ---------------------------------------------------------------------
 Center     Atomic      Atomic             Coordinates (Angstroms)
 Number     Number       Type             X           Y           Z
 ---------------------------------------------------------------------
      1          8           0        0.047540   -1.959469    0.000000
      2          1           0       -0.753206   -2.528953    0.000000
      3          1           0        0.845933   -2.532247    0.000000
      4          8           0        0.047540    2.010039    0.000000
      5          1           0        0.018902    2.992223    0.000000
      6          1           0       -0.872271    1.664418    0.000000
 ---------------------------------------------------------------------

 SCF Done:  E(RHF) =  -152.106650566     A.U. after   10 cycles
 E2 =    -0.5262358542D+00 EUMP2 =    -0.15263288642067D+03
 CCSD(T)
 CCSD(T)= -0.15266009482D+03

 The electronic state is 1-A'.
 Alpha  occ. eigenvalues --  -20.55262 -20.54449  -1.32544  -1.31729  -0.69957
 Alpha  occ. eigenvalues --   -0.69113  -0.55945  -0.55116  -0.49651  -0.48842
 Alpha virt. eigenvalues --    0.13576   0.15842   0.20208   0.21731   0.53673
 Alpha virt. eigenvalues --    0.54910   0.57488   0.58295   0.64709   0.75084
 Alpha virt. eigenvalues --    0.79044   0.79634   0.80191   0.81476   0.83864

 Mulliken charges:
               1
     1  O   -0.500405
     2  H    0.246966
     3  H    0.254539
     4  O   -0.501867
     5  H    0.244592
     6  H    0.256175
 Sum of Mulliken charges =  -0.00000

 Dipole moment (field-independent basis, Debye):
    X=             -1.6049    Y=             -0.9213    Z=              0.0000  Tot=              1.8506
 Quadrupole moment (field-independent basis, Debye-Ang):
   XX=             -9.2333   YY=              1.6140   ZZ=            -14.7127
   XY=             -2.5387   XZ=              0.0000   YZ=              0.0000

 Normal termination of Gaussian 16 at Sat Aug 27 09:23:48 2022.
