 Gaussian 16, Revision A.03,
 Gaussian 16:  ES64L-G16RevA.03 25-Dec-2016

 ------------------
 #p CCSD(T)/cc-pVTZ
 ------------------

 ------------
 H2O_H2O_1896
 ------------
 Symbolic Z-matrix:
 Charge =  0 Multiplicity = 1

                         Standard orientation:
 ---------------------------------------------------------------------
 Center     Atomic      Atomic             Coordinates (Angstroms)
 Number     Number       Type             X           Y           Z
 ---------------------------------------------------------------------
      1          8           0        0.056139   -1.751021    0.000000
      2          1           0       -0.744962   -2.320005    0.000000
      3          1           0        0.854174   -2.324296    0.000000
      4          8           0        0.056139    1.842661    0.000000
      5          1           0       -0.345625    2.739374    0.000000
      6          1           0       -0.661811    1.171801    0.000000
 ---------------------------------------------------------------------

 SCF Done:  E(RHF) =  -152.108431963     A.U. after   10 cycles
 E2 =    -0.5264584810D+00 EUMP2 =    -0.15263489044428D+03
 CCSD(T)
 CCSD(T)= -0.15266203764D+03

 The electronic state is 1-A'.
 Alpha  occ. eigenvalues --  -20.55985 -20.54028  -1.33254  -1.31319  -0.70663
 Alpha  occ. eigenvalues --   -0.68688  -0.56700  -0.54778  -0.50373  -0.48448
 Alpha virt. eigenvalues --    0.13122   0.16451   0.19829   0.23506   0.53628
 Alpha virt. eigenvalues --    0.55071   0.56858   0.58409   0.65916   0.75053
 Alpha virt. eigenvalues --    0.77917   0.78582   0.79021   0.80747   0.84490

 Mulliken charges:
               1
     1  O   -0.499106
     2  H    0.247022
     3  H    0.257368
     4  O   -0.510264
     5  H    0.242822
     6  H    0.262157
 Sum of Mulliken charges =  -0.00000

 Dipole moment (field-independent basis, Debye):
    X=             -1.8787    Y=             -1.7185    Z=              0.0000  Tot=              2.5461
 Quadrupole moment (field-independent basis, Debye-Ang):
   XX=             -9.7843   YY=             -1.6230   ZZ=            -14.7186
   XY=             -3.3706   XZ=              0.0000   YZ=              0.0000

 Normal termination of Gaussian 16 at Sat Aug 27 07:25:08 2022.
