 Gaussian 16, Revision A.03,
 Gaussian 16:  ES64L-G16RevA.03 25-Dec-2016

 ------------------
 #p CCSD(T)/cc-pVTZ
 ------------------

 ------------
 H2O_H2O_3164
 ------------
 Symbolic Z-matrix:
 Charge =  0 Multiplicity = 1

                         Standard orientation:
 ---------------------------------------------------------------------
 Center     Atomic      Atomic             Coordinates (Angstroms)
 Number     Number       Type             X           Y           Z
 ---------------------------------------------------------------------
      1          8           0        0.045346   -2.454690    0.000000
      2          1           0       -0.755123   -3.024562    0.000000
      3          1           0        0.844017   -3.027080    0.000000
      4          8           0        0.045346    2.499237    0.000000
      5          1           0        0.080531    3.481208    0.000000
      6          1           0       -0.894962    2.214058    0.000000
 ---------------------------------------------------------------------

 SCF Done:  E(RHF) =  -152.106847509     A.U. after   10 cycles
 E2 =    -0.5259768930D+00 EUMP2 =    -0.15263282440210D+03
 CCSD(T)
 CCSD(T)= -0.15266005265D+03

 The electronic state is 1-A'.
 Alpha  occ. eigenvalues --  -20.55301 -20.54870  -1.32596  -1.32162  -0.70005
 Alpha  occ. eigenvalues --   -0.69558  -0.56015  -0.55582  -0.49703  -0.49272
 Alpha virt. eigenvalues --    0.14048   0.14984   0.20312   0.20920   0.54467
 Alpha virt. eigenvalues --    0.55005   0.57431   0.57838   0.67226   0.69905
 Alpha virt. eigenvalues --    0.79176   0.79599   0.80538   0.81074   0.82799

 Mulliken charges:
               1
     1  O   -0.505507
     2  H    0.250740
     3  H    0.254831
     4  O   -0.505067
     5  H    0.249302
     6  H    0.255701
 Sum of Mulliken charges =  -0.00000

 Dipole moment (field-independent basis, Debye):
    X=             -1.5496    Y=             -0.7881    Z=              0.0000  Tot=              1.7385
 Quadrupole moment (field-independent basis, Debye-Ang):
   XX=             -9.0993   YY=              5.1303   ZZ=            -14.7113
   XY=             -3.0869   XZ=              0.0000   YZ=              0.0000

 Normal termination of Gaussian 16 at Fri Aug 26 19:58:08 2022.
