 Gaussian 16, Revision A.03,
 Gaussian 16:  ES64L-G16RevA.03 25-Dec-2016

 ------------------
 #p CCSD(T)/cc-pVTZ
 ------------------

 -----------
 H2O_H2O_570
 -----------
 Symbolic Z-matrix:
 Charge =  0 Multiplicity = 1

                         Standard orientation:
 ---------------------------------------------------------------------
 Center     Atomic      Atomic             Coordinates (Angstroms)
 Number     Number       Type             X           Y           Z
 ---------------------------------------------------------------------
      1          8           0        0.055351   -1.050384    0.000000
      2          1           0       -0.746696   -1.618035    0.000000
      3          1           0        0.852431   -1.624987    0.000000
      4          8           0        0.055351    1.134566    0.000000
      5          1           0       -0.285373    2.056202    0.000000
      6          1           0       -0.705972    0.513363    0.000000
 ---------------------------------------------------------------------

 SCF Done:  E(RHF) =  -152.079752240     A.U. after   11 cycles
 E2 =    -0.5333939396D+00 EUMP2 =    -0.15261314617980D+03
 CCSD(T)
 CCSD(T)= -0.15263992358D+03

 The electronic state is 1-A'.
 Alpha  occ. eigenvalues --  -20.55703 -20.51327  -1.34514  -1.28735  -0.71922
 Alpha  occ. eigenvalues --   -0.68946  -0.54645  -0.51594  -0.51312  -0.45700
 Alpha virt. eigenvalues --    0.13333   0.18490   0.19518   0.25519   0.50985
 Alpha virt. eigenvalues --    0.56170   0.61001   0.63186   0.71943   0.74398
 Alpha virt. eigenvalues --    0.78444   0.82336   0.83875   0.84720   0.87504

 Mulliken charges:
               1
     1  O   -0.428629
     2  H    0.214706
     3  H    0.240383
     4  O   -0.478350
     5  H    0.196690
     6  H    0.255200
 Sum of Mulliken charges =   0.00000

 Dipole moment (field-independent basis, Debye):
    X=             -1.6567    Y=             -1.8149    Z=              0.0000  Tot=              2.4574
 Quadrupole moment (field-independent basis, Debye-Ang):
   XX=             -9.7609   YY=             -5.6846   ZZ=            -14.6975
   XY=             -1.9092   XZ=              0.0000   YZ=              0.0000

 Normal termination of Gaussian 16 at Fri Aug 26 17:44:25 2022.
