 Gaussian 16, Revision A.03,
 Gaussian 16:  ES64L-G16RevA.03 25-Dec-2016

 ------------------
 #p CCSD(T)/cc-pVTZ
 ------------------

 ------------
 H2O_H2O_2778
 ------------
 Symbolic Z-matrix:
 Charge =  0 Multiplicity = 1

                         Standard orientation:
 ---------------------------------------------------------------------
 Center     Atomic      Atomic             Coordinates (Angstroms)
 Number     Number       Type             X           Y           Z
 ---------------------------------------------------------------------
      1          8           0        0.011143   -2.278258    0.000000
      2          1           0       -0.788669   -2.849053    0.000000
      3          1           0        0.810473   -2.849726    0.000000
      4          8           0        0.011143    2.280443    0.000000
      5          1           0        0.684229    2.996306    0.000000
      6          1           0       -0.884317    2.684989    0.000000
 ---------------------------------------------------------------------

 SCF Done:  E(RHF) =  -152.105815228     A.U. after   10 cycles
 E2 =    -0.5260929119D+00 EUMP2 =    -0.15263190813985D+03
 CCSD(T)
 CCSD(T)= -0.15265915640D+03

 The electronic state is 1-A'.
 Alpha  occ. eigenvalues --  -20.54807 -20.54782  -1.32097  -1.32072  -0.69509
 Alpha  occ. eigenvalues --   -0.69483  -0.55501  -0.55402  -0.49199  -0.49172
 Alpha virt. eigenvalues --    0.14345   0.15135   0.20614   0.20868   0.54779
 Alpha virt. eigenvalues --    0.55361   0.57795   0.57922   0.65878   0.71668
 Alpha virt. eigenvalues --    0.79605   0.79770   0.81115   0.81181   0.82326

 Mulliken charges:
               1
     1  O   -0.499401
     2  H    0.249077
     3  H    0.250330
     4  O   -0.499336
     5  H    0.248885
     6  H    0.250446
 Sum of Mulliken charges =  -0.00000

 Dipole moment (field-independent basis, Debye):
    X=             -0.3794    Y=             -0.0388    Z=              0.0000  Tot=              0.3814
 Quadrupole moment (field-independent basis, Debye-Ang):
   XX=             -7.8990   YY=              6.0445   ZZ=            -14.7096
   XY=             -0.5361   XZ=              0.0000   YZ=              0.0000

 Normal termination of Gaussian 16 at Fri Aug 26 16:04:59 2022.
