 Gaussian 16, Revision A.03,
 Gaussian 16:  ES64L-G16RevA.03 25-Dec-2016

 ------------------
 #p CCSD(T)/cc-pVTZ
 ------------------

 ------------
 H2O_H2O_4074
 ------------
 Symbolic Z-matrix:
 Charge =  0 Multiplicity = 1

                         Standard orientation:
 ---------------------------------------------------------------------
 Center     Atomic      Atomic             Coordinates (Angstroms)
 Number     Number       Type             X           Y           Z
 ---------------------------------------------------------------------
      1          8           0        0.057208   -2.895606    0.000000
      2          1           0       -0.743313   -3.465405    0.000000
      3          1           0        0.855827   -3.468068    0.000000
      4          8           0        0.057208    3.009642    0.000000
      5          1           0       -0.512592    3.810163    0.000000
      6          1           0       -0.515254    2.211023    0.000000
 ---------------------------------------------------------------------

 SCF Done:  E(RHF) =  -152.107780992     A.U. after   10 cycles
 E2 =    -0.5258562154D+00 EUMP2 =    -0.15263363720745D+03
 CCSD(T)
 CCSD(T)= -0.15266084859D+03

 The electronic state is 1-A'.
 Alpha  occ. eigenvalues --  -20.55810 -20.55053  -1.33111  -1.32353  -0.70516
 Alpha  occ. eigenvalues --   -0.69750  -0.56576  -0.55809  -0.50225  -0.49470
 Alpha virt. eigenvalues --    0.13820   0.14699   0.19986   0.20820   0.54037
 Alpha virt. eigenvalues --    0.54809   0.56991   0.57733   0.67435   0.68518
 Alpha virt. eigenvalues --    0.78657   0.79397   0.80076   0.80710   0.82268

 Mulliken charges:
               1
     1  O   -0.511096
     2  H    0.254143
     3  H    0.256973
     4  O   -0.510564
     5  H    0.252073
     6  H    0.258471
 Sum of Mulliken charges =  -0.00000

 Dipole moment (field-independent basis, Debye):
    X=             -1.9645    Y=             -1.9994    Z=              0.0000  Tot=              2.8030
 Quadrupole moment (field-independent basis, Debye-Ang):
   XX=             -9.8640   YY=              1.6958   ZZ=            -14.7130
   XY=             -6.0683   XZ=              0.0000   YZ=              0.0000

 Normal termination of Gaussian 16 at Sat Aug 27 05:14:24 2022.
