 Gaussian 16, Revision A.03,
 Gaussian 16:  ES64L-G16RevA.03 25-Dec-2016

 ------------------
 #p CCSD(T)/cc-pVTZ
 ------------------

 -----------
 H2O_H2O_272
 -----------
 Symbolic Z-matrix:
 Charge =  0 Multiplicity = 1

                         Standard orientation:
 ---------------------------------------------------------------------
 Center     Atomic      Atomic             Coordinates (Angstroms)
 Number     Number       Type             X           Y           Z
 ---------------------------------------------------------------------
      1          8           0        0.056883   -0.882934    0.000000
      2          1           0       -0.745663   -1.449878    0.000000
      3          1           0        0.853457   -1.458239    0.000000
      4          8           0        0.056883    0.981657    0.000000
      5          1           0       -0.400457    1.851339    0.000000
      6          1           0       -0.617473    0.266991    0.000000
 ---------------------------------------------------------------------

 SCF Done:  E(RHF) =  -152.004167484     A.U. after   11 cycles
 E2 =    -0.5423177229D+00 EUMP2 =    -0.15254648520675D+03
 CCSD(T)
 CCSD(T)= -0.15257205009D+03

 The electronic state is 1-A'.
 Alpha  occ. eigenvalues --  -20.56431 -20.48522  -1.38784  -1.26542  -0.76549
 Alpha  occ. eigenvalues --   -0.71587  -0.54039  -0.51087  -0.47619  -0.43454
 Alpha virt. eigenvalues --    0.12853   0.18485   0.19934   0.26689   0.49419
 Alpha virt. eigenvalues --    0.54189   0.62729   0.68013   0.72844   0.75465
 Alpha virt. eigenvalues --    0.78950   0.79151   0.84038   0.85362   0.88218

 Mulliken charges:
               1
     1  O   -0.338962
     2  H    0.185344
     3  H    0.227241
     4  O   -0.502083
     5  H    0.163848
     6  H    0.264612
 Sum of Mulliken charges =  -0.00000

 Dipole moment (field-independent basis, Debye):
    X=             -1.5747    Y=             -2.4523    Z=              0.0000  Tot=              2.9143
 Quadrupole moment (field-independent basis, Debye-Ang):
   XX=             -9.8225   YY=             -7.7150   ZZ=            -14.5992
   XY=             -1.8676   XZ=              0.0000   YZ=              0.0000

 Normal termination of Gaussian 16 at Fri Aug 26 14:44:58 2022.
