 Gaussian 16, Revision A.03,
 Gaussian 16:  ES64L-G16RevA.03 25-Dec-2016

 ------------------
 #p CCSD(T)/cc-pVTZ
 ------------------

 ------------
 H2O_H2O_2458
 ------------
 Symbolic Z-matrix:
 Charge =  0 Multiplicity = 1

                         Standard orientation:
 ---------------------------------------------------------------------
 Center     Atomic      Atomic             Coordinates (Angstroms)
 Number     Number       Type             X           Y           Z
 ---------------------------------------------------------------------
      1          8           0        0.028565   -2.098323    0.000000
      2          1           0       -0.771672   -2.668521    0.000000
      3          1           0        0.827469   -2.670388    0.000000
      4          8           0        0.028565    2.113559    0.000000
      5          1           0        0.436493    3.007484    0.000000
      6          1           0       -0.949338    2.209530    0.000000
 ---------------------------------------------------------------------

 SCF Done:  E(RHF) =  -152.105776035     A.U. after   10 cycles
 E2 =    -0.5261756704D+00 EUMP2 =    -0.15263195170557D+03
 CCSD(T)
 CCSD(T)= -0.15265919248D+03

 The electronic state is 1-A'.
 Alpha  occ. eigenvalues --  -20.54840 -20.54634  -1.32127  -1.31919  -0.69541
 Alpha  occ. eigenvalues --   -0.69324  -0.55525  -0.55239  -0.49228  -0.49020
 Alpha virt. eigenvalues --    0.14088   0.15464   0.20512   0.21104   0.54298
 Alpha virt. eigenvalues --    0.55543   0.57778   0.58045   0.64300   0.73552
 Alpha virt. eigenvalues --    0.79501   0.79988   0.80849   0.81159   0.82374

 Mulliken charges:
               1
     1  O   -0.498503
     2  H    0.247329
     3  H    0.251301
     4  O   -0.498162
     5  H    0.246451
     6  H    0.251583
 Sum of Mulliken charges =  -0.00000

 Dipole moment (field-independent basis, Debye):
    X=             -0.9686    Y=             -0.2738    Z=              0.0000  Tot=              1.0065
 Quadrupole moment (field-independent basis, Debye-Ang):
   XX=             -8.3353   YY=              4.1052   ZZ=            -14.7102
   XY=             -1.3250   XZ=              0.0000   YZ=              0.0000

 Normal termination of Gaussian 16 at Sat Aug 27 10:40:15 2022.
