 Gaussian 16, Revision A.03,
 Gaussian 16:  ES64L-G16RevA.03 25-Dec-2016

 ------------------
 #p CCSD(T)/cc-pVTZ
 ------------------

 ------------
 H2O_H2O_3999
 ------------
 Symbolic Z-matrix:
 Charge =  0 Multiplicity = 1

                         Standard orientation:
 ---------------------------------------------------------------------
 Center     Atomic      Atomic             Coordinates (Angstroms)
 Number     Number       Type             X           Y           Z
 ---------------------------------------------------------------------
      1          8           0        0.057210   -2.855719    0.000000
      2          1           0       -0.743324   -3.425501    0.000000
      3          1           0        0.855815   -3.428200    0.000000
      4          8           0        0.057210    2.969753    0.000000
      5          1           0       -0.512572    3.770288    0.000000
      6          1           0       -0.515271    2.171147    0.000000
 ---------------------------------------------------------------------

 SCF Done:  E(RHF) =  -152.107797660     A.U. after   10 cycles
 E2 =    -0.5258574411D+00 EUMP2 =    -0.15263365510138D+03
 CCSD(T)
 CCSD(T)= -0.15266086588D+03

 The electronic state is 1-A'.
 Alpha  occ. eigenvalues --  -20.55816 -20.55035  -1.33116  -1.32336  -0.70522
 Alpha  occ. eigenvalues --   -0.69732  -0.56582  -0.55792  -0.50231  -0.49453
 Alpha virt. eigenvalues --    0.13797   0.14729   0.19981   0.20846   0.54030
 Alpha virt. eigenvalues --    0.54822   0.56987   0.57746   0.67392   0.68572
 Alpha virt. eigenvalues --    0.78651   0.79413   0.80068   0.80675   0.82340

 Mulliken charges:
               1
     1  O   -0.511185
     2  H    0.254133
     3  H    0.257079
     4  O   -0.510627
     5  H    0.251972
     6  H    0.258628
 Sum of Mulliken charges =  -0.00000

 Dipole moment (field-independent basis, Debye):
    X=             -1.9640    Y=             -2.0008    Z=              0.0000  Tot=              2.8037
 Quadrupole moment (field-independent basis, Debye-Ang):
   XX=             -9.8639   YY=              1.5365   ZZ=            -14.7131
   XY=             -5.9904   XZ=              0.0000   YZ=              0.0000

 Normal termination of Gaussian 16 at Sat Aug 27 04:48:41 2022.
