 Gaussian 16, Revision A.03,
 Gaussian 16:  ES64L-G16RevA.03 25-Dec-2016

 ------------------
 #p CCSD(T)/cc-pVTZ
 ------------------

 ------------
 H2O_H2O_2263
 ------------
 Symbolic Z-matrix:
 Charge =  0 Multiplicity = 1

                         Standard orientation:
 ---------------------------------------------------------------------
 Center     Atomic      Atomic             Coordinates (Angstroms)
 Number     Number       Type             X           Y           Z
 ---------------------------------------------------------------------
      1          8           0        0.042976   -1.979183    0.000000
      2          1           0       -0.757650   -2.548835    0.000000
      3          1           0        0.841489   -2.551793    0.000000
      4          8           0        0.042976    2.017936    0.000000
      5          1           0        0.142578    2.995476    0.000000
      6          1           0       -0.914032    1.795129    0.000000
 ---------------------------------------------------------------------

 SCF Done:  E(RHF) =  -152.106272781     A.U. after   10 cycles
 E2 =    -0.5262376810D+00 EUMP2 =    -0.15263251046229D+03
 CCSD(T)
 CCSD(T)= -0.15265972988D+03

 The electronic state is 1-A'.
 Alpha  occ. eigenvalues --  -20.55096 -20.54492  -1.32378  -1.31771  -0.69793
 Alpha  occ. eigenvalues --   -0.69162  -0.55774  -0.55130  -0.49484  -0.48880
 Alpha virt. eigenvalues --    0.13727   0.15762   0.20304   0.21516   0.53659
 Alpha virt. eigenvalues --    0.55166   0.57614   0.58210   0.64373   0.74937
 Alpha virt. eigenvalues --    0.79196   0.79951   0.80171   0.81365   0.83357

 Mulliken charges:
               1
     1  O   -0.499321
     2  H    0.246619
     3  H    0.253407
     4  O   -0.499834
     5  H    0.244671
     6  H    0.254457
 Sum of Mulliken charges =  -0.00000

 Dipole moment (field-independent basis, Debye):
    X=             -1.4517    Y=             -0.7041    Z=              0.0000  Tot=              1.6134
 Quadrupole moment (field-independent basis, Debye-Ang):
   XX=             -8.9776   YY=              2.2738   ZZ=            -14.7118
   XY=             -2.1554   XZ=              0.0000   YZ=              0.0000

 Normal termination of Gaussian 16 at Sat Aug 27 09:31:47 2022.
