 Gaussian 16, Revision A.03,
 Gaussian 16:  ES64L-G16RevA.03 25-Dec-2016

 ------------------
 #p CCSD(T)/cc-pVTZ
 ------------------

 ------------
 H2O_H2O_4935
 ------------
 Symbolic Z-matrix:
 Charge =  0 Multiplicity = 1

                         Standard orientation:
 ---------------------------------------------------------------------
 Center     Atomic      Atomic             Coordinates (Angstroms)
 Number     Number       Type             X           Y           Z
 ---------------------------------------------------------------------
      1          8           0        0.034779   -3.410106    0.000000
      2          1           0       -0.765292   -3.980539    0.000000
      3          1           0        0.833850   -3.981938    0.000000
      4          8           0        0.034779    3.433650    0.000000
      5          1           0        0.322261    4.373257    0.000000
      6          1           0       -0.947276    3.400870    0.000000
 ---------------------------------------------------------------------

 SCF Done:  E(RHF) =  -152.107100630     A.U. after   10 cycles
 E2 =    -0.5259011354D+00 EUMP2 =    -0.15263300176534D+03
 CCSD(T)
 CCSD(T)= -0.15266022875D+03

 The electronic state is 1-A'.
 Alpha  occ. eigenvalues --  -20.55364 -20.55249  -1.32661  -1.32545  -0.70068
 Alpha  occ. eigenvalues --   -0.69950  -0.56094  -0.55979  -0.49770  -0.49655
 Alpha virt. eigenvalues --    0.14288   0.14403   0.20347   0.20467   0.54498
 Alpha virt. eigenvalues --    0.54622   0.57389   0.57505   0.68119   0.68236
 Alpha virt. eigenvalues --    0.79109   0.79223   0.80547   0.80672   0.82472

 Mulliken charges:
               1
     1  O   -0.507056
     2  H    0.252902
     3  H    0.254153
     4  O   -0.506974
     5  H    0.252521
     6  H    0.254454
 Sum of Mulliken charges =  -0.00000

 Dipole moment (field-independent basis, Debye):
    X=             -1.1963    Y=             -0.4101    Z=              0.0000  Tot=              1.2647
 Quadrupole moment (field-independent basis, Debye-Ang):
   XX=             -8.5629   YY=             13.2473   ZZ=            -14.7112
   XY=             -3.2552   XZ=              0.0000   YZ=              0.0000

 Normal termination of Gaussian 16 at Sat Aug 27 10:12:43 2022.
