 Gaussian 16, Revision A.03,
 Gaussian 16:  ES64L-G16RevA.03 25-Dec-2016

 ------------------
 #p CCSD(T)/cc-pVTZ
 ------------------

 ------------
 H2O_H2O_2294
 ------------
 Symbolic Z-matrix:
 Charge =  0 Multiplicity = 1

                         Standard orientation:
 ---------------------------------------------------------------------
 Center     Atomic      Atomic             Coordinates (Angstroms)
 Number     Number       Type             X           Y           Z
 ---------------------------------------------------------------------
      1          8           0        0.054172   -1.971566    0.000000
      2          1           0       -0.746720   -2.540845    0.000000
      3          1           0        0.852418   -2.544549    0.000000
      4          8           0        0.054172    2.048825    0.000000
      5          1           0       -0.227458    2.990203    0.000000
      6          1           0       -0.744990    1.477121    0.000000
 ---------------------------------------------------------------------

 SCF Done:  E(RHF) =  -152.107606062     A.U. after   10 cycles
 E2 =    -0.5261791408D+00 EUMP2 =    -0.15263378520236D+03
 CCSD(T)
 CCSD(T)= -0.15266097080D+03

 The electronic state is 1-A'.
 Alpha  occ. eigenvalues --  -20.55656 -20.54406  -1.32935  -1.31694  -0.70345
 Alpha  occ. eigenvalues --   -0.69068  -0.56368  -0.55131  -0.50049  -0.48815
 Alpha virt. eigenvalues --    0.13272   0.15913   0.20013   0.22187   0.54122
 Alpha virt. eigenvalues --    0.54450   0.57179   0.58425   0.65560   0.74342
 Alpha virt. eigenvalues --    0.78728   0.79360   0.80135   0.81566   0.83315

 Mulliken charges:
               1
     1  O   -0.503721
     2  H    0.248828
     3  H    0.256886
     4  O   -0.507602
     5  H    0.245700
     6  H    0.259909
 Sum of Mulliken charges =  -0.00000

 Dipole moment (field-independent basis, Debye):
    X=             -1.8309    Y=             -1.4111    Z=              0.0000  Tot=              2.3116
 Quadrupole moment (field-independent basis, Debye-Ang):
   XX=             -9.6496   YY=              0.3141   ZZ=            -14.7148
   XY=             -3.3934   XZ=              0.0000   YZ=              0.0000

 Normal termination of Gaussian 16 at Sat Aug 27 09:42:20 2022.
