 Gaussian 16, Revision A.03,
 Gaussian 16:  ES64L-G16RevA.03 25-Dec-2016

 ------------------
 #p CCSD(T)/cc-pVTZ
 ------------------

 ------------
 H2O_H2O_1416
 ------------
 Symbolic Z-matrix:
 Charge =  0 Multiplicity = 1

                         Standard orientation:
 ---------------------------------------------------------------------
 Center     Atomic      Atomic             Coordinates (Angstroms)
 Number     Number       Type             X           Y           Z
 ---------------------------------------------------------------------
      1          8           0        0.049540   -1.517297    0.000000
      2          1           0       -0.751601   -2.086224    0.000000
      3          1           0        0.847535   -2.090630    0.000000
      4          8           0        0.049540    1.574138    0.000000
      5          1           0       -0.042595    2.552410    0.000000
      6          1           0       -0.845978    1.169720    0.000000
 ---------------------------------------------------------------------

 SCF Done:  E(RHF) =  -152.105688919     A.U. after   10 cycles
 E2 =    -0.5271843702D+00 EUMP2 =    -0.15263287328949D+03
 CCSD(T)
 CCSD(T)= -0.15266005813D+03

 The electronic state is 1-A'.
 Alpha  occ. eigenvalues --  -20.55245 -20.53725  -1.32547  -1.30981  -0.69970
 Alpha  occ. eigenvalues --   -0.68389  -0.56028  -0.54154  -0.49664  -0.48083
 Alpha virt. eigenvalues --    0.13653   0.16799   0.20055   0.23055   0.54148
 Alpha virt. eigenvalues --    0.55836   0.57454   0.58342   0.66477   0.75993
 Alpha virt. eigenvalues --    0.77055   0.77141   0.79547   0.82053   0.85049

 Mulliken charges:
               1
     1  O   -0.485114
     2  H    0.238221
     3  H    0.251765
     4  O   -0.490384
     5  H    0.232496
     6  H    0.253016
 Sum of Mulliken charges =  -0.00000

 Dipole moment (field-independent basis, Debye):
    X=             -1.6220    Y=             -1.0870    Z=              0.0000  Tot=              1.9526
 Quadrupole moment (field-independent basis, Debye-Ang):
   XX=             -9.3777   YY=             -1.5173   ZZ=            -14.7178
   XY=             -2.0216   XZ=              0.0000   YZ=              0.0000

 Normal termination of Gaussian 16 at Sat Aug 27 04:37:50 2022.
