 Gaussian 16, Revision A.03,
 Gaussian 16:  ES64L-G16RevA.03 25-Dec-2016

 ------------------
 #p CCSD(T)/cc-pVTZ
 ------------------

 ------------
 H2O_H2O_3130
 ------------
 Symbolic Z-matrix:
 Charge =  0 Multiplicity = 1

                         Standard orientation:
 ---------------------------------------------------------------------
 Center     Atomic      Atomic             Coordinates (Angstroms)
 Number     Number       Type             X           Y           Z
 ---------------------------------------------------------------------
      1          8           0        0.018360   -2.462308    0.000000
      2          1           0       -0.781577   -3.032928    0.000000
      3          1           0        0.817565   -3.033953    0.000000
      4          8           0        0.018360    2.468347    0.000000
      5          1           0        0.592426    3.265814    0.000000
      6          1           0       -0.922180    2.752758    0.000000
 ---------------------------------------------------------------------

 SCF Done:  E(RHF) =  -152.106196034     A.U. after   10 cycles
 E2 =    -0.5260245946D+00 EUMP2 =    -0.15263222062868D+03
 CCSD(T)
 CCSD(T)= -0.15265946399D+03

 The electronic state is 1-A'.
 Alpha  occ. eigenvalues --  -20.54954 -20.54897  -1.32247  -1.32189  -0.69657
 Alpha  occ. eigenvalues --   -0.69597  -0.55640  -0.55573  -0.49350  -0.49292
 Alpha virt. eigenvalues --    0.14398   0.14894   0.20571   0.20757   0.54807
 Alpha virt. eigenvalues --    0.55076   0.57710   0.57808   0.67327   0.70030
 Alpha virt. eigenvalues --    0.79516   0.79592   0.80945   0.81084   0.82681

 Mulliken charges:
               1
     1  O   -0.501740
     2  H    0.250037
     3  H    0.251707
     4  O   -0.501621
     5  H    0.249712
     6  H    0.251905
 Sum of Mulliken charges =  -0.00000

 Dipole moment (field-independent basis, Debye):
    X=             -0.6271    Y=             -0.1066    Z=              0.0000  Tot=              0.6361
 Quadrupole moment (field-independent basis, Debye-Ang):
   XX=             -8.0259   YY=              7.3382   ZZ=            -14.7100
   XY=             -1.0203   XZ=              0.0000   YZ=              0.0000

 Normal termination of Gaussian 16 at Fri Aug 26 19:40:48 2022.
