 Gaussian 16, Revision A.03,
 Gaussian 16:  ES64L-G16RevA.03 25-Dec-2016

 ------------------
 #p CCSD(T)/cc-pVTZ
 ------------------

 ------------
 H2O_H2O_3187
 ------------
 Symbolic Z-matrix:
 Charge =  0 Multiplicity = 1

                         Standard orientation:
 ---------------------------------------------------------------------
 Center     Atomic      Atomic             Coordinates (Angstroms)
 Number     Number       Type             X           Y           Z
 ---------------------------------------------------------------------
      1          8           0        0.040408   -2.474070    0.000000
      2          1           0       -0.759959   -3.044086    0.000000
      3          1           0        0.839182   -3.046318    0.000000
      4          8           0        0.040408    2.507414    0.000000
      5          1           0        0.203292    3.476420    0.000000
      6          1           0       -0.929050    2.347236    0.000000
 ---------------------------------------------------------------------

 SCF Done:  E(RHF) =  -152.106668823     A.U. after   10 cycles
 E2 =    -0.5259865967D+00 EUMP2 =    -0.15263265541980D+03
 CCSD(T)
 CCSD(T)= -0.15265988822D+03

 The electronic state is 1-A'.
 Alpha  occ. eigenvalues --  -20.55205 -20.54889  -1.32500  -1.32181  -0.69909
 Alpha  occ. eigenvalues --   -0.69580  -0.55911  -0.55593  -0.49606  -0.49289
 Alpha virt. eigenvalues --    0.14168   0.14931   0.20387   0.20852   0.54574
 Alpha virt. eigenvalues --    0.55016   0.57509   0.57822   0.67342   0.69810
 Alpha virt. eigenvalues --    0.79271   0.79584   0.80666   0.81090   0.82765

 Mulliken charges:
               1
     1  O   -0.504513
     2  H    0.250477
     3  H    0.254070
     4  O   -0.504109
     5  H    0.249362
     6  H    0.254713
 Sum of Mulliken charges =  -0.00000

 Dipole moment (field-independent basis, Debye):
    X=             -1.3810    Y=             -0.5891    Z=              0.0000  Tot=              1.5014
 Quadrupole moment (field-independent basis, Debye-Ang):
   XX=             -8.8345   YY=              5.9426   ZZ=            -14.7109
   XY=             -2.6272   XZ=              0.0000   YZ=              0.0000

 493354\MP4DQ=-152.641773\MP4SDQ=-152.6448358\CCSD=-152.644246\CCSD(T)=
 Normal termination of Gaussian 16 at Fri Aug 26 20:12:52 2022.
