 Gaussian 16, Revision A.03,
 Gaussian 16:  ES64L-G16RevA.03 25-Dec-2016

 ------------------
 #p CCSD(T)/cc-pVTZ
 ------------------

 ------------
 H2O_H2O_3928
 ------------
 Symbolic Z-matrix:
 Charge =  0 Multiplicity = 1

                         Standard orientation:
 ---------------------------------------------------------------------
 Center     Atomic      Atomic             Coordinates (Angstroms)
 Number     Number       Type             X           Y           Z
 ---------------------------------------------------------------------
      1          8           0        0.011143   -2.889869    0.000000
      2          1           0       -0.788618   -3.460736    0.000000
      3          1           0        0.810524   -3.461266    0.000000
      4          8           0        0.011143    2.892056    0.000000
      5          1           0        0.684165    3.607979    0.000000
      6          1           0       -0.884353    3.296522    0.000000
 ---------------------------------------------------------------------

 SCF Done:  E(RHF) =  -152.106633017     A.U. after   10 cycles
 E2 =    -0.5259546757D+00 EUMP2 =    -0.15263258769236D+03
 CCSD(T)
 CCSD(T)= -0.15265982385D+03

 The electronic state is 1-A'.
 Alpha  occ. eigenvalues --  -20.55113 -20.55098  -1.32408  -1.32392  -0.69815
 Alpha  occ. eigenvalues --   -0.69800  -0.55819  -0.55803  -0.49513  -0.49498
 Alpha virt. eigenvalues --    0.14461   0.14554   0.20523   0.20563   0.54747
 Alpha virt. eigenvalues --    0.54780   0.57602   0.57625   0.68295   0.68586
 Alpha virt. eigenvalues --    0.79365   0.79380   0.80810   0.80831   0.82741

 Mulliken charges:
               1
     1  O   -0.504298
     2  H    0.251824
     3  H    0.252474
     4  O   -0.504278
     5  H    0.251694
     6  H    0.252583
 Sum of Mulliken charges =  -0.00000

 Dipole moment (field-independent basis, Debye):
    X=             -0.3822    Y=             -0.0383    Z=              0.0000  Tot=              0.3841
 Quadrupole moment (field-independent basis, Debye-Ang):
   XX=             -7.8844   YY=             10.9424   ZZ=            -14.7104
   XY=             -0.7662   XZ=              0.0000   YZ=              0.0000

 Normal termination of Gaussian 16 at Sat Aug 27 04:21:52 2022.
