 Gaussian 16, Revision A.03,
 Gaussian 16:  ES64L-G16RevA.03 25-Dec-2016

 ------------------
 #p CCSD(T)/cc-pVTZ
 ------------------

 ------------
 H2O_H2O_4739
 ------------
 Symbolic Z-matrix:
 Charge =  0 Multiplicity = 1

                         Standard orientation:
 ---------------------------------------------------------------------
 Center     Atomic      Atomic             Coordinates (Angstroms)
 Number     Number       Type             X           Y           Z
 ---------------------------------------------------------------------
      1          8           0        0.045337   -3.292313    0.000000
      2          1           0       -0.754905   -3.862503    0.000000
      3          1           0        0.844236   -3.864385    0.000000
      4          8           0        0.045337    3.336896    0.000000
      5          1           0        0.080132    4.318882    0.000000
      6          1           0       -0.894857    3.051343    0.000000
 ---------------------------------------------------------------------

 SCF Done:  E(RHF) =  -152.107205651     A.U. after   10 cycles
 E2 =    -0.5258940915D+00 EUMP2 =    -0.15263309974250D+03
 CCSD(T)
 CCSD(T)= -0.15266032434D+03

 The electronic state is 1-A'.
 Alpha  occ. eigenvalues --  -20.55447 -20.55214  -1.32745  -1.32510  -0.70152
 Alpha  occ. eigenvalues --   -0.69913  -0.56183  -0.55948  -0.49855  -0.49621
 Alpha virt. eigenvalues --    0.14212   0.14447   0.20277   0.20522   0.54413
 Alpha virt. eigenvalues --    0.54661   0.57313   0.57548   0.68020   0.68262
 Alpha virt. eigenvalues --    0.79024   0.79255   0.80460   0.80711   0.82385

 Mulliken charges:
               1
     1  O   -0.507684
     2  H    0.252955
     3  H    0.254728
     4  O   -0.507533
     5  H    0.252296
     6  H    0.255237
 Sum of Mulliken charges =  -0.00000

 Dipole moment (field-independent basis, Debye):
    X=             -1.5591    Y=             -0.7774    Z=              0.0000  Tot=              1.7422
 Quadrupole moment (field-independent basis, Debye-Ang):
   XX=             -9.0965   YY=             10.5409   ZZ=            -14.7115
   XY=             -4.3784   XZ=              0.0000   YZ=              0.0000

 Normal termination of Gaussian 16 at Sat Aug 27 09:04:34 2022.
