 Gaussian 16, Revision A.03,
 Gaussian 16:  ES64L-G16RevA.03 25-Dec-2016

 ------------------
 #p CCSD(T)/cc-pVTZ
 ------------------

 -----------
 H2O_H2O_850
 -----------
 Symbolic Z-matrix:
 Charge =  0 Multiplicity = 1

                         Standard orientation:
 ---------------------------------------------------------------------
 Center     Atomic      Atomic             Coordinates (Angstroms)
 Number     Number       Type             X           Y           Z
 ---------------------------------------------------------------------
      1          8           0        0.000000   -0.000000    1.255660
      2          1           0        0.000000    0.799571    1.826792
      3          1           0       -0.000000   -0.799571    1.826792
      4          8           0        0.000000   -0.000000   -1.255660
      5          1           0       -0.000000   -0.799571   -1.826792
      6          1           0        0.000000    0.799571   -1.826792
 ---------------------------------------------------------------------

 SCF Done:  E(RHF) =  -152.092431196     A.U. after   10 cycles
 E2 =    -0.5291418229D+00 EUMP2 =    -0.15262157301930D+03
 CCSD(T)
 CCSD(T)= -0.15264887868D+03

 The electronic state is 1-AG.
 Alpha  occ. eigenvalues --  -20.53071 -20.53071  -1.31004  -1.30145  -0.68289
 Alpha  occ. eigenvalues --   -0.67714  -0.56953  -0.50088  -0.48297  -0.46905
 Alpha virt. eigenvalues --    0.14510   0.17494   0.20578   0.22310   0.50352
 Alpha virt. eigenvalues --    0.58803   0.58902   0.63139   0.73319   0.76706
 Alpha virt. eigenvalues --    0.77019   0.79242   0.83787   0.83977   0.86499

 Mulliken charges:
               1
     1  O   -0.459338
     2  H    0.229669
     3  H    0.229669
     4  O   -0.459338
     5  H    0.229669
     6  H    0.229669
 Sum of Mulliken charges =   0.00000

 Dipole moment (field-independent basis, Debye):
    X=             -0.0000    Y=              0.0000    Z=             -0.0000  Tot=              0.0000
 Quadrupole moment (field-independent basis, Debye-Ang):
   XX=            -14.7244   YY=             -7.9803   ZZ=             -2.7896
   XY=              0.0000   XZ=             -0.0000   YZ=             -0.0000

 MP4DQ=-152.6301731\MP4SDQ=-152.6334144\CCSD=-152.6327626\CCSD(T)=-152.
 Normal termination of Gaussian 16 at Fri Aug 26 20:33:39 2022.
