 Gaussian 16, Revision A.03,
 Gaussian 16:  ES64L-G16RevA.03 25-Dec-2016

 ------------------
 #p CCSD(T)/cc-pVTZ
 ------------------

 ------------
 H2O_H2O_1006
 ------------
 Symbolic Z-matrix:
 Charge =  0 Multiplicity = 1

                         Standard orientation:
 ---------------------------------------------------------------------
 Center     Atomic      Atomic             Coordinates (Angstroms)
 Number     Number       Type             X           Y           Z
 ---------------------------------------------------------------------
      1          8           0        0.021862   -1.330746    0.000000
      2          1           0       -0.778513   -1.900750    0.000000
      3          1           0        0.820628   -1.903004    0.000000
      4          8           0        0.021862    1.339379    0.000000
      5          1           0        0.543182    2.172285    0.000000
      6          1           0       -0.935094    1.562403    0.000000
 ---------------------------------------------------------------------

 SCF Done:  E(RHF) =  -152.097571995     A.U. after   11 cycles
 E2 =    -0.5283739237D+00 EUMP2 =    -0.15262594591840D+03
 CCSD(T)
 CCSD(T)= -0.15265324451D+03

 The electronic state is 1-A'.
 Alpha  occ. eigenvalues --  -20.53607 -20.53365  -1.31194  -1.30555  -0.68559
 Alpha  occ. eigenvalues --   -0.68068  -0.56320  -0.51539  -0.48448  -0.47416
 Alpha virt. eigenvalues --    0.14369   0.17165   0.20514   0.22317   0.51487
 Alpha virt. eigenvalues --    0.58545   0.58787   0.61392   0.70860   0.76623
 Alpha virt. eigenvalues --    0.76773   0.78531   0.81565   0.83562   0.86211

 Mulliken charges:
               1
     1  O   -0.467844
     2  H    0.229074
     3  H    0.238163
     4  O   -0.460646
     5  H    0.225259
     6  H    0.235993
 Sum of Mulliken charges =  -0.00000

 Dipole moment (field-independent basis, Debye):
    X=             -0.6968    Y=             -0.1655    Z=              0.0000  Tot=              0.7162
 Quadrupole moment (field-independent basis, Debye-Ang):
   XX=             -8.2351   YY=             -2.0828   ZZ=            -14.7180
   XY=             -0.4193   XZ=              0.0000   YZ=              0.0000

 Normal termination of Gaussian 16 at Sat Aug 27 01:19:21 2022.
