 Gaussian 16, Revision A.03,
 Gaussian 16:  ES64L-G16RevA.03 25-Dec-2016

 ------------------
 #p CCSD(T)/cc-pVTZ
 ------------------

 -----------
 H2O_H2O_284
 -----------
 Symbolic Z-matrix:
 Charge =  0 Multiplicity = 1

                         Standard orientation:
 ---------------------------------------------------------------------
 Center     Atomic      Atomic             Coordinates (Angstroms)
 Number     Number       Type             X           Y           Z
 ---------------------------------------------------------------------
      1          8           0        0.031758   -0.939495    0.000000
      2          1           0       -0.769454   -1.508324    0.000000
      3          1           0        0.829682   -1.512926    0.000000
      4          8           0        0.031758    0.958563    0.000000
      5          1           0        0.381917    1.876656    0.000000
      6          1           0       -0.950273    0.992050    0.000000
 ---------------------------------------------------------------------

 SCF Done:  E(RHF) =  -152.033586528     A.U. after   11 cycles
 E2 =    -0.5378463509D+00 EUMP2 =    -0.15257143287866D+03
 CCSD(T)
 CCSD(T)= -0.15259793484D+03

 The electronic state is 1-A'.
 Alpha  occ. eigenvalues --  -20.52249 -20.51638  -1.33204  -1.28110  -0.69824
 Alpha  occ. eigenvalues --   -0.67267  -0.60575  -0.50160  -0.44607  -0.42710
 Alpha virt. eigenvalues --    0.14419   0.18430   0.20177   0.23357   0.52812
 Alpha virt. eigenvalues --    0.57429   0.58673   0.64848   0.70785   0.77687
 Alpha virt. eigenvalues --    0.79235   0.82540   0.83674   0.85829   0.88264

 Mulliken charges:
               1
     1  O   -0.424151
     2  H    0.201478
     3  H    0.220332
     4  O   -0.393277
     5  H    0.165124
     6  H    0.230494
 Sum of Mulliken charges =  -0.00000

 Dipole moment (field-independent basis, Debye):
    X=             -0.9041    Y=             -0.4102    Z=              0.0000  Tot=              0.9929
 Quadrupole moment (field-independent basis, Debye-Ang):
   XX=             -8.7395   YY=             -6.4751   ZZ=            -14.7296
   XY=             -0.3994   XZ=              0.0000   YZ=              0.0000

 Normal termination of Gaussian 16 at Fri Aug 26 14:51:16 2022.
