 Gaussian 16, Revision A.03,
 Gaussian 16:  ES64L-G16RevA.03 25-Dec-2016

 ------------------
 #p CCSD(T)/cc-pVTZ
 ------------------

 ------------
 H2O_H2O_3110
 ------------
 Symbolic Z-matrix:
 Charge =  0 Multiplicity = 1

                         Standard orientation:
 ---------------------------------------------------------------------
 Center     Atomic      Atomic             Coordinates (Angstroms)
 Number     Number       Type             X           Y           Z
 ---------------------------------------------------------------------
      1          8           0        0.034783   -2.439518    0.000000
      2          1           0       -0.765485   -3.009673    0.000000
      3          1           0        0.833656   -3.011625    0.000000
      4          8           0        0.034783    2.463037    0.000000
      5          1           0        0.322590    3.402544    0.000000
      6          1           0       -0.947284    2.430598    0.000000
 ---------------------------------------------------------------------

 SCF Done:  E(RHF) =  -152.106464900     A.U. after   10 cycles
 E2 =    -0.5260074946D+00 EUMP2 =    -0.15263247239453D+03
 CCSD(T)
 CCSD(T)= -0.15265970940D+03

 The electronic state is 1-A'.
 Alpha  occ. eigenvalues --  -20.55103 -20.54874  -1.32397  -1.32165  -0.69807
 Alpha  occ. eigenvalues --   -0.69568  -0.55799  -0.55568  -0.49502  -0.49272
 Alpha virt. eigenvalues --    0.14238   0.14951   0.20454   0.20836   0.54653
 Alpha virt. eigenvalues --    0.55060   0.57591   0.57831   0.67213   0.70074
 Alpha virt. eigenvalues --    0.79372   0.79604   0.80775   0.81130   0.82727

 Mulliken charges:
               1
     1  O   -0.503318
     2  H    0.250057
     3  H    0.253286
     4  O   -0.502962
     5  H    0.249181
     6  H    0.253756
 Sum of Mulliken charges =  -0.00000

 Dipole moment (field-independent basis, Debye):
    X=             -1.1879    Y=             -0.4158    Z=              0.0000  Tot=              1.2586
 Quadrupole moment (field-independent basis, Debye-Ang):
   XX=             -8.5709   YY=              6.2572   ZZ=            -14.7106
   XY=             -2.1076   XZ=              0.0000   YZ=              0.0000

 Normal termination of Gaussian 16 at Fri Aug 26 19:30:58 2022.
