 Gaussian 16, Revision A.03,
 Gaussian 16:  ES64L-G16RevA.03 25-Dec-2016

 ------------------
 #p CCSD(T)/cc-pVTZ
 ------------------

 ------------
 H2O_H2O_1545
 ------------
 Symbolic Z-matrix:
 Charge =  0 Multiplicity = 1

                         Standard orientation:
 ---------------------------------------------------------------------
 Center     Atomic      Atomic             Coordinates (Angstroms)
 Number     Number       Type             X           Y           Z
 ---------------------------------------------------------------------
      1          8           0        0.055292   -1.568844    0.000000
      2          1           0       -0.745959   -2.137617    0.000000
      3          1           0        0.853176   -2.142331    0.000000
      4          8           0        0.055292    1.653181    0.000000
      5          1           0       -0.286721    2.574339    0.000000
      6          1           0       -0.705161    1.030913    0.000000
 ---------------------------------------------------------------------

 SCF Done:  E(RHF) =  -152.107929090     A.U. after   10 cycles
 E2 =    -0.5269477328D+00 EUMP2 =    -0.15263487682238D+03
 CCSD(T)
 CCSD(T)= -0.15266201428D+03

 The electronic state is 1-A'.
 Alpha  occ. eigenvalues --  -20.55925 -20.53683  -1.33211  -1.30965  -0.70623
 Alpha  occ. eigenvalues --   -0.68371  -0.56604  -0.54405  -0.50328  -0.48092
 Alpha virt. eigenvalues --    0.13270   0.16853   0.19814   0.23943   0.53582
 Alpha virt. eigenvalues --    0.55198   0.56940   0.58285   0.66849   0.75870
 Alpha virt. eigenvalues --    0.76617   0.76909   0.79531   0.81556   0.84537

 Mulliken charges:
               1
     1  O   -0.491708
     2  H    0.242987
     3  H    0.256467
     4  O   -0.505305
     5  H    0.237542
     6  H    0.260018
 Sum of Mulliken charges =  -0.00000

 Dipole moment (field-independent basis, Debye):
    X=             -1.8239    Y=             -1.6187    Z=              0.0000  Tot=              2.4386
 Quadrupole moment (field-independent basis, Debye-Ang):
   XX=             -9.7320   YY=             -2.2346   ZZ=            -14.7210
   XY=             -2.8538   XZ=              0.0000   YZ=              0.0000

 Normal termination of Gaussian 16 at Sat Aug 27 05:23:27 2022.
