 Gaussian 16, Revision A.03,
 Gaussian 16:  ES64L-G16RevA.03 25-Dec-2016

 ------------------
 #p CCSD(T)/cc-pVTZ
 ------------------

 ------------
 H2O_H2O_3994
 ------------
 Symbolic Z-matrix:
 Charge =  0 Multiplicity = 1

                         Standard orientation:
 ---------------------------------------------------------------------
 Center     Atomic      Atomic             Coordinates (Angstroms)
 Number     Number       Type             X           Y           Z
 ---------------------------------------------------------------------
      1          8           0        0.054144   -2.875648    0.000000
      2          1           0       -0.746338   -3.445502    0.000000
      3          1           0        0.852802   -3.448056    0.000000
      4          8           0        0.054144    2.952985    0.000000
      5          1           0       -0.228162    3.894159    0.000000
      6          1           0       -0.744607    2.380706    0.000000
 ---------------------------------------------------------------------

 SCF Done:  E(RHF) =  -152.107418108     A.U. after   10 cycles
 E2 =    -0.5258893141D+00 EUMP2 =    -0.15263330742177D+03
 CCSD(T)
 CCSD(T)= -0.15266052651D+03

 The electronic state is 1-A'.
 Alpha  occ. eigenvalues --  -20.55595 -20.55062  -1.32894  -1.32360  -0.70300
 Alpha  occ. eigenvalues --   -0.69757  -0.56342  -0.55804  -0.50005  -0.49473
 Alpha virt. eigenvalues --    0.14023   0.14655   0.20149   0.20742   0.54255
 Alpha virt. eigenvalues --    0.54817   0.57180   0.57709   0.67722   0.68525
 Alpha virt. eigenvalues --    0.78876   0.79398   0.80303   0.80817   0.82331

 Mulliken charges:
               1
     1  O   -0.508966
     2  H    0.252989
     3  H    0.255987
     4  O   -0.508587
     5  H    0.251482
     6  H    0.257096
 Sum of Mulliken charges =  -0.00000

 Dipole moment (field-independent basis, Debye):
    X=             -1.8586    Y=             -1.3560    Z=              0.0000  Tot=              2.3007
 Quadrupole moment (field-independent basis, Debye-Ang):
   XX=             -9.6483   YY=              5.1261   ZZ=            -14.7122
   XY=             -5.0482   XZ=              0.0000   YZ=              0.0000

 Normal termination of Gaussian 16 at Sat Aug 27 04:47:06 2022.
