 Gaussian 16, Revision A.03,
 Gaussian 16:  ES64L-G16RevA.03 25-Dec-2016

 ------------------
 #p CCSD(T)/cc-pVTZ
 ------------------

 ------------
 H2O_H2O_1272
 ------------
 Symbolic Z-matrix:
 Charge =  0 Multiplicity = 1

                         Standard orientation:
 ---------------------------------------------------------------------
 Center     Atomic      Atomic             Coordinates (Angstroms)
 Number     Number       Type             X           Y           Z
 ---------------------------------------------------------------------
      1          8           0        0.056790   -1.414658    0.000000
      2          1           0       -0.744678   -1.983125    0.000000
      3          1           0        0.854455   -1.988449    0.000000
      4          8           0        0.056790    1.513597    0.000000
      5          1           0       -0.402201    2.382409    0.000000
      6          1           0       -0.616209    0.797651    0.000000
 ---------------------------------------------------------------------

 SCF Done:  E(RHF) =  -152.108265645     A.U. after   10 cycles
 E2 =    -0.5277272221D+00 EUMP2 =    -0.15263599286721D+03
 CCSD(T)
 CCSD(T)= -0.15266306880D+03

 The electronic state is 1-A'.
 Alpha  occ. eigenvalues --  -20.56422 -20.53087  -1.33779  -1.30415  -0.71173
 Alpha  occ. eigenvalues --   -0.68047  -0.57008  -0.53917  -0.50887  -0.47538
 Alpha virt. eigenvalues --    0.13083   0.17403   0.19607   0.25316   0.52159
 Alpha virt. eigenvalues --    0.56225   0.56862   0.59065   0.69342   0.74710
 Alpha virt. eigenvalues --    0.75042   0.78285   0.82138   0.82300   0.84129

 Mulliken charges:
               1
     1  O   -0.488209
     2  H    0.243045
     3  H    0.259031
     4  O   -0.511498
     5  H    0.233672
     6  H    0.263959
 Sum of Mulliken charges =  -0.00000

 Dipole moment (field-independent basis, Debye):
    X=             -1.8454    Y=             -1.9688    Z=              0.0000  Tot=              2.6984
 Quadrupole moment (field-independent basis, Debye-Ang):
   XX=             -9.8311   YY=             -3.7155   ZZ=            -14.7265
   XY=             -2.9205   XZ=              0.0000   YZ=              0.0000

 Normal termination of Gaussian 16 at Sat Aug 27 03:31:55 2022.
