 Gaussian 16, Revision A.03,
 Gaussian 16:  ES64L-G16RevA.03 25-Dec-2016

 ------------------
 #p CCSD(T)/cc-pVTZ
 ------------------

 ------------
 H2O_H2O_1768
 ------------
 Symbolic Z-matrix:
 Charge =  0 Multiplicity = 1

                         Standard orientation:
 ---------------------------------------------------------------------
 Center     Atomic      Atomic             Coordinates (Angstroms)
 Number     Number       Type             X           Y           Z
 ---------------------------------------------------------------------
      1          8           0        0.052858   -1.696165    0.000000
      2          1           0       -0.748209   -2.265197    0.000000
      3          1           0        0.850928   -2.269393    0.000000
      4          8           0        0.052858    1.766402    0.000000
      5          1           0       -0.166304    2.724251    0.000000
      6          1           0       -0.782144    1.248446    0.000000
 ---------------------------------------------------------------------

 SCF Done:  E(RHF) =  -152.107260065     A.U. after   10 cycles
 E2 =    -0.5266115875D+00 EUMP2 =    -0.15263387165228D+03
 CCSD(T)
 CCSD(T)= -0.15266104075D+03

 The electronic state is 1-A'.
 Alpha  occ. eigenvalues --  -20.55584 -20.54020  -1.32857  -1.31293  -0.70273
 Alpha  occ. eigenvalues --   -0.68667  -0.56267  -0.54690  -0.49972  -0.48415
 Alpha virt. eigenvalues --    0.13396   0.16467   0.19986   0.22963   0.54187
 Alpha virt. eigenvalues --    0.54460   0.57206   0.58480   0.65119   0.76101
 Alpha virt. eigenvalues --    0.78035   0.78415   0.78578   0.81056   0.84803

 Mulliken charges:
               1
     1  O   -0.494502
     2  H    0.243774
     3  H    0.254910
     4  O   -0.502263
     5  H    0.239877
     6  H    0.258202
 Sum of Mulliken charges =  -0.00000

 Dipole moment (field-independent basis, Debye):
    X=             -1.7599    Y=             -1.3191    Z=              0.0000  Tot=              2.1994
 Quadrupole moment (field-independent basis, Debye-Ang):
   XX=             -9.5696   YY=             -0.8890   ZZ=            -14.7167
   XY=             -2.7026   XZ=              0.0000   YZ=              0.0000

 Normal termination of Gaussian 16 at Sat Aug 27 06:40:50 2022.
