 Gaussian 16, Revision A.03,
 Gaussian 16:  ES64L-G16RevA.03 25-Dec-2016

 ------------------
 #p CCSD(T)/cc-pVTZ
 ------------------

 ------------
 H2O_H2O_3826
 ------------
 Symbolic Z-matrix:
 Charge =  0 Multiplicity = 1

                         Standard orientation:
 ---------------------------------------------------------------------
 Center     Atomic      Atomic             Coordinates (Angstroms)
 Number     Number       Type             X           Y           Z
 ---------------------------------------------------------------------
      1          8           0        0.003735   -2.837741    0.000000
      2          1           0       -0.795900   -3.408782    0.000000
      3          1           0        0.803242   -3.408963    0.000000
      4          8           0        0.003735    2.837984    0.000000
      5          1           0        0.764312    3.460102    0.000000
      6          1           0       -0.831419    3.355694    0.000000
 ---------------------------------------------------------------------

 SCF Done:  E(RHF) =  -152.106564631     A.U. after   10 cycles
 E2 =    -0.5259627971D+00 EUMP2 =    -0.15263252742795D+03
 CCSD(T)
 CCSD(T)= -0.15265976492D+03

 The electronic state is 1-A'.
 Alpha  occ. eigenvalues --  -20.55080 -20.55078  -1.32374  -1.32373  -0.69783
 Alpha  occ. eigenvalues --   -0.69781  -0.55783  -0.55780  -0.49480  -0.49478
 Alpha virt. eigenvalues --    0.14473   0.14583   0.20539   0.20580   0.54772
 Alpha virt. eigenvalues --    0.54808   0.57625   0.57645   0.68280   0.68672
 Alpha virt. eigenvalues --    0.79397   0.79401   0.80839   0.80857   0.82764

 Mulliken charges:
               1
     1  O   -0.503896
     2  H    0.251833
     3  H    0.252062
     4  O   -0.503893
     5  H    0.251792
     6  H    0.252101
 Sum of Mulliken charges =  -0.00000

 Dipole moment (field-independent basis, Debye):
    X=             -0.1281    Y=             -0.0043    Z=              0.0000  Tot=              0.1281
 Quadrupole moment (field-independent basis, Debye-Ang):
   XX=             -7.8161   YY=             10.6459   ZZ=            -14.7103
   XY=             -0.2478   XZ=              0.0000   YZ=              0.0000

 Normal termination of Gaussian 16 at Sat Aug 27 03:36:45 2022.
