 Gaussian 16, Revision A.03,
 Gaussian 16:  ES64L-G16RevA.03 25-Dec-2016

 ------------------
 #p CCSD(T)/cc-pVTZ
 ------------------

 ------------
 H2O_H2O_3118
 ------------
 Symbolic Z-matrix:
 Charge =  0 Multiplicity = 1

                         Standard orientation:
 ---------------------------------------------------------------------
 Center     Atomic      Atomic             Coordinates (Angstroms)
 Number     Number       Type             X           Y           Z
 ---------------------------------------------------------------------
      1          8           0        0.052831   -2.414102    0.000000
      2          1           0       -0.747798   -2.983750    0.000000
      3          1           0        0.851341   -2.986716    0.000000
      4          8           0        0.052831    2.484420    0.000000
      5          1           0       -0.167067    3.442099    0.000000
      6          1           0       -0.781772    1.965822    0.000000
 ---------------------------------------------------------------------

 SCF Done:  E(RHF) =  -152.107307073     A.U. after   10 cycles
 E2 =    -0.5259549923D+00 EUMP2 =    -0.15263326206547D+03
 CCSD(T)
 CCSD(T)= -0.15266047797D+03

 The electronic state is 1-A'.
 Alpha  occ. eigenvalues --  -20.55533 -20.54822  -1.32828  -1.32116  -0.70235
 Alpha  occ. eigenvalues --   -0.69507  -0.56267  -0.55554  -0.49938  -0.49231
 Alpha virt. eigenvalues --    0.13749   0.15113   0.20145   0.21103   0.54226
 Alpha virt. eigenvalues --    0.54949   0.57245   0.57867   0.66969   0.70108
 Alpha virt. eigenvalues --    0.78945   0.79635   0.80190   0.80852   0.82791

 Mulliken charges:
               1
     1  O   -0.507849
     2  H    0.251603
     3  H    0.256450
     4  O   -0.507528
     5  H    0.249401
     6  H    0.257922
 Sum of Mulliken charges =  -0.00000

 Dipole moment (field-independent basis, Debye):
    X=             -1.8051    Y=             -1.2479    Z=              0.0000  Tot=              2.1945
 Quadrupole moment (field-independent basis, Debye-Ang):
   XX=             -9.5589   YY=              3.1761   ZZ=            -14.7125
   XY=             -3.9750   XZ=              0.0000   YZ=              0.0000

 Normal termination of Gaussian 16 at Fri Aug 26 19:35:00 2022.
