 Gaussian 16, Revision A.03,
 Gaussian 16:  ES64L-G16RevA.03 25-Dec-2016

 ------------------
 #p CCSD(T)/cc-pVTZ
 ------------------

 ------------
 H2O_H2O_4836
 ------------
 Symbolic Z-matrix:
 Charge =  0 Multiplicity = 1

                         Standard orientation:
 ---------------------------------------------------------------------
 Center     Atomic      Atomic             Coordinates (Angstroms)
 Number     Number       Type             X           Y           Z
 ---------------------------------------------------------------------
      1          8           0        0.037671   -3.354354    0.000000
      2          1           0       -0.762449   -3.924716    0.000000
      3          1           0        0.836692   -3.926255    0.000000
      4          8           0        0.037671    3.382628    0.000000
      5          1           0        0.263167    4.339005    0.000000
      6          1           0       -0.940147    3.285774    0.000000
 ---------------------------------------------------------------------

 SCF Done:  E(RHF) =  -152.107112569     A.U. after   10 cycles
 E2 =    -0.5259010266D+00 EUMP2 =    -0.15263301359591D+03
 CCSD(T)
 CCSD(T)= -0.15266024026D+03

 The electronic state is 1-A'.
 Alpha  occ. eigenvalues --  -20.55377 -20.55234  -1.32674  -1.32530  -0.70081
 Alpha  occ. eigenvalues --   -0.69934  -0.56108  -0.55964  -0.49784  -0.49640
 Alpha virt. eigenvalues --    0.14275   0.14419   0.20335   0.20484   0.54485
 Alpha virt. eigenvalues --    0.54638   0.57377   0.57520   0.68104   0.68250
 Alpha virt. eigenvalues --    0.79096   0.79238   0.80533   0.80688   0.82458

 Mulliken charges:
               1
     1  O   -0.507128
     2  H    0.252856
     3  H    0.254272
     4  O   -0.507027
     5  H    0.252404
     6  H    0.254623
 Sum of Mulliken charges =  -0.00000

 Dipole moment (field-independent basis, Debye):
    X=             -1.2956    Y=             -0.4927    Z=              0.0000  Tot=              1.3861
 Quadrupole moment (field-independent basis, Debye-Ang):
   XX=             -8.6952   YY=             12.4327   ZZ=            -14.7113
   XY=             -3.5135   XZ=              0.0000   YZ=              0.0000

 Normal termination of Gaussian 16 at Sat Aug 27 09:36:33 2022.
