 Gaussian 16, Revision A.03,
 Gaussian 16:  ES64L-G16RevA.03 25-Dec-2016

 ------------------
 #p CCSD(T)/cc-pVTZ
 ------------------

 ------------
 H2O_H2O_4291
 ------------
 Symbolic Z-matrix:
 Charge =  0 Multiplicity = 1

                         Standard orientation:
 ---------------------------------------------------------------------
 Center     Atomic      Atomic             Coordinates (Angstroms)
 Number     Number       Type             X           Y           Z
 ---------------------------------------------------------------------
      1          8           0        0.049501   -3.046256    0.000000
      2          1           0       -0.750860   -3.616281    0.000000
      3          1           0        0.848280   -3.618495    0.000000
      4          8           0        0.049501    3.103233    0.000000
      5          1           0       -0.043974    4.081378    0.000000
      6          1           0       -0.845462    2.697588    0.000000
 ---------------------------------------------------------------------

 SCF Done:  E(RHF) =  -152.107244193     A.U. after   10 cycles
 E2 =    -0.5258970596D+00 EUMP2 =    -0.15263314125266D+03
 CCSD(T)
 CCSD(T)= -0.15266036462D+03

 The electronic state is 1-A'.
 Alpha  occ. eigenvalues --  -20.55485 -20.55135  -1.32783  -1.32431  -0.70189
 Alpha  occ. eigenvalues --   -0.69832  -0.56223  -0.55870  -0.49893  -0.49543
 Alpha virt. eigenvalues --    0.14164   0.14539   0.20241   0.20618   0.54373
 Alpha virt. eigenvalues --    0.54746   0.57278   0.57629   0.67950   0.68367
 Alpha virt. eigenvalues --    0.78987   0.79331   0.80420   0.80793   0.82355

 Mulliken charges:
               1
     1  O   -0.507927
     2  H    0.252769
     3  H    0.255159
     4  O   -0.507683
     5  H    0.251781
     6  H    0.255901
 Sum of Mulliken charges =  -0.00000

 Dipole moment (field-independent basis, Debye):
    X=             -1.7006    Y=             -0.9963    Z=              0.0000  Tot=              1.9709
 Quadrupole moment (field-independent basis, Debye-Ang):
   XX=             -9.3454   YY=              7.8941   ZZ=            -14.7117
   XY=             -4.5686   XZ=              0.0000   YZ=              0.0000

 Normal termination of Gaussian 16 at Sat Aug 27 06:29:06 2022.
