 Gaussian 16, Revision A.03,
 Gaussian 16:  ES64L-G16RevA.03 25-Dec-2016

 ------------------
 #p CCSD(T)/cc-pVTZ
 ------------------

 ------------
 H2O_H2O_3225
 ------------
 Symbolic Z-matrix:
 Charge =  0 Multiplicity = 1

                         Standard orientation:
 ---------------------------------------------------------------------
 Center     Atomic      Atomic             Coordinates (Angstroms)
 Number     Number       Type             X           Y           Z
 ---------------------------------------------------------------------
      1          8           0        0.000000   -0.000000    2.518772
      2          1           0        0.000000    0.799571    3.089904
      3          1           0       -0.000000   -0.799571    3.089904
      4          8           0        0.000000   -0.000000   -2.518772
      5          1           0       -0.000000   -0.799571   -3.089904
      6          1           0        0.000000    0.799571   -3.089904
 ---------------------------------------------------------------------

 SCF Done:  E(RHF) =  -152.106181199     A.U. after   10 cycles
 E2 =    -0.5260183707D+00 EUMP2 =    -0.15263219956967D+03
 CCSD(T)
 CCSD(T)= -0.15265944382D+03

 The electronic state is 1-AG.
 Alpha  occ. eigenvalues --  -20.54931 -20.54931  -1.32224  -1.32223  -0.69634
 Alpha  occ. eigenvalues --   -0.69633  -0.55624  -0.55599  -0.49327  -0.49325
 Alpha virt. eigenvalues --    0.14457   0.14828   0.20597   0.20714   0.54848
 Alpha virt. eigenvalues --    0.55032   0.57725   0.57781   0.67604   0.69733
 Alpha virt. eigenvalues --    0.79532   0.79567   0.80962   0.81049   0.82723

 Mulliken charges:
               1
     1  O   -0.501647
     2  H    0.250823
     3  H    0.250823
     4  O   -0.501647
     5  H    0.250823
     6  H    0.250823
 Sum of Mulliken charges =   0.00000

 Dipole moment (field-independent basis, Debye):
    X=             -0.0000    Y=              0.0000    Z=             -0.0000  Tot=              0.0000
 Quadrupole moment (field-independent basis, Debye-Ang):
   XX=            -14.7099   YY=             -7.8140   ZZ=              8.0871
   XY=              0.0000   XZ=              0.0000   YZ=             -0.0000

 \MP4DQ=-152.6413198\MP4SDQ=-152.6443861\CCSD=-152.6437954\CCSD(T)=-152
 Normal termination of Gaussian 16 at Fri Aug 26 20:31:14 2022.
