 Gaussian 16, Revision A.03,
 Gaussian 16:  ES64L-G16RevA.03 25-Dec-2016

 ------------------
 #p CCSD(T)/cc-pVTZ
 ------------------

 -----------
 H2O_H2O_918
 -----------
 Symbolic Z-matrix:
 Charge =  0 Multiplicity = 1

                         Standard orientation:
 ---------------------------------------------------------------------
 Center     Atomic      Atomic             Coordinates (Angstroms)
 Number     Number       Type             X           Y           Z
 ---------------------------------------------------------------------
      1          8           0        0.052891   -1.244155    0.000000
      2          1           0       -0.748703   -1.812444    0.000000
      3          1           0        0.850428   -1.818123    0.000000
      4          8           0        0.052891    1.314294    0.000000
      5          1           0       -0.165383    2.272346    0.000000
      6          1           0       -0.782591    0.797112    0.000000
 ---------------------------------------------------------------------

 SCF Done:  E(RHF) =  -152.100854694     A.U. after   11 cycles
 E2 =    -0.5291530491D+00 EUMP2 =    -0.15263000774273D+03
 CCSD(T)
 CCSD(T)= -0.15265712403D+03

 The electronic state is 1-A'.
 Alpha  occ. eigenvalues --  -20.55426 -20.52779  -1.33043  -1.30052  -0.70442
 Alpha  occ. eigenvalues --   -0.67997  -0.56148  -0.52990  -0.50148  -0.47092
 Alpha virt. eigenvalues --    0.13539   0.17628   0.19855   0.24284   0.52557
 Alpha virt. eigenvalues --    0.57120   0.59237   0.59363   0.71012   0.74718
 Alpha virt. eigenvalues --    0.76834   0.81823   0.82871   0.83080   0.84673

 Mulliken charges:
               1
     1  O   -0.471626
     2  H    0.232125
     3  H    0.250495
     4  O   -0.482666
     5  H    0.218032
     6  H    0.253639
 Sum of Mulliken charges =   0.00000

 Dipole moment (field-independent basis, Debye):
    X=             -1.6636    Y=             -1.4057    Z=              0.0000  Tot=              2.1780
 Quadrupole moment (field-independent basis, Debye-Ang):
   XX=             -9.6067   YY=             -3.8007   ZZ=            -14.7242
   XY=             -1.9246   XZ=              0.0000   YZ=              0.0000

 Normal termination of Gaussian 16 at Fri Aug 26 21:11:18 2022.
