 Gaussian 16, Revision A.03,
 Gaussian 16:  ES64L-G16RevA.03 25-Dec-2016

 ------------------
 #p CCSD(T)/cc-pVTZ
 ------------------

 -----------
 H2O_H2O_411
 -----------
 Symbolic Z-matrix:
 Charge =  0 Multiplicity = 1

                         Standard orientation:
 ---------------------------------------------------------------------
 Center     Atomic      Atomic             Coordinates (Angstroms)
 Number     Number       Type             X           Y           Z
 ---------------------------------------------------------------------
      1          8           0        0.037702   -1.001066    0.000000
      2          1           0       -0.763688   -1.569642    0.000000
      3          1           0        0.835446   -1.574748    0.000000
      4          8           0        0.037702    1.029172    0.000000
      5          1           0        0.265332    1.985044    0.000000
      6          1           0       -0.940329    0.934499    0.000000
 ---------------------------------------------------------------------

 SCF Done:  E(RHF) =  -152.060538078     A.U. after   11 cycles
 E2 =    -0.5345823803D+00 EUMP2 =    -0.15259512045787D+03
 CCSD(T)
 CCSD(T)= -0.15262198206D+03

 The electronic state is 1-A'.
 Alpha  occ. eigenvalues --  -20.52953 -20.51986  -1.32602  -1.28759  -0.69612
 Alpha  occ. eigenvalues --   -0.67515  -0.58853  -0.49699  -0.46026  -0.45383
 Alpha virt. eigenvalues --    0.14296   0.18103   0.20193   0.23438   0.53137
 Alpha virt. eigenvalues --    0.57494   0.58417   0.63688   0.71191   0.76722
 Alpha virt. eigenvalues --    0.79277   0.81843   0.83532   0.85671   0.88122

 Mulliken charges:
               1
     1  O   -0.441372
     2  H    0.210107
     3  H    0.229389
     4  O   -0.411369
     5  H    0.177172
     6  H    0.236073
 Sum of Mulliken charges =  -0.00000

 Dipole moment (field-independent basis, Debye):
    X=             -1.0973    Y=             -0.5751    Z=              0.0000  Tot=              1.2389
 Quadrupole moment (field-independent basis, Debye-Ang):
   XX=             -8.9164   YY=             -5.5908   ZZ=            -14.7268
   XY=             -0.5969   XZ=              0.0000   YZ=              0.0000

 10695\MP4DQ=-152.6025237\MP4SDQ=-152.606009\CCSD=-152.6052467\CCSD(T)=
 Normal termination of Gaussian 16 at Fri Aug 26 16:12:48 2022.
