 Gaussian 16, Revision A.03,
 Gaussian 16:  ES64L-G16RevA.03 25-Dec-2016

 ------------------
 #p CCSD(T)/cc-pVTZ
 ------------------

 -----------
 H2O_H2O_894
 -----------
 Symbolic Z-matrix:
 Charge =  0 Multiplicity = 1

                         Standard orientation:
 ---------------------------------------------------------------------
 Center     Atomic      Atomic             Coordinates (Angstroms)
 Number     Number       Type             X           Y           Z
 ---------------------------------------------------------------------
      1          8           0        0.054224   -1.227073    0.000000
      2          1           0       -0.747442   -1.795259    0.000000
      3          1           0        0.851689   -1.801142    0.000000
      4          8           0        0.054224    1.304184    0.000000
      5          1           0       -0.226122    2.245944    0.000000
      6          1           0       -0.745716    0.733568    0.000000
 ---------------------------------------------------------------------

 SCF Done:  E(RHF) =  -152.100622766     A.U. after   11 cycles
 E2 =    -0.5294334416D+00 EUMP2 =    -0.15263005620806D+03
 CCSD(T)
 CCSD(T)= -0.15265713415D+03

 The electronic state is 1-A'.
 Alpha  occ. eigenvalues --  -20.55670 -20.52601  -1.33343  -1.29902  -0.70735
 Alpha  occ. eigenvalues --   -0.68035  -0.56103  -0.53043  -0.50425  -0.46948
 Alpha virt. eigenvalues --    0.13434   0.17762   0.19765   0.24662   0.52155
 Alpha virt. eigenvalues --    0.56906   0.59464   0.59806   0.71179   0.74402
 Alpha virt. eigenvalues --    0.76744   0.82837   0.83054   0.83514   0.84440

 Mulliken charges:
               1
     1  O   -0.469314
     2  H    0.232261
     3  H    0.250600
     4  O   -0.487356
     5  H    0.217854
     6  H    0.255955
 Sum of Mulliken charges =  -0.00000

 Dipole moment (field-independent basis, Debye):
    X=             -1.7014    Y=             -1.5633    Z=              0.0000  Tot=              2.3105
 Quadrupole moment (field-independent basis, Debye-Ang):
   XX=             -9.6861   YY=             -4.1120   ZZ=            -14.7235
   XY=             -2.0679   XZ=              0.0000   YZ=              0.0000

 Normal termination of Gaussian 16 at Fri Aug 26 20:56:36 2022.
