 Gaussian 16, Revision A.03,
 Gaussian 16:  ES64L-G16RevA.03 25-Dec-2016

 ------------------
 #p CCSD(T)/cc-pVTZ
 ------------------

 ------------
 H2O_H2O_2715
 ------------
 Symbolic Z-matrix:
 Charge =  0 Multiplicity = 1

                         Standard orientation:
 ---------------------------------------------------------------------
 Center     Atomic      Atomic             Coordinates (Angstroms)
 Number     Number       Type             X           Y           Z
 ---------------------------------------------------------------------
      1          8           0        0.047534   -2.212080    0.000000
      2          1           0       -0.753079   -2.781750    0.000000
      3          1           0        0.846060   -2.784672    0.000000
      4          8           0        0.047534    2.262672    0.000000
      5          1           0        0.018668    3.244849    0.000000
      6          1           0       -0.872196    1.916837    0.000000
 ---------------------------------------------------------------------

 SCF Done:  E(RHF) =  -152.106823086     A.U. after   10 cycles
 E2 =    -0.5260493778D+00 EUMP2 =    -0.15263287246389D+03
 CCSD(T)
 CCSD(T)= -0.15266009379D+03

 The electronic state is 1-A'.
 Alpha  occ. eigenvalues --  -20.55310 -20.54692  -1.32601  -1.31980  -0.70011
 Alpha  occ. eigenvalues --   -0.69371  -0.56015  -0.55395  -0.49709  -0.49092
 Alpha virt. eigenvalues --    0.13753   0.15373   0.20245   0.21248   0.54190
 Alpha virt. eigenvalues --    0.55012   0.57438   0.57978   0.66121   0.72150
 Alpha virt. eigenvalues --    0.79156   0.79789   0.80302   0.81617   0.83081

 Mulliken charges:
               1
     1  O   -0.504494
     2  H    0.249608
     3  H    0.255229
     4  O   -0.504406
     5  H    0.247635
     6  H    0.256426
 Sum of Mulliken charges =  -0.00000

 Dipole moment (field-independent basis, Debye):
    X=             -1.6174    Y=             -0.9052    Z=              0.0000  Tot=              1.8535
 Quadrupole moment (field-independent basis, Debye-Ang):
   XX=             -9.2282   YY=              3.2173   ZZ=            -14.7119
   XY=             -2.9422   XZ=              0.0000   YZ=              0.0000

 Normal termination of Gaussian 16 at Fri Aug 26 15:23:21 2022.
