 Gaussian 16, Revision A.03,
 Gaussian 16:  ES64L-G16RevA.03 25-Dec-2016

 ------------------
 #p CCSD(T)/cc-pVTZ
 ------------------

 ------------
 H2O_H2O_2165
 ------------
 Symbolic Z-matrix:
 Charge =  0 Multiplicity = 1

                         Standard orientation:
 ---------------------------------------------------------------------
 Center     Atomic      Atomic             Coordinates (Angstroms)
 Number     Number       Type             X           Y           Z
 ---------------------------------------------------------------------
      1          8           0        0.047541   -1.919583    0.000000
      2          1           0       -0.753229   -2.489033    0.000000
      3          1           0        0.845910   -2.492395    0.000000
      4          8           0        0.047541    1.970149    0.000000
      5          1           0        0.018945    2.952335    0.000000
      6          1           0       -0.872284    1.624567    0.000000
 ---------------------------------------------------------------------

 SCF Done:  E(RHF) =  -152.106611166     A.U. after   10 cycles
 E2 =    -0.5262811640D+00 EUMP2 =    -0.15263289232955D+03
 CCSD(T)
 CCSD(T)= -0.15266009814D+03

 The electronic state is 1-A'.
 Alpha  occ. eigenvalues --  -20.55254 -20.54403  -1.32533  -1.31681  -0.69948
 Alpha  occ. eigenvalues --   -0.69065  -0.55934  -0.55060  -0.49641  -0.48795
 Alpha virt. eigenvalues --    0.13568   0.15920   0.20202   0.21824   0.53605
 Alpha virt. eigenvalues --    0.54889   0.57495   0.58357   0.64527   0.75439
 Alpha virt. eigenvalues --    0.78988   0.79430   0.80296   0.81268   0.84085

 Mulliken charges:
               1
     1  O   -0.499381
     2  H    0.246356
     3  H    0.254308
     4  O   -0.501214
     5  H    0.243898
     6  H    0.256033
 Sum of Mulliken charges =  -0.00000

 Dipole moment (field-independent basis, Debye):
    X=             -1.6022    Y=             -0.9245    Z=              0.0000  Tot=              1.8498
 Quadrupole moment (field-independent basis, Debye-Ang):
   XX=             -9.2346   YY=              1.3582   ZZ=            -14.7129
   XY=             -2.4751   XZ=              0.0000   YZ=              0.0000

 Normal termination of Gaussian 16 at Sat Aug 27 08:57:30 2022.
