 Gaussian 16, Revision A.03,
 Gaussian 16:  ES64L-G16RevA.03 25-Dec-2016

 ------------------
 #p CCSD(T)/cc-pVTZ
 ------------------

 ------------
 H2O_H2O_1033
 ------------
 Symbolic Z-matrix:
 Charge =  0 Multiplicity = 1

                         Standard orientation:
 ---------------------------------------------------------------------
 Center     Atomic      Atomic             Coordinates (Angstroms)
 Number     Number       Type             X           Y           Z
 ---------------------------------------------------------------------
      1          8           0        0.028570   -1.340475    0.000000
      2          1           0       -0.772041   -1.910148    0.000000
      3          1           0        0.827099   -1.913064    0.000000
      4          8           0        0.028570    1.355674    0.000000
      5          1           0        0.437085    2.249331    0.000000
      6          1           0       -0.949270    1.452287    0.000000
 ---------------------------------------------------------------------

 SCF Done:  E(RHF) =  -152.098725156     A.U. after   11 cycles
 E2 =    -0.5282739071D+00 EUMP2 =    -0.15262699906306D+03
 CCSD(T)
 CCSD(T)= -0.15265428154D+03

 The electronic state is 1-A'.
 Alpha  occ. eigenvalues --  -20.53833 -20.53402  -1.31349  -1.30620  -0.68734
 Alpha  occ. eigenvalues --   -0.68118  -0.56232  -0.51910  -0.48579  -0.47521
 Alpha virt. eigenvalues --    0.14280   0.17105   0.20457   0.22429   0.52092
 Alpha virt. eigenvalues --    0.58402   0.58688   0.60767   0.69969   0.76681
 Alpha virt. eigenvalues --    0.76719   0.78044   0.81894   0.83432   0.86050

 Mulliken charges:
               1
     1  O   -0.470596
     2  H    0.229462
     3  H    0.240756
     4  O   -0.461255
     5  H    0.223463
     6  H    0.238169
 Sum of Mulliken charges =   0.00000

 Dipole moment (field-independent basis, Debye):
    X=             -0.9120    Y=             -0.2917    Z=              0.0000  Tot=              0.9575
 Quadrupole moment (field-independent basis, Debye-Ang):
   XX=             -8.4339   YY=             -2.0470   ZZ=            -14.7178
   XY=             -0.6157   XZ=              0.0000   YZ=              0.0000

 Normal termination of Gaussian 16 at Sat Aug 27 01:33:27 2022.
