 Gaussian 16, Revision A.03,
 Gaussian 16:  ES64L-G16RevA.03 25-Dec-2016

 ------------------
 #p CCSD(T)/cc-pVTZ
 ------------------

 ------------
 H2O_H2O_4899
 ------------
 Symbolic Z-matrix:
 Charge =  0 Multiplicity = 1

                         Standard orientation:
 ---------------------------------------------------------------------
 Center     Atomic      Atomic             Coordinates (Angstroms)
 Number     Number       Type             X           Y           Z
 ---------------------------------------------------------------------
      1          8           0        0.057196   -3.334358    0.000000
      2          1           0       -0.743202   -3.904330    0.000000
      3          1           0        0.855938   -3.906648    0.000000
      4          8           0        0.057196    3.448418    0.000000
      5          1           0       -0.512776    4.248817    0.000000
      6          1           0       -0.515095    2.649676    0.000000
 ---------------------------------------------------------------------

 SCF Done:  E(RHF) =  -152.107661143     A.U. after   10 cycles
 E2 =    -0.5258513677D+00 EUMP2 =    -0.15263351251046D+03
 CCSD(T)
 CCSD(T)= -0.15266072762D+03

 The electronic state is 1-A'.
 Alpha  occ. eigenvalues --  -20.55765 -20.55205  -1.33066  -1.32505  -0.70471
 Alpha  occ. eigenvalues --   -0.69906  -0.56524  -0.55959  -0.50179  -0.49620
 Alpha virt. eigenvalues --    0.13930   0.14493   0.20019   0.20613   0.54087
 Alpha virt. eigenvalues --    0.54663   0.57028   0.57588   0.67641   0.68229
 Alpha virt. eigenvalues --    0.78700   0.79252   0.80127   0.80714   0.82053

 Mulliken charges:
               1
     1  O   -0.510381
     2  H    0.254249
     3  H    0.256133
     4  O   -0.510080
     5  H    0.252917
     6  H    0.257163
 Sum of Mulliken charges =  -0.00000

 Dipole moment (field-independent basis, Debye):
    X=             -1.9677    Y=             -1.9887    Z=              0.0000  Tot=              2.7977
 Quadrupole moment (field-independent basis, Debye-Ang):
   XX=             -9.8648   YY=              3.4461   ZZ=            -14.7126
   XY=             -6.9266   XZ=              0.0000   YZ=              0.0000

 Normal termination of Gaussian 16 at Sat Aug 27 09:58:17 2022.
