 Gaussian 16, Revision A.03,
 Gaussian 16:  ES64L-G16RevA.03 25-Dec-2016

 ------------------
 #p CCSD(T)/cc-pVTZ
 ------------------

 ------------
 H2O_H2O_1270
 ------------
 Symbolic Z-matrix:
 Charge =  0 Multiplicity = 1

                         Standard orientation:
 ---------------------------------------------------------------------
 Center     Atomic      Atomic             Coordinates (Angstroms)
 Number     Number       Type             X           Y           Z
 ---------------------------------------------------------------------
      1          8           0        0.055304   -1.422606    0.000000
      2          1           0       -0.746114   -1.991143    0.000000
      3          1           0        0.853019   -1.996327    0.000000
      4          8           0        0.055304    1.506910    0.000000
      5          1           0       -0.286438    2.428169    0.000000
      6          1           0       -0.705332    0.884866    0.000000
 ---------------------------------------------------------------------

 SCF Done:  E(RHF) =  -152.107032145     A.U. after   10 cycles
 E2 =    -0.5276379079D+00 EUMP2 =    -0.15263467005291D+03
 CCSD(T)
 CCSD(T)= -0.15266178823D+03

 The electronic state is 1-A'.
 Alpha  occ. eigenvalues --  -20.55975 -20.53275  -1.33323  -1.30565  -0.70731
 Alpha  occ. eigenvalues --   -0.68107  -0.56588  -0.53989  -0.50435  -0.47679
 Alpha virt. eigenvalues --    0.13300   0.17245   0.19761   0.24427   0.52944
 Alpha virt. eigenvalues --    0.56330   0.56976   0.58758   0.69004   0.75096
 Alpha virt. eigenvalues --    0.75600   0.77921   0.81052   0.82200   0.84464

 Mulliken charges:
               1
     1  O   -0.485951
     2  H    0.240259
     3  H    0.256549
     4  O   -0.501974
     5  H    0.231880
     6  H    0.259237
 Sum of Mulliken charges =  -0.00000

 Dipole moment (field-independent basis, Debye):
    X=             -1.7950    Y=             -1.6574    Z=              0.0000  Tot=              2.4432
 Quadrupole moment (field-independent basis, Debye-Ang):
   XX=             -9.7388   YY=             -3.0755   ZZ=            -14.7244
   XY=             -2.5909   XZ=              0.0000   YZ=              0.0000

 Normal termination of Gaussian 16 at Sat Aug 27 03:31:07 2022.
