 Gaussian 16, Revision A.03,
 Gaussian 16:  ES64L-G16RevA.03 25-Dec-2016

 ------------------
 #p CCSD(T)/cc-pVTZ
 ------------------

 ------------
 H2O_H2O_1470
 ------------
 Symbolic Z-matrix:
 Charge =  0 Multiplicity = 1

                         Standard orientation:
 ---------------------------------------------------------------------
 Center     Atomic      Atomic             Coordinates (Angstroms)
 Number     Number       Type             X           Y           Z
 ---------------------------------------------------------------------
      1          8           0        0.055295   -1.528960    0.000000
      2          1           0       -0.745999   -2.097673    0.000000
      3          1           0        0.853136   -2.102507    0.000000
      4          8           0        0.055295    1.613289    0.000000
      5          1           0       -0.286649    2.534474    0.000000
      6          1           0       -0.705204    0.991078    0.000000
 ---------------------------------------------------------------------

 SCF Done:  E(RHF) =  -152.107800669     A.U. after   10 cycles
 E2 =    -0.5270998518D+00 EUMP2 =    -0.15263490052046D+03
 CCSD(T)
 CCSD(T)= -0.15266203365D+03

 The electronic state is 1-A'.
 Alpha  occ. eigenvalues --  -20.55941 -20.53583  -1.33237  -1.30866  -0.70648
 Alpha  occ. eigenvalues --   -0.68294  -0.56610  -0.54303  -0.50353  -0.47991
 Alpha virt. eigenvalues --    0.13280   0.16955   0.19799   0.24080   0.53472
 Alpha virt. eigenvalues --    0.55378   0.56950   0.58349   0.67361   0.75648
 Alpha virt. eigenvalues --    0.76574   0.76730   0.79873   0.81738   0.84521

 Mulliken charges:
               1
     1  O   -0.490249
     2  H    0.242259
     3  H    0.256545
     4  O   -0.504502
     5  H    0.236205
     6  H    0.259742
 Sum of Mulliken charges =  -0.00000

 Dipole moment (field-independent basis, Debye):
    X=             -1.8170    Y=             -1.6285    Z=              0.0000  Tot=              2.4400
 Quadrupole moment (field-independent basis, Debye-Ang):
   XX=             -9.7337   YY=             -2.4588   ZZ=            -14.7220
   XY=             -2.7818   XZ=              0.0000   YZ=              0.0000

 Normal termination of Gaussian 16 at Sat Aug 27 04:56:38 2022.
