 Gaussian 16, Revision A.03,
 Gaussian 16:  ES64L-G16RevA.03 25-Dec-2016

 ------------------
 #p CCSD(T)/cc-pVTZ
 ------------------

 ------------
 H2O_H2O_1935
 ------------
 Symbolic Z-matrix:
 Charge =  0 Multiplicity = 1

                         Standard orientation:
 ---------------------------------------------------------------------
 Center     Atomic      Atomic             Coordinates (Angstroms)
 Number     Number       Type             X           Y           Z
 ---------------------------------------------------------------------
      1          8           0        0.034788   -1.814625    0.000000
      2          1           0       -0.765718   -2.384446    0.000000
      3          1           0        0.833422   -2.387067    0.000000
      4          8           0        0.034788    1.838116    0.000000
      5          1           0        0.322987    2.777503    0.000000
      6          1           0       -0.947292    1.806086    0.000000
 ---------------------------------------------------------------------

 SCF Done:  E(RHF) =  -152.105317973     A.U. after   10 cycles
 E2 =    -0.5264940992D+00 EUMP2 =    -0.15263181207213D+03
 CCSD(T)
 CCSD(T)= -0.15265903998D+03

 The electronic state is 1-A'.
 Alpha  occ. eigenvalues --  -20.54762 -20.54328  -1.32041  -1.31598  -0.69461
 Alpha  occ. eigenvalues --   -0.68999  -0.55515  -0.54761  -0.49146  -0.48697
 Alpha virt. eigenvalues --    0.13912   0.16036   0.20414   0.21599   0.53229
 Alpha virt. eigenvalues --    0.55763   0.57854   0.58380   0.63041   0.76228
 Alpha virt. eigenvalues --    0.79028   0.79327   0.80712   0.80790   0.83646

 Mulliken charges:
               1
     1  O   -0.491802
     2  H    0.242822
     3  H    0.249728
     4  O   -0.492256
     5  H    0.241201
     6  H    0.250307
 Sum of Mulliken charges =  -0.00000

 Dipole moment (field-independent basis, Debye):
    X=             -1.1660    Y=             -0.4330    Z=              0.0000  Tot=              1.2438
 Quadrupole moment (field-independent basis, Debye-Ang):
   XX=             -8.5946   YY=              1.6619   ZZ=            -14.7108
   XY=             -1.3784   XZ=              0.0000   YZ=              0.0000

 Normal termination of Gaussian 16 at Sat Aug 27 07:38:43 2022.
