 Gaussian 16, Revision A.03,
 Gaussian 16:  ES64L-G16RevA.03 25-Dec-2016

 ------------------
 #p CCSD(T)/cc-pVTZ
 ------------------

 ------------
 H2O_H2O_3478
 ------------
 Symbolic Z-matrix:
 Charge =  0 Multiplicity = 1

                         Standard orientation:
 ---------------------------------------------------------------------
 Center     Atomic      Atomic             Coordinates (Angstroms)
 Number     Number       Type             X           Y           Z
 ---------------------------------------------------------------------
      1          8           0        0.011143   -2.650543    0.000000
      2          1           0       -0.788635   -3.221386    0.000000
      3          1           0        0.810507   -3.221964    0.000000
      4          8           0        0.011143    2.652730    0.000000
      5          1           0        0.684187    3.368632    0.000000
      6          1           0       -0.884341    3.057222    0.000000
 ---------------------------------------------------------------------

 SCF Done:  E(RHF) =  -152.106387825     A.U. after   10 cycles
 E2 =    -0.5259889499D+00 EUMP2 =    -0.15263237677530D+03
 CCSD(T)
 CCSD(T)= -0.15265961739D+03

 The electronic state is 1-A'.
 Alpha  occ. eigenvalues --  -20.55014 -20.54997  -1.32308  -1.32290  -0.69717
 Alpha  occ. eigenvalues --   -0.69699  -0.55708  -0.55688  -0.49412  -0.49394
 Alpha virt. eigenvalues --    0.14465   0.14707   0.20565   0.20653   0.54814
 Alpha virt. eigenvalues --    0.54915   0.57672   0.57717   0.68025   0.69122
 Alpha virt. eigenvalues --    0.79462   0.79484   0.80897   0.80956   0.82780

 Mulliken charges:
               1
     1  O   -0.502863
     2  H    0.251018
     3  H    0.251845
     4  O   -0.502831
     5  H    0.250865
     6  H    0.251965
 Sum of Mulliken charges =  -0.00000

 Dipole moment (field-independent basis, Debye):
    X=             -0.3814    Y=             -0.0384    Z=              0.0000  Tot=              0.3833
 Quadrupole moment (field-independent basis, Debye-Ang):
   XX=             -7.8885   YY=              9.0336   ZZ=            -14.7101
   XY=             -0.6758   XZ=              0.0000   YZ=              0.0000

 Normal termination of Gaussian 16 at Fri Aug 26 22:40:19 2022.
