 Gaussian 16, Revision A.03,
 Gaussian 16:  ES64L-G16RevA.03 25-Dec-2016

 ------------------
 #p CCSD(T)/cc-pVTZ
 ------------------

 ------------
 H2O_H2O_2360
 ------------
 Symbolic Z-matrix:
 Charge =  0 Multiplicity = 1

                         Standard orientation:
 ---------------------------------------------------------------------
 Center     Atomic      Atomic             Coordinates (Angstroms)
 Number     Number       Type             X           Y           Z
 ---------------------------------------------------------------------
      1          8           0        0.034785   -2.040649    0.000000
      2          1           0       -0.765618   -2.610614    0.000000
      3          1           0        0.833523   -2.612946    0.000000
      4          8           0        0.034785    2.064152    0.000000
      5          1           0        0.322816    3.003590    0.000000
      6          1           0       -0.947289    2.031945    0.000000
 ---------------------------------------------------------------------

 SCF Done:  E(RHF) =  -152.105898691     A.U. after   10 cycles
 E2 =    -0.5262077705D+00 EUMP2 =    -0.15263210646185D+03
 CCSD(T)
 CCSD(T)= -0.15265934013D+03

 The electronic state is 1-A'.
 Alpha  occ. eigenvalues --  -20.54913 -20.54574  -1.32198  -1.31856  -0.69613
 Alpha  occ. eigenvalues --   -0.69256  -0.55594  -0.55185  -0.49301  -0.48960
 Alpha virt. eigenvalues --    0.13950   0.15595   0.20437   0.21246   0.53984
 Alpha virt. eigenvalues --    0.55459   0.57739   0.58097   0.64129   0.74208
 Alpha virt. eigenvalues --    0.79399   0.80075   0.80515   0.81191   0.82678

 Mulliken charges:
               1
     1  O   -0.498566
     2  H    0.246842
     3  H    0.252008
     4  O   -0.498321
     5  H    0.245558
     6  H    0.252478
 Sum of Mulliken charges =  -0.00000

 Dipole moment (field-independent basis, Debye):
    X=             -1.1774    Y=             -0.4244    Z=              0.0000  Tot=              1.2516
 Quadrupole moment (field-independent basis, Debye-Ang):
   XX=             -8.5816   YY=              3.3444   ZZ=            -14.7106
   XY=             -1.6412   XZ=              0.0000   YZ=              0.0000

 Normal termination of Gaussian 16 at Sat Aug 27 10:07:43 2022.
