 Gaussian 16, Revision A.03,
 Gaussian 16:  ES64L-G16RevA.03 25-Dec-2016

 ------------------
 #p CCSD(T)/cc-pVTZ
 ------------------

 ------------
 H2O_H2O_3233
 ------------
 Symbolic Z-matrix:
 Charge =  0 Multiplicity = 1

                         Standard orientation:
 ---------------------------------------------------------------------
 Center     Atomic      Atomic             Coordinates (Angstroms)
 Number     Number       Type             X           Y           Z
 ---------------------------------------------------------------------
      1          8           0        0.028564   -2.510490    0.000000
      2          1           0       -0.771564   -3.080841    0.000000
      3          1           0        0.827577   -3.082402    0.000000
      4          8           0        0.028564    2.525738    0.000000
      5          1           0        0.436321    3.419741    0.000000
      6          1           0       -0.949358    2.621521    0.000000
 ---------------------------------------------------------------------

 SCF Done:  E(RHF) =  -152.106409837     A.U. after   10 cycles
 E2 =    -0.5260013111D+00 EUMP2 =    -0.15263241114856D+03
 CCSD(T)
 CCSD(T)= -0.15265965029D+03

 The electronic state is 1-A'.
 Alpha  occ. eigenvalues --  -20.55059 -20.54920  -1.32353  -1.32212  -0.69763
 Alpha  occ. eigenvalues --   -0.69617  -0.55753  -0.55611  -0.49457  -0.49317
 Alpha virt. eigenvalues --    0.14344   0.14851   0.20507   0.20757   0.54736
 Alpha virt. eigenvalues --    0.55013   0.57631   0.57790   0.67542   0.69672
 Alpha virt. eigenvalues --    0.79417   0.79559   0.80843   0.81054   0.82733

 Mulliken charges:
               1
     1  O   -0.503011
     2  H    0.250281
     3  H    0.252737
     4  O   -0.502773
     5  H    0.249689
     6  H    0.253076
 Sum of Mulliken charges =  -0.00000

 Dipole moment (field-independent basis, Debye):
    X=             -0.9764    Y=             -0.2689    Z=              0.0000  Tot=              1.0127
 Quadrupole moment (field-independent basis, Debye-Ang):
   XX=             -8.3237   YY=              7.2334   ZZ=            -14.7103
   XY=             -1.7209   XZ=              0.0000   YZ=              0.0000

 Normal termination of Gaussian 16 at Fri Aug 26 20:34:57 2022.
