 Gaussian 16, Revision A.03,
 Gaussian 16:  ES64L-G16RevA.03 25-Dec-2016

 ------------------
 #p CCSD(T)/cc-pVTZ
 ------------------

 ------------
 H2O_H2O_2269
 ------------
 Symbolic Z-matrix:
 Charge =  0 Multiplicity = 1

                         Standard orientation:
 ---------------------------------------------------------------------
 Center     Atomic      Atomic             Coordinates (Angstroms)
 Number     Number       Type             X           Y           Z
 ---------------------------------------------------------------------
      1          8           0        0.054172   -1.958271    0.000000
      2          1           0       -0.746728   -2.527538    0.000000
      3          1           0        0.852410   -2.531266    0.000000
      4          8           0        0.054172    2.035528    0.000000
      5          1           0       -0.227443    2.976911    0.000000
      6          1           0       -0.744999    1.463836    0.000000
 ---------------------------------------------------------------------

 SCF Done:  E(RHF) =  -152.107612917     A.U. after   10 cycles
 E2 =    -0.5261922144D+00 EUMP2 =    -0.15263380513182D+03
 CCSD(T)
 CCSD(T)= -0.15266098953D+03

 The electronic state is 1-A'.
 Alpha  occ. eigenvalues --  -20.55659 -20.54389  -1.32937  -1.31677  -0.70348
 Alpha  occ. eigenvalues --   -0.69051  -0.56370  -0.55114  -0.50051  -0.48798
 Alpha virt. eigenvalues --    0.13268   0.15940   0.20010   0.22233   0.54138
 Alpha virt. eigenvalues --    0.54421   0.57176   0.58445   0.65514   0.74453
 Alpha virt. eigenvalues --    0.78711   0.79318   0.80163   0.81449   0.83477

 Mulliken charges:
               1
     1  O   -0.503434
     2  H    0.248671
     3  H    0.256853
     4  O   -0.507543
     5  H    0.245516
     6  H    0.259937
 Sum of Mulliken charges =  -0.00000

 Dipole moment (field-independent basis, Debye):
    X=             -1.8300    Y=             -1.4127    Z=              0.0000  Tot=              2.3119
 Quadrupole moment (field-independent basis, Debye-Ang):
   XX=             -9.6497   YY=              0.2423   ZZ=            -14.7149
   XY=             -3.3693   XZ=              0.0000   YZ=              0.0000

 Normal termination of Gaussian 16 at Sat Aug 27 09:33:46 2022.
