 Gaussian 16, Revision A.03,
 Gaussian 16:  ES64L-G16RevA.03 25-Dec-2016

 ------------------
 #p CCSD(T)/cc-pVTZ
 ------------------

 ------------
 H2O_H2O_1431
 ------------
 Symbolic Z-matrix:
 Charge =  0 Multiplicity = 1

                         Standard orientation:
 ---------------------------------------------------------------------
 Center     Atomic      Atomic             Coordinates (Angstroms)
 Number     Number       Type             X           Y           Z
 ---------------------------------------------------------------------
      1          8           0        0.021861   -1.556771    0.000000
      2          1           0       -0.778397   -2.126939    0.000000
      3          1           0        0.820744   -2.128867    0.000000
      4          8           0        0.021861    1.565414    0.000000
      5          1           0        0.543011    2.398426    0.000000
      6          1           0       -0.935141    1.788241    0.000000
 ---------------------------------------------------------------------

 SCF Done:  E(RHF) =  -152.102686190     A.U. after   11 cycles
 E2 =    -0.5271629990D+00 EUMP2 =    -0.15262984918848D+03
 CCSD(T)
 CCSD(T)= -0.15265712141D+03

 The electronic state is 1-A'.
 Alpha  occ. eigenvalues --  -20.54141 -20.53940  -1.31465  -1.31194  -0.68887
 Alpha  occ. eigenvalues --   -0.68628  -0.55544  -0.53501  -0.48629  -0.48203
 Alpha virt. eigenvalues --    0.14246   0.16566   0.20515   0.21858   0.52367
 Alpha virt. eigenvalues --    0.58225   0.58305   0.58864   0.64801   0.76732
 Alpha virt. eigenvalues --    0.78018   0.78496   0.79231   0.82311   0.85917

 Mulliken charges:
               1
     1  O   -0.477532
     2  H    0.235632
     3  H    0.242221
     4  O   -0.475891
     5  H    0.234363
     6  H    0.241207
 Sum of Mulliken charges =   0.00000

 Dipole moment (field-independent basis, Debye):
    X=             -0.7191    Y=             -0.1627    Z=              0.0000  Tot=              0.7373
 Quadrupole moment (field-independent basis, Debye-Ang):
   XX=             -8.1786   YY=             -0.0563   ZZ=            -14.7104
   XY=             -0.5753   XZ=              0.0000   YZ=              0.0000

 Normal termination of Gaussian 16 at Sat Aug 27 04:43:34 2022.
