 Gaussian 16, Revision A.03,
 Gaussian 16:  ES64L-G16RevA.03 25-Dec-2016

 ------------------
 #p CCSD(T)/cc-pVTZ
 ------------------

 ---------
 H2O_H2O_9
 ---------
 Symbolic Z-matrix:
 Charge =  0 Multiplicity = 1

                         Standard orientation:
 ---------------------------------------------------------------------
 Center     Atomic      Atomic             Coordinates (Angstroms)
 Number     Number       Type             X           Y           Z
 ---------------------------------------------------------------------
      1          8           0        0.031763   -0.793258    0.000000
      2          1           0       -0.769747   -1.361666    0.000000
      3          1           0        0.829386   -1.367107    0.000000
      4          8           0        0.031763    0.812292    0.000000
      5          1           0        0.382403    1.730202    0.000000
      6          1           0       -0.950250    0.846294    0.000000
 ---------------------------------------------------------------------

 SCF Done:  E(RHF) =  -151.914527448     A.U. after   12 cycles
 E2 =    -0.5522850506D+00 EUMP2 =    -0.15246681249827D+03
 CCSD(T)
 CCSD(T)= -0.15249104969D+03

 The electronic state is 1-A'.
 Alpha  occ. eigenvalues --  -20.52267 -20.51672  -1.38280  -1.26686  -0.73368
 Alpha  occ. eigenvalues --   -0.69944  -0.62387  -0.53881  -0.43173  -0.33548
 Alpha virt. eigenvalues --    0.14068   0.19184   0.19959   0.23480   0.53484
 Alpha virt. eigenvalues --    0.55422   0.58753   0.65654   0.71855   0.78109
 Alpha virt. eigenvalues --    0.79723   0.82743   0.82803   0.84412   0.89005

 Mulliken charges:
               1
     1  O   -0.330160
     2  H    0.153916
     3  H    0.180477
     4  O   -0.318120
     5  H    0.091022
     6  H    0.222865
 Sum of Mulliken charges =  -0.00000

 Dipole moment (field-independent basis, Debye):
    X=             -0.8734    Y=             -0.5095    Z=              0.0000  Tot=              1.0111
 Quadrupole moment (field-independent basis, Debye-Ang):
   XX=             -8.9456   YY=             -9.4437   ZZ=            -14.7086
   XY=             -0.4764   XZ=              0.0000   YZ=              0.0000

 83337\MP4DQ=-152.4693672\MP4SDQ=-152.4737664\CCSD=-152.472331\CCSD(T)=
 Normal termination of Gaussian 16 at Fri Aug 26 11:51:09 2022.
