 Gaussian 16, Revision A.03,
 Gaussian 16:  ES64L-G16RevA.03 25-Dec-2016

 ------------------
 #p CCSD(T)/cc-pVTZ
 ------------------

 ------------
 H2O_H2O_4852
 ------------
 Symbolic Z-matrix:
 Charge =  0 Multiplicity = 1

                         Standard orientation:
 ---------------------------------------------------------------------
 Center     Atomic      Atomic             Coordinates (Angstroms)
 Number     Number       Type             X           Y           Z
 ---------------------------------------------------------------------
      1          8           0        0.007455   -3.382476    0.000000
      2          1           0       -0.792224   -3.953457    0.000000
      3          1           0        0.806918   -3.953760    0.000000
      4          8           0        0.007455    3.383451    0.000000
      5          1           0        0.725765    4.053926    0.000000
      6          1           0       -0.859737    3.845496    0.000000
 ---------------------------------------------------------------------

 SCF Done:  E(RHF) =  -152.106944402     A.U. after   10 cycles
 E2 =    -0.5259149400D+00 EUMP2 =    -0.15263285934176D+03
 CCSD(T)
 CCSD(T)= -0.15266008963D+03

 The electronic state is 1-A'.
 Alpha  occ. eigenvalues --  -20.55251 -20.55246  -1.32548  -1.32543  -0.69954
 Alpha  occ. eigenvalues --   -0.69949  -0.55974  -0.55969  -0.49656  -0.49651
 Alpha virt. eigenvalues --    0.14385   0.14395   0.20438   0.20444   0.54614
 Alpha virt. eigenvalues --    0.54619   0.57490   0.57495   0.68248   0.68261
 Alpha virt. eigenvalues --    0.79223   0.79228   0.80665   0.80670   0.82591

 Mulliken charges:
               1
     1  O   -0.506127
     2  H    0.252924
     3  H    0.253203
     4  O   -0.506123
     5  H    0.252863
     6  H    0.253260
 Sum of Mulliken charges =  -0.00000

 Dipole moment (field-independent basis, Debye):
    X=             -0.2564    Y=             -0.0170    Z=              0.0000  Tot=              0.2569
 Quadrupole moment (field-independent basis, Debye-Ang):
   XX=             -7.8359   YY=             14.9459   ZZ=            -14.7109
   XY=             -0.6347   XZ=              0.0000   YZ=              0.0000

 Normal termination of Gaussian 16 at Sat Aug 27 09:42:04 2022.
