 Gaussian 16, Revision A.03,
 Gaussian 16:  ES64L-G16RevA.03 25-Dec-2016

 ------------------
 #p CCSD(T)/cc-pVTZ
 ------------------

 ------------
 H2O_H2O_3947
 ------------
 Symbolic Z-matrix:
 Charge =  0 Multiplicity = 1

                         Standard orientation:
 ---------------------------------------------------------------------
 Center     Atomic      Atomic             Coordinates (Angstroms)
 Number     Number       Type             X           Y           Z
 ---------------------------------------------------------------------
      1          8           0        0.056708   -2.837223    0.000000
      2          1           0       -0.743826   -3.407004    0.000000
      3          1           0        0.855314   -3.409705    0.000000
      4          8           0        0.056708    2.936349    0.000000
      5          1           0       -0.403708    3.804407    0.000000
      6          1           0       -0.615114    2.219299    0.000000
 ---------------------------------------------------------------------

 SCF Done:  E(RHF) =  -152.107652470     A.U. after   10 cycles
 E2 =    -0.5258715361D+00 EUMP2 =    -0.15263352400614D+03
 CCSD(T)
 CCSD(T)= -0.15266073778D+03

 The electronic state is 1-A'.
 Alpha  occ. eigenvalues --  -20.55730 -20.55035  -1.33030  -1.32334  -0.70436
 Alpha  occ. eigenvalues --   -0.69730  -0.56489  -0.55786  -0.50143  -0.49450
 Alpha virt. eigenvalues --    0.13874   0.14718   0.20045   0.20822   0.54116
 Alpha virt. eigenvalues --    0.54831   0.57062   0.57741   0.67497   0.68591
 Alpha virt. eigenvalues --    0.78739   0.79418   0.80158   0.80732   0.82357

 Mulliken charges:
               1
     1  O   -0.510337
     2  H    0.253623
     3  H    0.256737
     4  O   -0.509844
     5  H    0.251672
     6  H    0.258149
 Sum of Mulliken charges =  -0.00000

 Dipole moment (field-independent basis, Debye):
    X=             -1.9465    Y=             -1.7397    Z=              0.0000  Tot=              2.6106
 Quadrupole moment (field-independent basis, Debye-Ang):
   XX=             -9.8275   YY=              2.9257   ZZ=            -14.7128
   XY=             -5.6224   XZ=              0.0000   YZ=              0.0000

 01979\MP4DQ=-152.6426465\MP4SDQ=-152.6457\CCSD=-152.6451134\CCSD(T)=-1
 Normal termination of Gaussian 16 at Sat Aug 27 04:29:45 2022.
