 Gaussian 16, Revision A.03,
 Gaussian 16:  ES64L-G16RevA.03 25-Dec-2016

 ------------------
 #p CCSD(T)/cc-pVTZ
 ------------------

 ------------
 H2O_H2O_2500
 ------------
 Symbolic Z-matrix:
 Charge =  0 Multiplicity = 1

                         Standard orientation:
 ---------------------------------------------------------------------
 Center     Atomic      Atomic             Coordinates (Angstroms)
 Number     Number       Type             X           Y           Z
 ---------------------------------------------------------------------
      1          8           0        0.000000   -0.000000    2.133190
      2          1           0        0.000000    0.799571    2.704322
      3          1           0       -0.000000   -0.799571    2.704322
      4          8           0        0.000000   -0.000000   -2.133190
      5          1           0       -0.000000   -0.799571   -2.704322
      6          1           0        0.000000    0.799571   -2.704322
 ---------------------------------------------------------------------

 SCF Done:  E(RHF) =  -152.105453764     A.U. after   10 cycles
 E2 =    -0.5261781830D+00 EUMP2 =    -0.15263163194653D+03
 CCSD(T)
 CCSD(T)= -0.15265888239D+03

 The electronic state is 1-AG.
 Alpha  occ. eigenvalues --  -20.54675 -20.54675  -1.31966  -1.31960  -0.69381
 Alpha  occ. eigenvalues --   -0.69374  -0.55407  -0.55204  -0.49073  -0.49049
 Alpha virt. eigenvalues --    0.14287   0.15366   0.20639   0.20976   0.54665
 Alpha virt. eigenvalues --    0.55739   0.57855   0.58037   0.64070   0.73312
 Alpha virt. eigenvalues --    0.79618   0.79998   0.81135   0.81428   0.81801

 Mulliken charges:
               1
     1  O   -0.496923
     2  H    0.248461
     3  H    0.248461
     4  O   -0.496923
     5  H    0.248461
     6  H    0.248461
 Sum of Mulliken charges =   0.00000

 Dipole moment (field-independent basis, Debye):
    X=             -0.0000    Y=              0.0000    Z=             -0.0000  Tot=              0.0000
 Quadrupole moment (field-independent basis, Debye-Ang):
   XX=            -14.7094   YY=             -7.8284   ZZ=              4.9498
   XY=              0.0000   XZ=              0.0000   YZ=             -0.0000

 6\MP4DQ=-152.64073\MP4SDQ=-152.6438064\CCSD=-152.6432111\CCSD(T)=-152.
 Normal termination of Gaussian 16 at Fri Aug 26 12:58:56 2022.
