 Gaussian 16, Revision A.03,
 Gaussian 16:  ES64L-G16RevA.03 25-Dec-2016

 ------------------
 #p CCSD(T)/cc-pVTZ
 ------------------

 ------------
 H2O_H2O_3682
 ------------
 Symbolic Z-matrix:
 Charge =  0 Multiplicity = 1

                         Standard orientation:
 ---------------------------------------------------------------------
 Center     Atomic      Atomic             Coordinates (Angstroms)
 Number     Number       Type             X           Y           Z
 ---------------------------------------------------------------------
      1          8           0        0.025265   -2.751721    0.000000
      2          1           0       -0.774756   -3.322223    0.000000
      3          1           0        0.824386   -3.323484    0.000000
      4          8           0        0.025265    2.763461    0.000000
      5          1           0        0.490456    3.628969    0.000000
      6          1           0       -0.944328    2.922817    0.000000
 ---------------------------------------------------------------------

 SCF Done:  E(RHF) =  -152.106616142     A.U. after   10 cycles
 E2 =    -0.5259633002D+00 EUMP2 =    -0.15263257944256D+03
 CCSD(T)
 CCSD(T)= -0.15265981555D+03

 The electronic state is 1-A'.
 Alpha  occ. eigenvalues --  -20.55128 -20.55039  -1.32423  -1.32333  -0.69831
 Alpha  occ. eigenvalues --   -0.69739  -0.55833  -0.55744  -0.49529  -0.49439
 Alpha virt. eigenvalues --    0.14418   0.14635   0.20500   0.20627   0.54726
 Alpha virt. eigenvalues --    0.54849   0.57585   0.57682   0.68141   0.68792
 Alpha virt. eigenvalues --    0.79349   0.79437   0.80793   0.80898   0.82731

 Mulliken charges:
               1
     1  O   -0.504213
     2  H    0.251265
     3  H    0.252949
     4  O   -0.504088
     5  H    0.250864
     6  H    0.253224
 Sum of Mulliken charges =  -0.00000

 Dipole moment (field-independent basis, Debye):
    X=             -0.8658    Y=             -0.2060    Z=              0.0000  Tot=              0.8899
 Quadrupole moment (field-independent basis, Debye-Ang):
   XX=             -8.2088   YY=              9.2690   ZZ=            -14.7105
   XY=             -1.6990   XZ=              0.0000   YZ=              0.0000

 Normal termination of Gaussian 16 at Sat Aug 27 02:26:38 2022.
