 Gaussian 16, Revision A.03,
 Gaussian 16:  ES64L-G16RevA.03 25-Dec-2016

 ------------------
 #p CCSD(T)/cc-pVTZ
 ------------------

 ------------
 H2O_H2O_1556
 ------------
 Symbolic Z-matrix:
 Charge =  0 Multiplicity = 1

                         Standard orientation:
 ---------------------------------------------------------------------
 Center     Atomic      Atomic             Coordinates (Angstroms)
 Number     Number       Type             X           Y           Z
 ---------------------------------------------------------------------
      1          8           0        0.021861   -1.623250    0.000000
      2          1           0       -0.778369   -2.193457    0.000000
      3          1           0        0.820771   -2.195306    0.000000
      4          8           0        0.021861    1.631894    0.000000
      5          1           0        0.542970    2.464932    0.000000
      6          1           0       -0.935152    1.854675    0.000000
 ---------------------------------------------------------------------

 SCF Done:  E(RHF) =  -152.103408866     A.U. after   10 cycles
 E2 =    -0.5269538783D+00 EUMP2 =    -0.15263036274419D+03
 CCSD(T)
 CCSD(T)= -0.15265762433D+03

 The electronic state is 1-A'.
 Alpha  occ. eigenvalues --  -20.54255 -20.54065  -1.31556  -1.31326  -0.68981
 Alpha  occ. eigenvalues --   -0.68752  -0.55454  -0.53869  -0.48700  -0.48362
 Alpha virt. eigenvalues --    0.14205   0.16409   0.20521   0.21733   0.52650
 Alpha virt. eigenvalues --    0.57752   0.58151   0.58628   0.63499   0.76684
 Alpha virt. eigenvalues --    0.78381   0.78573   0.79647   0.81907   0.85430

 Mulliken charges:
               1
     1  O   -0.480561
     2  H    0.237523
     3  H    0.243411
     4  O   -0.479834
     5  H    0.236537
     6  H    0.242925
 Sum of Mulliken charges =  -0.00000

 Dipole moment (field-independent basis, Debye):
    X=             -0.7235    Y=             -0.1620    Z=              0.0000  Tot=              0.7414
 Quadrupole moment (field-independent basis, Debye-Ang):
   XX=             -8.1676   YY=              0.5104   ZZ=            -14.7097
   XY=             -0.6224   XZ=              0.0000   YZ=              0.0000

 Normal termination of Gaussian 16 at Sat Aug 27 05:27:09 2022.
