 Gaussian 16, Revision A.03,
 Gaussian 16:  ES64L-G16RevA.03 25-Dec-2016

 ------------------
 #p CCSD(T)/cc-pVTZ
 ------------------

 ------------
 H2O_H2O_2769
 ------------
 Symbolic Z-matrix:
 Charge =  0 Multiplicity = 1

                         Standard orientation:
 ---------------------------------------------------------------------
 Center     Atomic      Atomic             Coordinates (Angstroms)
 Number     Number       Type             X           Y           Z
 ---------------------------------------------------------------------
      1          8           0        0.054162   -2.224174    0.000000
      2          1           0       -0.746582   -2.793660    0.000000
      3          1           0        0.852556   -2.796950    0.000000
      4          8           0        0.054162    2.301461    0.000000
      5          1           0       -0.227711    3.242765    0.000000
      6          1           0       -0.744852    1.729550    0.000000
 ---------------------------------------------------------------------

 SCF Done:  E(RHF) =  -152.107490232     A.U. after   10 cycles
 E2 =    -0.5260099450D+00 EUMP2 =    -0.15263350017664D+03
 CCSD(T)
 CCSD(T)= -0.15266070433D+03

 The electronic state is 1-A'.
 Alpha  occ. eigenvalues --  -20.55613 -20.54668  -1.32903  -1.31961  -0.70311
 Alpha  occ. eigenvalues --   -0.69345  -0.56345  -0.55402  -0.50015  -0.49078
 Alpha virt. eigenvalues --    0.13457   0.15437   0.20068   0.21477   0.54075
 Alpha virt. eigenvalues --    0.54833   0.57200   0.58028   0.66408   0.71709
 Alpha virt. eigenvalues --    0.78867   0.79787   0.79866   0.81146   0.82710

 Mulliken charges:
               1
     1  O   -0.507398
     2  H    0.251013
     3  H    0.257076
     4  O   -0.508090
     5  H    0.248276
     6  H    0.259123
 Sum of Mulliken charges =  -0.00000

 Dipole moment (field-independent basis, Debye):
    X=             -1.8443    Y=             -1.3855    Z=              0.0000  Tot=              2.3067
 Quadrupole moment (field-independent basis, Debye-Ang):
   XX=             -9.6480   YY=              1.6673   ZZ=            -14.7134
   XY=             -3.8529   XZ=              0.0000   YZ=              0.0000

 Normal termination of Gaussian 16 at Fri Aug 26 15:57:07 2022.
