 Gaussian 16, Revision A.03,
 Gaussian 16:  ES64L-G16RevA.03 25-Dec-2016

 ------------------
 #p CCSD(T)/cc-pVTZ
 ------------------

 ------------
 H2O_H2O_4126
 ------------
 Symbolic Z-matrix:
 Charge =  0 Multiplicity = 1

                         Standard orientation:
 ---------------------------------------------------------------------
 Center     Atomic      Atomic             Coordinates (Angstroms)
 Number     Number       Type             X           Y           Z
 ---------------------------------------------------------------------
      1          8           0        0.003735   -2.997292    0.000000
      2          1           0       -0.795897   -3.568338    0.000000
      3          1           0        0.803245   -3.568509    0.000000
      4          8           0        0.003735    2.997535    0.000000
      5          1           0        0.764308    3.619657    0.000000
      6          1           0       -0.831422    3.515240    0.000000
 ---------------------------------------------------------------------

 SCF Done:  E(RHF) =  -152.106702030     A.U. after   10 cycles
 E2 =    -0.5259447502D+00 EUMP2 =    -0.15263264678017D+03
 CCSD(T)
 CCSD(T)= -0.15265988170D+03

 The electronic state is 1-A'.
 Alpha  occ. eigenvalues --  -20.55138 -20.55136  -1.32433  -1.32432  -0.69841
 Alpha  occ. eigenvalues --   -0.69839  -0.55848  -0.55846  -0.49539  -0.49538
 Alpha virt. eigenvalues --    0.14455   0.14509   0.20509   0.20531   0.54723
 Alpha virt. eigenvalues --    0.54738   0.57581   0.57592   0.68323   0.68474
 Alpha virt. eigenvalues --    0.79339   0.79341   0.80784   0.80788   0.82714

 Mulliken charges:
               1
     1  O   -0.504702
     2  H    0.252253
     3  H    0.252449
     4  O   -0.504700
     5  H    0.252215
     6  H    0.252485
 Sum of Mulliken charges =  -0.00000

 Dipole moment (field-independent basis, Debye):
    X=             -0.1282    Y=             -0.0043    Z=              0.0000  Tot=              0.1283
 Quadrupole moment (field-independent basis, Debye-Ang):
   XX=             -7.8137   YY=             11.9259   ZZ=            -14.7105
   XY=             -0.2681   XZ=              0.0000   YZ=              0.0000

 Normal termination of Gaussian 16 at Sat Aug 27 05:31:28 2022.
