 Gaussian 16, Revision A.03,
 Gaussian 16:  ES64L-G16RevA.03 25-Dec-2016

 ------------------
 #p CCSD(T)/cc-pVTZ
 ------------------

 ------------
 H2O_H2O_4681
 ------------
 Symbolic Z-matrix:
 Charge =  0 Multiplicity = 1

                         Standard orientation:
 ---------------------------------------------------------------------
 Center     Atomic      Atomic             Coordinates (Angstroms)
 Number     Number       Type             X           Y           Z
 ---------------------------------------------------------------------
      1          8           0        0.021859   -3.285226    0.000000
      2          1           0       -0.778039   -3.855900    0.000000
      3          1           0        0.821103   -3.856815    0.000000
      4          8           0        0.021859    3.293896    0.000000
      5          1           0        0.542480    4.127238    0.000000
      6          1           0       -0.935284    3.516117    0.000000
 ---------------------------------------------------------------------

 SCF Done:  E(RHF) =  -152.106949460     A.U. after   10 cycles
 E2 =    -0.5259162865D+00 EUMP2 =    -0.15263286574636D+03
 CCSD(T)
 CCSD(T)= -0.15266009582D+03

 The electronic state is 1-A'.
 Alpha  occ. eigenvalues --  -20.55266 -20.55220  -1.32563  -1.32517  -0.69970
 Alpha  occ. eigenvalues --   -0.69922  -0.55989  -0.55943  -0.49671  -0.49625
 Alpha virt. eigenvalues --    0.14371   0.14420   0.20424   0.20472   0.54598
 Alpha virt. eigenvalues --    0.54648   0.57476   0.57522   0.68233   0.68286
 Alpha virt. eigenvalues --    0.79208   0.79254   0.80649   0.80700   0.82576

 Mulliken charges:
               1
     1  O   -0.506160
     2  H    0.252639
     3  H    0.253522
     4  O   -0.506119
     5  H    0.252418
     6  H    0.253701
 Sum of Mulliken charges =  -0.00000

 Dipole moment (field-independent basis, Debye):
    X=             -0.7515    Y=             -0.1511    Z=              0.0000  Tot=              0.7665
 Quadrupole moment (field-independent basis, Debye-Ang):
   XX=             -8.1025   YY=             13.5723   ZZ=            -14.7109
   XY=             -1.8445   XZ=              0.0000   YZ=              0.0000

 Normal termination of Gaussian 16 at Sat Aug 27 08:43:29 2022.
