 Gaussian 16, Revision A.03,
 Gaussian 16:  ES64L-G16RevA.03 25-Dec-2016

 ------------------
 #p CCSD(T)/cc-pVTZ
 ------------------

 ------------
 H2O_H2O_3841
 ------------
 Symbolic Z-matrix:
 Charge =  0 Multiplicity = 1

                         Standard orientation:
 ---------------------------------------------------------------------
 Center     Atomic      Atomic             Coordinates (Angstroms)
 Number     Number       Type             X           Y           Z
 ---------------------------------------------------------------------
      1          8           0        0.049504   -2.806936    0.000000
      2          1           0       -0.750923   -3.376866    0.000000
      3          1           0        0.848217   -3.379268    0.000000
      4          8           0        0.049504    2.863901    0.000000
      5          1           0       -0.043856    3.842057    0.000000
      6          1           0       -0.845506    2.458360    0.000000
 ---------------------------------------------------------------------

 SCF Done:  E(RHF) =  -152.107183449     A.U. after   10 cycles
 E2 =    -0.5259131288D+00 EUMP2 =    -0.15263309657809D+03
 CCSD(T)
 CCSD(T)= -0.15266032049D+03

 The electronic state is 1-A'.
 Alpha  occ. eigenvalues --  -20.55458 -20.55043  -1.32756  -1.32339  -0.70163
 Alpha  occ. eigenvalues --   -0.69737  -0.56193  -0.55775  -0.49866  -0.49451
 Alpha virt. eigenvalues --    0.14132   0.14666   0.20249   0.20722   0.54392
 Alpha virt. eigenvalues --    0.54842   0.57299   0.57713   0.67846   0.68620
 Alpha virt. eigenvalues --    0.79014   0.79422   0.80446   0.80861   0.82445

 Mulliken charges:
               1
     1  O   -0.507582
     2  H    0.252282
     3  H    0.255307
     4  O   -0.507242
     5  H    0.251040
     6  H    0.256194
 Sum of Mulliken charges =  -0.00000

 Dipole moment (field-independent basis, Debye):
    X=             -1.6981    Y=             -0.9996    Z=              0.0000  Tot=              1.9705
 Quadrupole moment (field-independent basis, Debye-Ang):
   XX=             -9.3455   YY=              6.4550   ZZ=            -14.7117
   XY=             -4.1651   XZ=              0.0000   YZ=              0.0000

 Normal termination of Gaussian 16 at Sat Aug 27 03:43:05 2022.
