 Gaussian 16, Revision A.03,
 Gaussian 16:  ES64L-G16RevA.03 25-Dec-2016

 ------------------
 #p CCSD(T)/cc-pVTZ
 ------------------

 -----------
 H2O_H2O_749
 -----------
 Symbolic Z-matrix:
 Charge =  0 Multiplicity = 1

                         Standard orientation:
 ---------------------------------------------------------------------
 Center     Atomic      Atomic             Coordinates (Angstroms)
 Number     Number       Type             X           Y           Z
 ---------------------------------------------------------------------
      1          8           0        0.057350   -1.127398    0.000000
      2          1           0       -0.744585   -1.695206    0.000000
      3          1           0        0.854543   -1.701845    0.000000
      4          8           0        0.057350    1.241149    0.000000
      5          1           0       -0.510458    2.043085    0.000000
      6          1           0       -0.517097    0.443956    0.000000
 ---------------------------------------------------------------------

 SCF Done:  E(RHF) =  -152.094745474     A.U. after   11 cycles
 E2 =    -0.5318671642D+00 EUMP2 =    -0.15262661263836D+03
 CCSD(T)
 CCSD(T)= -0.15265328815D+03

 The electronic state is 1-A'.
 Alpha  occ. eigenvalues --  -20.57363 -20.50853  -1.35632  -1.28587  -0.72891
 Alpha  occ. eigenvalues --   -0.69164  -0.55800  -0.52460  -0.52159  -0.45615
 Alpha virt. eigenvalues --    0.12743   0.18627   0.19116   0.27705   0.49639
 Alpha virt. eigenvalues --    0.55342   0.61272   0.63666   0.71358   0.73368
 Alpha virt. eigenvalues --    0.75540   0.82139   0.82784   0.83443   0.86625

 Mulliken charges:
               1
     1  O   -0.440105
     2  H    0.230133
     3  H    0.252549
     4  O   -0.529268
     5  H    0.215965
     6  H    0.270725
 Sum of Mulliken charges =  -0.00000

 Dipole moment (field-independent basis, Debye):
    X=             -1.7699    Y=             -2.5598    Z=              0.0000  Tot=              3.1121
 Quadrupole moment (field-independent basis, Debye-Ang):
   XX=             -9.8419   YY=             -6.0095   ZZ=            -14.6971
   XY=             -2.6834   XZ=              0.0000   YZ=              0.0000

 Normal termination of Gaussian 16 at Fri Aug 26 19:39:24 2022.
