 Gaussian 16, Revision A.03,
 Gaussian 16:  ES64L-G16RevA.03 25-Dec-2016

 ------------------
 #p CCSD(T)/cc-pVTZ
 ------------------

 -----------
 H2O_H2O_311
 -----------
 Symbolic Z-matrix:
 Charge =  0 Multiplicity = 1

                         Standard orientation:
 ---------------------------------------------------------------------
 Center     Atomic      Atomic             Coordinates (Angstroms)
 Number     Number       Type             X           Y           Z
 ---------------------------------------------------------------------
      1          8           0        0.037705   -0.947889    0.000000
      2          1           0       -0.763786   -1.516323    0.000000
      3          1           0        0.835347   -1.521712    0.000000
      4          8           0        0.037705    0.975981    0.000000
      5          1           0        0.265503    1.931813    0.000000
      6          1           0       -0.940343    0.881482    0.000000
 ---------------------------------------------------------------------

 SCF Done:  E(RHF) =  -152.041183524     A.U. after   11 cycles
 E2 =    -0.5370948888D+00 EUMP2 =    -0.15257827841274D+03
 CCSD(T)
 CCSD(T)= -0.15260487797D+03

 The electronic state is 1-A'.
 Alpha  occ. eigenvalues --  -20.52673 -20.51716  -1.33301  -1.28254  -0.70156
 Alpha  occ. eigenvalues --   -0.67637  -0.59481  -0.50230  -0.44836  -0.44035
 Alpha virt. eigenvalues --    0.14296   0.18339   0.20107   0.23527   0.53305
 Alpha virt. eigenvalues --    0.57127   0.58504   0.64267   0.71503   0.77153
 Alpha virt. eigenvalues --    0.79672   0.82099   0.83431   0.85440   0.88362

 Mulliken charges:
               1
     1  O   -0.426038
     2  H    0.202066
     3  H    0.222094
     4  O   -0.396044
     5  H    0.164598
     6  H    0.233324
 Sum of Mulliken charges =  -0.00000

 Dipole moment (field-independent basis, Debye):
    X=             -1.0744    Y=             -0.5907    Z=              0.0000  Tot=              1.2261
 Quadrupole moment (field-independent basis, Debye-Ang):
   XX=             -8.9457   YY=             -6.2985   ZZ=            -14.7200
   XY=             -0.5540   XZ=              0.0000   YZ=              0.0000

 Normal termination of Gaussian 16 at Fri Aug 26 15:08:59 2022.
