 Gaussian 16, Revision A.03,
 Gaussian 16:  ES64L-G16RevA.03 25-Dec-2016

 ------------------
 #p CCSD(T)/cc-pVTZ
 ------------------

 ------------
 H2O_H2O_4480
 ------------
 Symbolic Z-matrix:
 Charge =  0 Multiplicity = 1

                         Standard orientation:
 ---------------------------------------------------------------------
 Center     Atomic      Atomic             Coordinates (Angstroms)
 Number     Number       Type             X           Y           Z
 ---------------------------------------------------------------------
      1          8           0        0.018360   -3.180285    0.000000
      2          1           0       -0.781495   -3.751019    0.000000
      3          1           0        0.817647   -3.751813    0.000000
      4          8           0        0.018360    3.186328    0.000000
      5          1           0        0.592310    3.983879    0.000000
      6          1           0       -0.922221    3.470603    0.000000
 ---------------------------------------------------------------------

 SCF Done:  E(RHF) =  -152.106874167     A.U. after   10 cycles
 E2 =    -0.5259249725D+00 EUMP2 =    -0.15263279913934D+03
 CCSD(T)
 CCSD(T)= -0.15266003068D+03

 The electronic state is 1-A'.
 Alpha  occ. eigenvalues --  -20.55226 -20.55192  -1.32522  -1.32488  -0.69929
 Alpha  occ. eigenvalues --   -0.69894  -0.55945  -0.55911  -0.49630  -0.49596
 Alpha virt. eigenvalues --    0.14402   0.14445   0.20453   0.20491   0.54639
 Alpha virt. eigenvalues --    0.54677   0.57510   0.57545   0.68273   0.68334
 Alpha virt. eigenvalues --    0.79249   0.79283   0.80692   0.80729   0.82619

 Mulliken charges:
               1
     1  O   -0.505717
     2  H    0.252451
     3  H    0.253266
     4  O   -0.505682
     5  H    0.252260
     6  H    0.253422
 Sum of Mulliken charges =   0.00000

 Dipole moment (field-independent basis, Debye):
    X=             -0.6309    Y=             -0.1054    Z=              0.0000  Tot=              0.6396
 Quadrupole moment (field-independent basis, Debye-Ang):
   XX=             -8.0148   YY=             12.9627   ZZ=            -14.7108
   XY=             -1.4674   XZ=              0.0000   YZ=              0.0000

 Normal termination of Gaussian 16 at Sat Aug 27 07:33:09 2022.
