 Gaussian 16, Revision A.03,
 Gaussian 16:  ES64L-G16RevA.03 25-Dec-2016

 ------------------
 #p CCSD(T)/cc-pVTZ
 ------------------

 ------------
 H2O_H2O_4651
 ------------
 Symbolic Z-matrix:
 Charge =  0 Multiplicity = 1

                         Standard orientation:
 ---------------------------------------------------------------------
 Center     Atomic      Atomic             Coordinates (Angstroms)
 Number     Number       Type             X           Y           Z
 ---------------------------------------------------------------------
      1          8           0        0.003735   -3.276506    0.000000
      2          1           0       -0.795892   -3.847559    0.000000
      3          1           0        0.803250   -3.847716    0.000000
      4          8           0        0.003735    3.276749    0.000000
      5          1           0        0.764302    3.898879    0.000000
      6          1           0       -0.831427    3.794446    0.000000
 ---------------------------------------------------------------------

 SCF Done:  E(RHF) =  -152.106884796     A.U. after   10 cycles
 E2 =    -0.5259219554D+00 EUMP2 =    -0.15263280675158D+03
 CCSD(T)
 CCSD(T)= -0.15266003819D+03

 The electronic state is 1-A'.
 Alpha  occ. eigenvalues --  -20.55221 -20.55220  -1.32517  -1.32516  -0.69924
 Alpha  occ. eigenvalues --   -0.69923  -0.55941  -0.55939  -0.49625  -0.49624
 Alpha virt. eigenvalues --    0.14407   0.14420   0.20458   0.20465   0.54644
 Alpha virt. eigenvalues --    0.54647   0.57515   0.57519   0.68278   0.68303
 Alpha virt. eigenvalues --    0.79254   0.79256   0.80697   0.80699   0.82623

 Mulliken charges:
               1
     1  O   -0.505776
     2  H    0.252812
     3  H    0.252964
     4  O   -0.505775
     5  H    0.252780
     6  H    0.252995
 Sum of Mulliken charges =  -0.00000

 Dipole moment (field-independent basis, Debye):
    X=             -0.1284    Y=             -0.0042    Z=              0.0000  Tot=              0.1285
 Quadrupole moment (field-independent basis, Debye-Ang):
   XX=             -7.8106   YY=             14.1588   ZZ=            -14.7108
   XY=             -0.3036   XZ=              0.0000   YZ=              0.0000

 Normal termination of Gaussian 16 at Sat Aug 27 08:33:09 2022.
