 Gaussian 16, Revision A.03,
 Gaussian 16:  ES64L-G16RevA.03 25-Dec-2016

 ------------------
 #p CCSD(T)/cc-pVTZ
 ------------------

 ------------
 H2O_H2O_3598
 ------------
 Symbolic Z-matrix:
 Charge =  0 Multiplicity = 1

                         Standard orientation:
 ---------------------------------------------------------------------
 Center     Atomic      Atomic             Coordinates (Angstroms)
 Number     Number       Type             X           Y           Z
 ---------------------------------------------------------------------
      1          8           0        0.057088   -2.647049    0.000000
      2          1           0       -0.743519   -3.216728    0.000000
      3          1           0        0.855620   -3.219633    0.000000
      4          8           0        0.057088    2.753598    0.000000
      5          1           0       -0.459009    3.589750    0.000000
      6          1           0       -0.566497    1.994223    0.000000
 ---------------------------------------------------------------------

 SCF Done:  E(RHF) =  -152.107816657     A.U. after   10 cycles
 E2 =    -0.5258773709D+00 EUMP2 =    -0.15263369402802D+03
 CCSD(T)
 CCSD(T)= -0.15266090209D+03

 The electronic state is 1-A'.
 Alpha  occ. eigenvalues --  -20.55804 -20.54936  -1.33102  -1.32236  -0.70508
 Alpha  occ. eigenvalues --   -0.69628  -0.56568  -0.55691  -0.50217  -0.49353
 Alpha virt. eigenvalues --    0.13678   0.14909   0.19986   0.21001   0.54031
 Alpha virt. eigenvalues --    0.54883   0.57004   0.57803   0.67156   0.68992
 Alpha virt. eigenvalues --    0.78668   0.79510   0.80042   0.80460   0.82684

 Mulliken charges:
               1
     1  O   -0.511118
     2  H    0.253744
     3  H    0.257485
     4  O   -0.510537
     5  H    0.251192
     6  H    0.259235
 Sum of Mulliken charges =  -0.00000

 Dipole moment (field-independent basis, Debye):
    X=             -1.9567    Y=             -1.8785    Z=              0.0000  Tot=              2.7125
 Quadrupole moment (field-independent basis, Debye-Ang):
   XX=             -9.8538   YY=              1.3962   ZZ=            -14.7133
   XY=             -5.4302   XZ=              0.0000   YZ=              0.0000

 Normal termination of Gaussian 16 at Sat Aug 27 01:47:25 2022.
