 Gaussian 16, Revision A.03,
 Gaussian 16:  ES64L-G16RevA.03 25-Dec-2016

 ------------------
 #p CCSD(T)/cc-pVTZ
 ------------------

 ------------
 H2O_H2O_2482
 ------------
 Symbolic Z-matrix:
 Charge =  0 Multiplicity = 1

                         Standard orientation:
 ---------------------------------------------------------------------
 Center     Atomic      Atomic             Coordinates (Angstroms)
 Number     Number       Type             X           Y           Z
 ---------------------------------------------------------------------
      1          8           0        0.025267   -2.113524    0.000000
      2          1           0       -0.774890   -2.683835    0.000000
      3          1           0        0.824251   -2.685476    0.000000
      4          8           0        0.025267    2.125252    0.000000
      5          1           0        0.490663    2.990649    0.000000
      6          1           0       -0.944289    2.284838    0.000000
 ---------------------------------------------------------------------

 SCF Done:  E(RHF) =  -152.105713244     A.U. after   10 cycles
 E2 =    -0.5261708067D+00 EUMP2 =    -0.15263188405078D+03
 CCSD(T)
 CCSD(T)= -0.15265912729D+03

 The electronic state is 1-A'.
 Alpha  occ. eigenvalues --  -20.54806 -20.54650  -1.32093  -1.31935  -0.69507
 Alpha  occ. eigenvalues --   -0.69343  -0.55495  -0.55246  -0.49194  -0.49036
 Alpha virt. eigenvalues --    0.14140   0.15427   0.20543   0.21063   0.54400
 Alpha virt. eigenvalues --    0.55579   0.57796   0.58035   0.64315   0.73395
 Alpha virt. eigenvalues --    0.79535   0.79974   0.80949   0.81160   0.82269

 Mulliken charges:
               1
     1  O   -0.498273
     2  H    0.247452
     3  H    0.250908
     4  O   -0.497965
     5  H    0.246742
     6  H    0.251136
 Sum of Mulliken charges =  -0.00000

 Dipole moment (field-independent basis, Debye):
    X=             -0.8570    Y=             -0.2105    Z=              0.0000  Tot=              0.8825
 Quadrupole moment (field-independent basis, Debye-Ang):
   XX=             -8.2247   YY=              4.3592   ZZ=            -14.7100
   XY=             -1.1556   XZ=              0.0000   YZ=              0.0000

 Normal termination of Gaussian 16 at Sat Aug 27 10:48:07 2022.
