 Gaussian 16, Revision A.03,
 Gaussian 16:  ES64L-G16RevA.03 25-Dec-2016

 ------------------
 #p CCSD(T)/cc-pVTZ
 ------------------

 ------------
 H2O_H2O_4680
 ------------
 Symbolic Z-matrix:
 Charge =  0 Multiplicity = 1

                         Standard orientation:
 ---------------------------------------------------------------------
 Center     Atomic      Atomic             Coordinates (Angstroms)
 Number     Number       Type             X           Y           Z
 ---------------------------------------------------------------------
      1          8           0        0.018360   -3.286651    0.000000
      2          1           0       -0.781485   -3.857399    0.000000
      3          1           0        0.817656   -3.858167    0.000000
      4          8           0        0.018360    3.292696    0.000000
      5          1           0        0.592297    4.090256    0.000000
      6          1           0       -0.922226    3.576956    0.000000
 ---------------------------------------------------------------------

 SCF Done:  E(RHF) =  -152.106931543     A.U. after   10 cycles
 E2 =    -0.5259177846D+00 EUMP2 =    -0.15263284932731D+03
 CCSD(T)
 CCSD(T)= -0.15266007979D+03

 The electronic state is 1-A'.
 Alpha  occ. eigenvalues --  -20.55253 -20.55221  -1.32550  -1.32517  -0.69957
 Alpha  occ. eigenvalues --   -0.69924  -0.55975  -0.55943  -0.49658  -0.49626
 Alpha virt. eigenvalues --    0.14383   0.14418   0.20434   0.20468   0.54611
 Alpha virt. eigenvalues --    0.54647   0.57487   0.57520   0.68247   0.68288
 Alpha virt. eigenvalues --    0.79222   0.79253   0.80663   0.80698   0.82589

 Mulliken charges:
               1
     1  O   -0.506054
     2  H    0.252656
     3  H    0.253398
     4  O   -0.506024
     5  H    0.252478
     6  H    0.253546
 Sum of Mulliken charges =  -0.00000

 Dipole moment (field-independent basis, Debye):
    X=             -0.6312    Y=             -0.1054    Z=              0.0000  Tot=              0.6399
 Quadrupole moment (field-independent basis, Debye-Ang):
   XX=             -8.0139   YY=             13.7905   ZZ=            -14.7109
   XY=             -1.5341   XZ=              0.0000   YZ=              0.0000

 Normal termination of Gaussian 16 at Sat Aug 27 08:43:11 2022.
