 Gaussian 16, Revision A.03,
 Gaussian 16:  ES64L-G16RevA.03 25-Dec-2016

 ------------------
 #p CCSD(T)/cc-pVTZ
 ------------------

 ------------
 H2O_H2O_4265
 ------------
 Symbolic Z-matrix:
 Charge =  0 Multiplicity = 1

                         Standard orientation:
 ---------------------------------------------------------------------
 Center     Atomic      Atomic             Coordinates (Angstroms)
 Number     Number       Type             X           Y           Z
 ---------------------------------------------------------------------
      1          8           0        0.047522   -3.036402    0.000000
      2          1           0       -0.752811   -3.606466    0.000000
      3          1           0        0.846329   -3.608601    0.000000
      4          8           0        0.047522    3.087041    0.000000
      5          1           0        0.018172    4.069204    0.000000
      6          1           0       -0.872038    2.740753    0.000000
 ---------------------------------------------------------------------

 SCF Done:  E(RHF) =  -152.107185179     A.U. after   10 cycles
 E2 =    -0.5259025222D+00 EUMP2 =    -0.15263308770140D+03
 CCSD(T)
 CCSD(T)= -0.15266031231D+03

 The electronic state is 1-A'.
 Alpha  occ. eigenvalues --  -20.55447 -20.55134  -1.32745  -1.32430  -0.70152
 Alpha  occ. eigenvalues --   -0.69831  -0.56182  -0.55867  -0.49855  -0.49541
 Alpha virt. eigenvalues --    0.14197   0.14535   0.20271   0.20609   0.54411
 Alpha virt. eigenvalues --    0.54747   0.57311   0.57626   0.67994   0.68375
 Alpha virt. eigenvalues --    0.79025   0.79334   0.80459   0.80796   0.82392

 Mulliken charges:
               1
     1  O   -0.507576
     2  H    0.252622
     3  H    0.254955
     4  O   -0.507347
     5  H    0.251715
     6  H    0.255631
 Sum of Mulliken charges =  -0.00000

 Dipole moment (field-independent basis, Debye):
    X=             -1.6324    Y=             -0.8855    Z=              0.0000  Tot=              1.8571
 Quadrupole moment (field-independent basis, Debye-Ang):
   XX=             -9.2245   YY=              8.3832   ZZ=            -14.7115
   XY=             -4.2699   XZ=              0.0000   YZ=              0.0000

 Normal termination of Gaussian 16 at Sat Aug 27 06:20:16 2022.
