 Gaussian 16, Revision A.03,
 Gaussian 16:  ES64L-G16RevA.03 25-Dec-2016

 ------------------
 #p CCSD(T)/cc-pVTZ
 ------------------

 ------------
 H2O_H2O_2782
 ------------
 Symbolic Z-matrix:
 Charge =  0 Multiplicity = 1

                         Standard orientation:
 ---------------------------------------------------------------------
 Center     Atomic      Atomic             Coordinates (Angstroms)
 Number     Number       Type             X           Y           Z
 ---------------------------------------------------------------------
      1          8           0        0.025266   -2.273073    0.000000
      2          1           0       -0.774849   -2.843442    0.000000
      3          1           0        0.824292   -2.844968    0.000000
      4          8           0        0.025266    2.284805    0.000000
      5          1           0        0.490600    3.150235    0.000000
      6          1           0       -0.944301    2.444321    0.000000
 ---------------------------------------------------------------------

 SCF Done:  E(RHF) =  -152.106007059     A.U. after   10 cycles
 E2 =    -0.5260800873D+00 EUMP2 =    -0.15263208714593D+03
 CCSD(T)
 CCSD(T)= -0.15265933091D+03

 The electronic state is 1-A'.
 Alpha  occ. eigenvalues --  -20.54905 -20.54773  -1.32196  -1.32062  -0.69608
 Alpha  occ. eigenvalues --   -0.69469  -0.55585  -0.55427  -0.49298  -0.49165
 Alpha virt. eigenvalues --    0.14247   0.15161   0.20543   0.20913   0.54663
 Alpha virt. eigenvalues --    0.55301   0.57734   0.57920   0.65985   0.71614
 Alpha virt. eigenvalues --    0.79537   0.79746   0.80974   0.81216   0.82443

 Mulliken charges:
               1
     1  O   -0.500514
     2  H    0.248847
     3  H    0.251699
     4  O   -0.500229
     5  H    0.248241
     6  H    0.251957
 Sum of Mulliken charges =  -0.00000

 Dipole moment (field-independent basis, Debye):
    X=             -0.8603    Y=             -0.2086    Z=              0.0000  Tot=              0.8852
 Quadrupole moment (field-independent basis, Debye-Ang):
   XX=             -8.2188   YY=              5.5940   ZZ=            -14.7100
   XY=             -1.2908   XZ=              0.0000   YZ=              0.0000

 Normal termination of Gaussian 16 at Fri Aug 26 16:07:33 2022.
