 Gaussian 16, Revision A.03,
 Gaussian 16:  ES64L-G16RevA.03 25-Dec-2016

 ------------------
 #p CCSD(T)/cc-pVTZ
 ------------------

 ------------
 H2O_H2O_3572
 ------------
 Symbolic Z-matrix:
 Charge =  0 Multiplicity = 1

                         Standard orientation:
 ---------------------------------------------------------------------
 Center     Atomic      Atomic             Coordinates (Angstroms)
 Number     Number       Type             X           Y           Z
 ---------------------------------------------------------------------
      1          8           0        0.056715   -2.637792    0.000000
      2          1           0       -0.743891   -3.207473    0.000000
      3          1           0        0.855248   -3.210373    0.000000
      4          8           0        0.056715    2.736903    0.000000
      5          1           0       -0.403593    3.605018    0.000000
      6          1           0       -0.615198    2.019938    0.000000
 ---------------------------------------------------------------------

 SCF Done:  E(RHF) =  -152.107721489     A.U. after   10 cycles
 E2 =    -0.5258859219D+00 EUMP2 =    -0.15263360741105D+03
 CCSD(T)
 CCSD(T)= -0.15266081756D+03

 The electronic state is 1-A'.
 Alpha  occ. eigenvalues --  -20.55753 -20.54936  -1.33051  -1.32235  -0.70457
 Alpha  occ. eigenvalues --   -0.69627  -0.56512  -0.55688  -0.50165  -0.49352
 Alpha virt. eigenvalues --    0.13725   0.14903   0.20021   0.20983   0.54079
 Alpha virt. eigenvalues --    0.54891   0.57048   0.57803   0.67210   0.69020
 Alpha virt. eigenvalues --    0.78720   0.79512   0.80094   0.80527   0.82678

 Mulliken charges:
               1
     1  O   -0.510583
     2  H    0.253423
     3  H    0.257260
     4  O   -0.510035
     5  H    0.251009
     6  H    0.258925
 Sum of Mulliken charges =  -0.00000

 Dipole moment (field-independent basis, Debye):
    X=             -1.9436    Y=             -1.7476    Z=              0.0000  Tot=              2.6138
 Quadrupole moment (field-independent basis, Debye-Ang):
   XX=             -9.8269   YY=              2.0238   ZZ=            -14.7131
   XY=             -5.2375   XZ=              0.0000   YZ=              0.0000

 Normal termination of Gaussian 16 at Sat Aug 27 01:36:01 2022.
