 Gaussian 16, Revision A.03,
 Gaussian 16:  ES64L-G16RevA.03 25-Dec-2016

 ------------------
 #p CCSD(T)/cc-pVTZ
 ------------------

 ------------
 H2O_H2O_3438
 ------------
 Symbolic Z-matrix:
 Charge =  0 Multiplicity = 1

                         Standard orientation:
 ---------------------------------------------------------------------
 Center     Atomic      Atomic             Coordinates (Angstroms)
 Number     Number       Type             X           Y           Z
 ---------------------------------------------------------------------
      1          8           0        0.042967   -2.604071    0.000000
      2          1           0       -0.757408   -3.174076    0.000000
      3          1           0        0.841733   -3.176329    0.000000
      4          8           0        0.042967    2.642861    0.000000
      5          1           0        0.142139    3.620447    0.000000
      6          1           0       -0.913942    2.419633    0.000000
 ---------------------------------------------------------------------

 SCF Done:  E(RHF) =  -152.106854348     A.U. after   10 cycles
 E2 =    -0.5259559230D+00 EUMP2 =    -0.15263281027074D+03
 CCSD(T)
 CCSD(T)= -0.15266004025D+03

 The electronic state is 1-A'.
 Alpha  occ. eigenvalues --  -20.55288 -20.54957  -1.32584  -1.32250  -0.69992
 Alpha  occ. eigenvalues --   -0.69650  -0.56005  -0.55672  -0.49691  -0.49360
 Alpha virt. eigenvalues --    0.14192   0.14799   0.20353   0.20782   0.54540
 Alpha virt. eigenvalues --    0.54937   0.57442   0.57772   0.67703   0.69157
 Alpha virt. eigenvalues --    0.79188   0.79513   0.80610   0.80968   0.82658

 Mulliken charges:
               1
     1  O   -0.505634
     2  H    0.251175
     3  H    0.254477
     4  O   -0.505266
     5  H    0.250068
     6  H    0.255181
 Sum of Mulliken charges =   0.00000

 Dipole moment (field-independent basis, Debye):
    X=             -1.4709    Y=             -0.6831    Z=              0.0000  Tot=              1.6218
 Quadrupole moment (field-independent basis, Debye-Ang):
   XX=             -8.9668   YY=              6.4860   ZZ=            -14.7111
   XY=             -3.0601   XZ=              0.0000   YZ=              0.0000

 Normal termination of Gaussian 16 at Fri Aug 26 22:20:12 2022.
