 Gaussian 16, Revision A.03,
 Gaussian 16:  ES64L-G16RevA.03 25-Dec-2016

 ------------------
 #p CCSD(T)/cc-pVTZ
 ------------------

 ------------
 H2O_H2O_4184
 ------------
 Symbolic Z-matrix:
 Charge =  0 Multiplicity = 1

                         Standard orientation:
 ---------------------------------------------------------------------
 Center     Atomic      Atomic             Coordinates (Angstroms)
 Number     Number       Type             X           Y           Z
 ---------------------------------------------------------------------
      1          8           0        0.031739   -3.013592    0.000000
      2          1           0       -0.768348   -3.584001    0.000000
      3          1           0        0.830794   -3.585446    0.000000
      4          8           0        0.031739    3.032785    0.000000
      5          1           0        0.380084    3.951568    0.000000
      6          1           0       -0.950356    3.064333    0.000000
 ---------------------------------------------------------------------

 SCF Done:  E(RHF) =  -152.106888832     A.U. after   10 cycles
 E2 =    -0.5259285683D+00 EUMP2 =    -0.15263281740075D+03
 CCSD(T)
 CCSD(T)= -0.15266004834D+03

 The electronic state is 1-A'.
 Alpha  occ. eigenvalues --  -20.55258 -20.55137  -1.32554  -1.32432  -0.69961
 Alpha  occ. eigenvalues --   -0.69836  -0.55977  -0.55856  -0.49662  -0.49540
 Alpha virt. eigenvalues --    0.14364   0.14509   0.20421   0.20554   0.54605
 Alpha virt. eigenvalues --    0.54740   0.57479   0.57602   0.68214   0.68415
 Alpha virt. eigenvalues --    0.79217   0.79337   0.80659   0.80792   0.82589

 Mulliken charges:
               1
     1  O   -0.505814
     2  H    0.252092
     3  H    0.253723
     4  O   -0.505693
     5  H    0.251640
     6  H    0.254053
 Sum of Mulliken charges =  -0.00000

 Dipole moment (field-independent basis, Debye):
    X=             -1.0898    Y=             -0.3355    Z=              0.0000  Tot=              1.1402
 Quadrupole moment (field-independent basis, Debye-Ang):
   XX=             -8.4377   YY=             10.7268   ZZ=            -14.7109
   XY=             -2.4954   XZ=              0.0000   YZ=              0.0000

 Normal termination of Gaussian 16 at Sat Aug 27 05:51:44 2022.
