 Gaussian 16, Revision A.03,
 Gaussian 16:  ES64L-G16RevA.03 25-Dec-2016

 ------------------
 #p CCSD(T)/cc-pVTZ
 ------------------

 ------------
 H2O_H2O_1333
 ------------
 Symbolic Z-matrix:
 Charge =  0 Multiplicity = 1

                         Standard orientation:
 ---------------------------------------------------------------------
 Center     Atomic      Atomic             Coordinates (Angstroms)
 Number     Number       Type             X           Y           Z
 ---------------------------------------------------------------------
      1          8           0        0.028569   -1.500020    0.000000
      2          1           0       -0.771932   -2.069848    0.000000
      3          1           0        0.827208   -2.072455    0.000000
      4          8           0        0.028569    1.515231    0.000000
      5          1           0        0.436911    2.408966    0.000000
      6          1           0       -0.949290    1.611654    0.000000
 ---------------------------------------------------------------------

 SCF Done:  E(RHF) =  -152.102404926     A.U. after   11 cycles
 E2 =    -0.5273629853D+00 EUMP2 =    -0.15262976791178D+03
 CCSD(T)
 CCSD(T)= -0.15265703581D+03

 The electronic state is 1-A'.
 Alpha  occ. eigenvalues --  -20.54192 -20.53816  -1.31530  -1.31069  -0.68952
 Alpha  occ. eigenvalues --   -0.68501  -0.55681  -0.53295  -0.48692  -0.48079
 Alpha virt. eigenvalues --    0.14190   0.16702   0.20458   0.22081   0.52501
 Alpha virt. eigenvalues --    0.58215   0.58294   0.59069   0.66214   0.76670
 Alpha virt. eigenvalues --    0.77621   0.78521   0.79320   0.82595   0.85860

 Mulliken charges:
               1
     1  O   -0.476966
     2  H    0.234171
     3  H    0.243321
     4  O   -0.473365
     5  H    0.231177
     6  H    0.241662
 Sum of Mulliken charges =  -0.00000

 Dipole moment (field-independent basis, Debye):
    X=             -0.9335    Y=             -0.2879    Z=              0.0000  Tot=              0.9769
 Quadrupole moment (field-independent basis, Debye-Ang):
   XX=             -8.3947   YY=             -0.6490   ZZ=            -14.7121
   XY=             -0.7601   XZ=              0.0000   YZ=              0.0000

 Normal termination of Gaussian 16 at Sat Aug 27 03:59:45 2022.
