 Gaussian 16, Revision A.03,
 Gaussian 16:  ES64L-G16RevA.03 25-Dec-2016

 ------------------
 #p CCSD(T)/cc-pVTZ
 ------------------

 ------------
 H2O_H2O_2661
 ------------
 Symbolic Z-matrix:
 Charge =  0 Multiplicity = 1

                         Standard orientation:
 ---------------------------------------------------------------------
 Center     Atomic      Atomic             Coordinates (Angstroms)
 Number     Number       Type             X           Y           Z
 ---------------------------------------------------------------------
      1          8           0        0.037678   -2.197630    0.000000
      2          1           0       -0.762729   -2.767589    0.000000
      3          1           0        0.836411   -2.769933    0.000000
      4          8           0        0.037678    2.225866    0.000000
      5          1           0        0.263656    3.182129    0.000000
      6          1           0       -0.940188    2.129504    0.000000
 ---------------------------------------------------------------------

 SCF Done:  E(RHF) =  -152.106266660     A.U. after   10 cycles
 E2 =    -0.5260899940D+00 EUMP2 =    -0.15263235665375D+03
 CCSD(T)
 CCSD(T)= -0.15265959128D+03

 The electronic state is 1-A'.
 Alpha  occ. eigenvalues --  -20.55050 -20.54704  -1.32340  -1.31991  -0.69752
 Alpha  occ. eigenvalues --   -0.69390  -0.55733  -0.55374  -0.49443  -0.49097
 Alpha virt. eigenvalues --    0.14006   0.15328   0.20411   0.21088   0.54356
 Alpha virt. eigenvalues --    0.55240   0.57634   0.57969   0.65643   0.72375
 Alpha virt. eigenvalues --    0.79394   0.79810   0.80696   0.81393   0.82659

 Mulliken charges:
               1
     1  O   -0.501695
     2  H    0.248616
     3  H    0.253233
     4  O   -0.501285
     5  H    0.247344
     6  H    0.253789
 Sum of Mulliken charges =  -0.00000

 Dipole moment (field-independent basis, Debye):
    X=             -1.2811    Y=             -0.5046    Z=              0.0000  Tot=              1.3769
 Quadrupole moment (field-independent basis, Debye-Ang):
   XX=             -8.7064   YY=              4.2746   ZZ=            -14.7108
   XY=             -2.0351   XZ=              0.0000   YZ=              0.0000

 Normal termination of Gaussian 16 at Fri Aug 26 14:49:45 2022.
