 Gaussian 16, Revision A.03,
 Gaussian 16:  ES64L-G16RevA.03 25-Dec-2016

 ------------------
 #p CCSD(T)/cc-pVTZ
 ------------------

 ------------
 H2O_H2O_2404
 ------------
 Symbolic Z-matrix:
 Charge =  0 Multiplicity = 1

                         Standard orientation:
 ---------------------------------------------------------------------
 Center     Atomic      Atomic             Coordinates (Angstroms)
 Number     Number       Type             X           Y           Z
 ---------------------------------------------------------------------
      1          8           0        0.014783   -2.077902    0.000000
      2          1           0       -0.785137   -2.648545    0.000000
      3          1           0        0.814005   -2.649523    0.000000
      4          8           0        0.014783    2.081776    0.000000
      5          1           0        0.639754    2.840010    0.000000
      6          1           0       -0.905153    2.427066    0.000000
 ---------------------------------------------------------------------

 SCF Done:  E(RHF) =  -152.105420965     A.U. after   10 cycles
 E2 =    -0.5262132852D+00 EUMP2 =    -0.15263163424988D+03
 CCSD(T)
 CCSD(T)= -0.15265888211D+03

 The electronic state is 1-A'.
 Alpha  occ. eigenvalues --  -20.54680 -20.54627  -1.31966  -1.31911  -0.69382
 Alpha  occ. eigenvalues --   -0.69324  -0.55406  -0.55149  -0.49068  -0.49006
 Alpha virt. eigenvalues --    0.14214   0.15471   0.20609   0.21049   0.54480
 Alpha virt. eigenvalues --    0.55826   0.57856   0.58077   0.63525   0.73848
 Alpha virt. eigenvalues --    0.79575   0.80084   0.80974   0.81310   0.81965

 Mulliken charges:
               1
     1  O   -0.496431
     2  H    0.247173
     3  H    0.249292
     4  O   -0.496303
     5  H    0.246842
     6  H    0.249427
 Sum of Mulliken charges =  -0.00000

 Dipole moment (field-independent basis, Debye):
    X=             -0.5009    Y=             -0.0697    Z=              0.0000  Tot=              0.5057
 Quadrupole moment (field-independent basis, Debye-Ang):
   XX=             -7.9666   YY=              4.3651   ZZ=            -14.7096
   XY=             -0.6203   XZ=              0.0000   YZ=              0.0000

 Normal termination of Gaussian 16 at Sat Aug 27 10:22:22 2022.
