 Gaussian 16, Revision A.03,
 Gaussian 16:  ES64L-G16RevA.03 25-Dec-2016

 ------------------
 #p CCSD(T)/cc-pVTZ
 ------------------

 -----------
 H2O_H2O_420
 -----------
 Symbolic Z-matrix:
 Charge =  0 Multiplicity = 1

                         Standard orientation:
 ---------------------------------------------------------------------
 Center     Atomic      Atomic             Coordinates (Angstroms)
 Number     Number       Type             X           Y           Z
 ---------------------------------------------------------------------
      1          8           0        0.055365   -0.970629    0.000000
      2          1           0       -0.746875   -1.538005    0.000000
      3          1           0        0.852249   -1.545504    0.000000
      4          8           0        0.055365    1.054773    0.000000
      5          1           0       -0.285043    1.976525    0.000000
      6          1           0       -0.706170    0.433830    0.000000
 ---------------------------------------------------------------------

 SCF Done:  E(RHF) =  -152.056107283     A.U. after   11 cycles
 E2 =    -0.5365492882D+00 EUMP2 =    -0.15259265657094D+03
 CCSD(T)
 CCSD(T)= -0.15261913580D+03

 The electronic state is 1-A'.
 Alpha  occ. eigenvalues --  -20.55498 -20.50622  -1.35469  -1.28035  -0.73009
 Alpha  occ. eigenvalues --   -0.69656  -0.53728  -0.51905  -0.49963  -0.44968
 Alpha virt. eigenvalues --    0.13319   0.18788   0.19446   0.25634   0.50698
 Alpha virt. eigenvalues --    0.55734   0.61436   0.64730   0.72311   0.75079
 Alpha virt. eigenvalues --    0.79270   0.81448   0.83872   0.85005   0.87827

 Mulliken charges:
               1
     1  O   -0.400106
     2  H    0.200959
     3  H    0.233440
     4  O   -0.469630
     5  H    0.181037
     6  H    0.254300
 Sum of Mulliken charges =  -0.00000

 Dipole moment (field-independent basis, Debye):
    X=             -1.6047    Y=             -1.8731    Z=              0.0000  Tot=              2.4665
 Quadrupole moment (field-independent basis, Debye-Ang):
   XX=             -9.7664   YY=             -6.4419   ZZ=            -14.6706
   XY=             -1.7480   XZ=              0.0000   YZ=              0.0000

 Normal termination of Gaussian 16 at Fri Aug 26 16:17:59 2022.
