 Gaussian 16, Revision A.03,
 Gaussian 16:  ES64L-G16RevA.03 25-Dec-2016

 ------------------
 #p CCSD(T)/cc-pVTZ
 ------------------

 ------------
 H2O_H2O_1610
 ------------
 Symbolic Z-matrix:
 Charge =  0 Multiplicity = 1

                         Standard orientation:
 ---------------------------------------------------------------------
 Center     Atomic      Atomic             Coordinates (Angstroms)
 Number     Number       Type             X           Y           Z
 ---------------------------------------------------------------------
      1          8           0        0.034790   -1.641784    0.000000
      2          1           0       -0.765814   -2.211468    0.000000
      3          1           0        0.833326   -2.214363    0.000000
      4          8           0        0.034790    1.665263    0.000000
      5          1           0        0.323150    2.604601    0.000000
      6          1           0       -0.947296    1.633402    0.000000
 ---------------------------------------------------------------------

 SCF Done:  E(RHF) =  -152.104434409     A.U. after   10 cycles
 E2 =    -0.5268637657D+00 EUMP2 =    -0.15263129817445D+03
 CCSD(T)
 CCSD(T)= -0.15265853358D+03

 The electronic state is 1-A'.
 Alpha  occ. eigenvalues --  -20.54593 -20.54076  -1.31879  -1.31336  -0.69305
 Alpha  occ. eigenvalues --   -0.68742  -0.55550  -0.54209  -0.48996  -0.48416
 Alpha virt. eigenvalues --    0.13995   0.16395   0.20395   0.21933   0.53055
 Alpha virt. eigenvalues --    0.56510   0.57967   0.58646   0.63947   0.77030
 Alpha virt. eigenvalues --    0.78350   0.78701   0.79491   0.81670   0.85580

 Mulliken charges:
               1
     1  O   -0.484661
     2  H    0.238499
     3  H    0.247302
     4  O   -0.484467
     5  H    0.236039
     6  H    0.247289
 Sum of Mulliken charges =   0.00000

 Dipole moment (field-independent basis, Debye):
    X=             -1.1524    Y=             -0.4398    Z=              0.0000  Tot=              1.2335
 Quadrupole moment (field-independent basis, Debye-Ang):
   XX=             -8.6117   YY=              0.3344   ZZ=            -14.7114
   XY=             -1.1795   XZ=              0.0000   YZ=              0.0000

 Normal termination of Gaussian 16 at Sat Aug 27 05:45:37 2022.
