 Gaussian 16, Revision A.03,
 Gaussian 16:  ES64L-G16RevA.03 25-Dec-2016

 ------------------
 #p CCSD(T)/cc-pVTZ
 ------------------

 ------------
 H2O_H2O_4990
 ------------
 Symbolic Z-matrix:
 Charge =  0 Multiplicity = 1

                         Standard orientation:
 ---------------------------------------------------------------------
 Center     Atomic      Atomic             Coordinates (Angstroms)
 Number     Number       Type             X           Y           Z
 ---------------------------------------------------------------------
      1          8           0        0.047518   -3.421976    0.000000
      2          1           0       -0.752730   -3.992159    0.000000
      3          1           0        0.846411   -3.994056    0.000000
      4          8           0        0.047518    3.472629    0.000000
      5          1           0        0.018022    4.454788    0.000000
      6          1           0       -0.871990    3.126204    0.000000
 ---------------------------------------------------------------------

 SCF Done:  E(RHF) =  -152.107273691     A.U. after   10 cycles
 E2 =    -0.5258857571D+00 EUMP2 =    -0.15263315944839D+03
 CCSD(T)
 CCSD(T)= -0.15266038275D+03

 The electronic state is 1-A'.
 Alpha  occ. eigenvalues --  -20.55490 -20.55245  -1.32788  -1.32542  -0.70194
 Alpha  occ. eigenvalues --   -0.69945  -0.56229  -0.55983  -0.49899  -0.49654
 Alpha virt. eigenvalues --    0.14176   0.14420   0.20244   0.20500   0.54369
 Alpha virt. eigenvalues --    0.54627   0.57276   0.57521   0.67971   0.68220
 Alpha virt. eigenvalues --    0.78981   0.79223   0.80415   0.80677   0.82339

 Mulliken charges:
               1
     1  O   -0.508082
     2  H    0.253216
     3  H    0.254866
     4  O   -0.507941
     5  H    0.252562
     6  H    0.255379
 Sum of Mulliken charges =  -0.00000

 Dipole moment (field-independent basis, Debye):
    X=             -1.6349    Y=             -0.8824    Z=              0.0000  Tot=              1.8578
 Quadrupole moment (field-independent basis, Debye-Ang):
   XX=             -9.2243   YY=             10.7796   ZZ=            -14.7116
   XY=             -4.8957   XZ=              0.0000   YZ=              0.0000

 Normal termination of Gaussian 16 at Sat Aug 27 10:30:48 2022.
