 Gaussian 16, Revision A.03,
 Gaussian 16:  ES64L-G16RevA.03 25-Dec-2016

 ------------------
 #p CCSD(T)/cc-pVTZ
 ------------------

 ------------
 H2O_H2O_3272
 ------------
 Symbolic Z-matrix:
 Charge =  0 Multiplicity = 1

                         Standard orientation:
 ---------------------------------------------------------------------
 Center     Atomic      Atomic             Coordinates (Angstroms)
 Number     Number       Type             X           Y           Z
 ---------------------------------------------------------------------
      1          8           0        0.056720   -2.478248    0.000000
      2          1           0       -0.743951   -3.047837    0.000000
      3          1           0        0.855188   -3.050921    0.000000
      4          8           0        0.056720    2.577346    0.000000
      5          1           0       -0.403487    3.445513    0.000000
      6          1           0       -0.615274    1.860458    0.000000
 ---------------------------------------------------------------------

 SCF Done:  E(RHF) =  -152.107809422     A.U. after   10 cycles
 E2 =    -0.5259088840D+00 EUMP2 =    -0.15263371830602D+03
 CCSD(T)
 CCSD(T)= -0.15266092300D+03

 The electronic state is 1-A'.
 Alpha  occ. eigenvalues --  -20.55780 -20.54839  -1.33076  -1.32138  -0.70482
 Alpha  occ. eigenvalues --   -0.69527  -0.56539  -0.55591  -0.50191  -0.49255
 Alpha virt. eigenvalues --    0.13545   0.15102   0.19994   0.21175   0.54031
 Alpha virt. eigenvalues --    0.54901   0.57037   0.57857   0.66923   0.69611
 Alpha virt. eigenvalues --    0.78697   0.79605   0.79920   0.80409   0.82781

 Mulliken charges:
               1
     1  O   -0.510590
     2  H    0.253157
     3  H    0.257716
     4  O   -0.510257
     5  H    0.250335
     6  H    0.259639
 Sum of Mulliken charges =  -0.00000

 Dipole moment (field-independent basis, Debye):
    X=             -1.9405    Y=             -1.7568    Z=              0.0000  Tot=              2.6176
 Quadrupole moment (field-independent basis, Debye-Ang):
   XX=             -9.8264   YY=              1.3026   ZZ=            -14.7136
   XY=             -4.9304   XZ=              0.0000   YZ=              0.0000

 5038\MP4DQ=-152.6428276\MP4SDQ=-152.6458826\CCSD=-152.6452945\CCSD(T)=
 Normal termination of Gaussian 16 at Fri Aug 26 20:55:09 2022.
