 Gaussian 16, Revision A.03,
 Gaussian 16:  ES64L-G16RevA.03 25-Dec-2016

 ------------------
 #p CCSD(T)/cc-pVTZ
 ------------------

 ------------
 H2O_H2O_1543
 ------------
 Symbolic Z-matrix:
 Charge =  0 Multiplicity = 1

                         Standard orientation:
 ---------------------------------------------------------------------
 Center     Atomic      Atomic             Coordinates (Angstroms)
 Number     Number       Type             X           Y           Z
 ---------------------------------------------------------------------
      1          8           0        0.052865   -1.576513    0.000000
      2          1           0       -0.748313   -2.145389    0.000000
      3          1           0        0.850823   -2.149896    0.000000
      4          8           0        0.052865    1.646729    0.000000
      5          1           0       -0.166110    2.604620    0.000000
      6          1           0       -0.782238    1.128936    0.000000
 ---------------------------------------------------------------------

 SCF Done:  E(RHF) =  -152.106969419     A.U. after   10 cycles
 E2 =    -0.5269419481D+00 EUMP2 =    -0.15263391136678D+03
 CCSD(T)
 CCSD(T)= -0.15266107360D+03

 The electronic state is 1-A'.
 Alpha  occ. eigenvalues --  -20.55587 -20.53785  -1.32873  -1.31053  -0.70291
 Alpha  occ. eigenvalues --   -0.68446  -0.56275  -0.54414  -0.49988  -0.48171
 Alpha virt. eigenvalues --    0.13453   0.16741   0.19945   0.23341   0.54187
 Alpha virt. eigenvalues --    0.54969   0.57191   0.58322   0.66128   0.76093
 Alpha virt. eigenvalues --    0.77019   0.77300   0.79084   0.81629   0.84795

 Mulliken charges:
               1
     1  O   -0.489699
     2  H    0.241219
     3  H    0.254279
     4  O   -0.498994
     5  H    0.236226
     6  H    0.256968
 Sum of Mulliken charges =  -0.00000

 Dipole moment (field-independent basis, Debye):
    X=             -1.7429    Y=             -1.3390    Z=              0.0000  Tot=              2.1979
 Quadrupole moment (field-independent basis, Debye-Ang):
   XX=             -9.5760   YY=             -1.6076   ZZ=            -14.7187
   XY=             -2.4941   XZ=              0.0000   YZ=              0.0000

 Normal termination of Gaussian 16 at Sat Aug 27 05:22:47 2022.
