 Gaussian 16, Revision A.03,
 Gaussian 16:  ES64L-G16RevA.03 25-Dec-2016

 ------------------
 #p CCSD(T)/cc-pVTZ
 ------------------

 -----------
 H2O_H2O_281
 -----------
 Symbolic Z-matrix:
 Charge =  0 Multiplicity = 1

                         Standard orientation:
 ---------------------------------------------------------------------
 Center     Atomic      Atomic             Coordinates (Angstroms)
 Number     Number       Type             X           Y           Z
 ---------------------------------------------------------------------
      1          8           0        0.021865   -0.945177    0.000000
      2          1           0       -0.778836   -1.514724    0.000000
      3          1           0        0.820302   -1.517893    0.000000
      4          8           0        0.021865    0.953785    0.000000
      5          1           0        0.543661    1.786393    0.000000
      6          1           0       -0.934964    1.177357    0.000000
 ---------------------------------------------------------------------

 SCF Done:  E(RHF) =  -152.030658303     A.U. after   11 cycles
 E2 =    -0.5379653896D+00 EUMP2 =    -0.15256862369208D+03
 CCSD(T)
 CCSD(T)= -0.15259510798D+03

 The electronic state is 1-A'.
 Alpha  occ. eigenvalues --  -20.51821 -20.51559  -1.32858  -1.28069  -0.69244
 Alpha  occ. eigenvalues --   -0.66686  -0.61700  -0.49895  -0.44478  -0.41818
 Alpha virt. eigenvalues --    0.14565   0.18552   0.20287   0.23124   0.51578
 Alpha virt. eigenvalues --    0.58405   0.58950   0.65783   0.69622   0.78213
 Alpha virt. eigenvalues --    0.79180   0.83130   0.84059   0.86328   0.87897

 Mulliken charges:
               1
     1  O   -0.421607
     2  H    0.202547
     3  H    0.217471
     4  O   -0.400216
     5  H    0.175718
     6  H    0.226086
 Sum of Mulliken charges =  -0.00000

 Dipole moment (field-independent basis, Debye):
    X=             -0.6268    Y=             -0.1900    Z=              0.0000  Tot=              0.6549
 Quadrupole moment (field-independent basis, Debye-Ang):
   XX=             -8.4672   YY=             -6.4855   ZZ=            -14.7442
   XY=             -0.2320   XZ=              0.0000   YZ=              0.0000

 Normal termination of Gaussian 16 at Fri Aug 26 14:49:43 2022.
