 Gaussian 16, Revision A.03,
 Gaussian 16:  ES64L-G16RevA.03 25-Dec-2016

 ------------------
 #p CCSD(T)/cc-pVTZ
 ------------------

 ------------
 H2O_H2O_3689
 ------------
 Symbolic Z-matrix:
 Charge =  0 Multiplicity = 1

                         Standard orientation:
 ---------------------------------------------------------------------
 Center     Atomic      Atomic             Coordinates (Angstroms)
 Number     Number       Type             X           Y           Z
 ---------------------------------------------------------------------
      1          8           0        0.045343   -2.733896    0.000000
      2          1           0       -0.755036   -3.303896    0.000000
      3          1           0        0.844104   -3.306159    0.000000
      4          8           0        0.045343    2.778457    0.000000
      5          1           0        0.080371    3.760435    0.000000
      6          1           0       -0.894920    2.493129    0.000000
 ---------------------------------------------------------------------

 SCF Done:  E(RHF) =  -152.107006572     A.U. after   10 cycles
 E2 =    -0.5259325598D+00 EUMP2 =    -0.15263293913195D+03
 CCSD(T)
 CCSD(T)= -0.15266016659D+03

 The electronic state is 1-A'.
 Alpha  occ. eigenvalues --  -20.55360 -20.55017  -1.32657  -1.32312  -0.70065
 Alpha  occ. eigenvalues --   -0.69711  -0.56086  -0.55740  -0.49766  -0.49422
 Alpha virt. eigenvalues --    0.14197   0.14696   0.20317   0.20724   0.54487
 Alpha virt. eigenvalues --    0.54872   0.57382   0.57727   0.67878   0.68765
 Alpha virt. eigenvalues --    0.79114   0.79451   0.80547   0.80899   0.82542

 Mulliken charges:
               1
     1  O   -0.506537
     2  H    0.251761
     3  H    0.254785
     4  O   -0.506208
     5  H    0.250671
     6  H    0.255528
 Sum of Mulliken charges =  -0.00000

 Dipole moment (field-independent basis, Debye):
    X=             -1.5542    Y=             -0.7827    Z=              0.0000  Tot=              1.7402
 Quadrupole moment (field-independent basis, Debye-Ang):
   XX=             -9.0977   YY=              6.9415   ZZ=            -14.7113
   XY=             -3.5158   XZ=              0.0000   YZ=              0.0000

 Normal termination of Gaussian 16 at Sat Aug 27 02:30:12 2022.
