 Gaussian 16, Revision A.03,
 Gaussian 16:  ES64L-G16RevA.03 25-Dec-2016

 ------------------
 #p CCSD(T)/cc-pVTZ
 ------------------

 ------------
 H2O_H2O_3670
 ------------
 Symbolic Z-matrix:
 Charge =  0 Multiplicity = 1

                         Standard orientation:
 ---------------------------------------------------------------------
 Center     Atomic      Atomic             Coordinates (Angstroms)
 Number     Number       Type             X           Y           Z
 ---------------------------------------------------------------------
      1          8           0        0.055240   -2.698926    0.000000
      2          1           0       -0.745319   -3.268672    0.000000
      3          1           0        0.853821   -3.271442    0.000000
      4          8           0        0.055240    2.783397    0.000000
      5          1           0       -0.287892    3.704140    0.000000
      6          1           0       -0.704455    2.160205    0.000000
 ---------------------------------------------------------------------

 SCF Done:  E(RHF) =  -152.107509464     A.U. after   10 cycles
 E2 =    -0.5258950997D+00 EUMP2 =    -0.15263340456421D+03
 CCSD(T)
 CCSD(T)= -0.15266062040D+03

 The electronic state is 1-A'.
 Alpha  occ. eigenvalues --  -20.55643 -20.54978  -1.32942  -1.32275  -0.70348
 Alpha  occ. eigenvalues --   -0.69670  -0.56393  -0.55722  -0.50054  -0.49390
 Alpha virt. eigenvalues --    0.13887   0.14808   0.20102   0.20878   0.54194
 Alpha virt. eigenvalues --    0.54883   0.57139   0.57776   0.67454   0.68852
 Alpha virt. eigenvalues --    0.78829   0.79477   0.80235   0.80720   0.82557

 Mulliken charges:
               1
     1  O   -0.509458
     2  H    0.252940
     3  H    0.256563
     4  O   -0.508972
     5  H    0.250982
     6  H    0.257945
 Sum of Mulliken charges =   0.00000

 Dipole moment (field-independent basis, Debye):
    X=             -1.8939    Y=             -1.4866    Z=              0.0000  Tot=              2.4076
 Quadrupole moment (field-independent basis, Debye-Ang):
   XX=             -9.7232   YY=              3.5886   ZZ=            -14.7125
   XY=             -4.9486   XZ=              0.0000   YZ=              0.0000

 Normal termination of Gaussian 16 at Sat Aug 27 02:21:18 2022.
