 Gaussian 16, Revision A.03,
 Gaussian 16:  ES64L-G16RevA.03 25-Dec-2016

 ------------------
 #p CCSD(T)/cc-pVTZ
 ------------------

 ------------
 H2O_H2O_1745
 ------------
 Symbolic Z-matrix:
 Charge =  0 Multiplicity = 1

                         Standard orientation:
 ---------------------------------------------------------------------
 Center     Atomic      Atomic             Coordinates (Angstroms)
 Number     Number       Type             X           Y           Z
 ---------------------------------------------------------------------
      1          8           0        0.055284   -1.675201    0.000000
      2          1           0       -0.745863   -2.244119    0.000000
      3          1           0        0.853273   -2.248541    0.000000
      4          8           0        0.055284    1.759558    0.000000
      5          1           0       -0.286897    2.680654    0.000000
      6          1           0       -0.705055    1.137151    0.000000
 ---------------------------------------------------------------------

 SCF Done:  E(RHF) =  -152.108057772     A.U. after   10 cycles
 E2 =    -0.5266339332D+00 EUMP2 =    -0.15263469170559D+03
 CCSD(T)
 CCSD(T)= -0.15266183991D+03

 The electronic state is 1-A'.
 Alpha  occ. eigenvalues --  -20.55880 -20.53916  -1.33152  -1.31200  -0.70564
 Alpha  occ. eigenvalues --   -0.68575  -0.56575  -0.54643  -0.50270  -0.48328
 Alpha virt. eigenvalues --    0.13233   0.16591   0.19857   0.23548   0.53707
 Alpha virt. eigenvalues --    0.54973   0.56945   0.58339   0.65881   0.75657
 Alpha virt. eigenvalues --    0.77658   0.77664   0.78953   0.81077   0.84574

 Mulliken charges:
               1
     1  O   -0.495603
     2  H    0.244934
     3  H    0.256478
     4  O   -0.507058
     5  H    0.240542
     6  H    0.260706
 Sum of Mulliken charges =   0.00000

 Dipole moment (field-independent basis, Debye):
    X=             -1.8397    Y=             -1.5947    Z=              0.0000  Tot=              2.4347
 Quadrupole moment (field-independent basis, Debye-Ang):
   XX=             -9.7284   YY=             -1.6512   ZZ=            -14.7189
   XY=             -3.0472   XZ=              0.0000   YZ=              0.0000

 Normal termination of Gaussian 16 at Sat Aug 27 06:33:04 2022.
