 Gaussian 16, Revision A.03,
 Gaussian 16:  ES64L-G16RevA.03 25-Dec-2016

 ------------------
 #p CCSD(T)/cc-pVTZ
 ------------------

 ------------
 H2O_H2O_3341
 ------------
 Symbolic Z-matrix:
 Charge =  0 Multiplicity = 1

                         Standard orientation:
 ---------------------------------------------------------------------
 Center     Atomic      Atomic             Coordinates (Angstroms)
 Number     Number       Type             X           Y           Z
 ---------------------------------------------------------------------
      1          8           0        0.049509   -2.541025    0.000000
      2          1           0       -0.751008   -3.110832    0.000000
      3          1           0        0.848132   -3.113482    0.000000
      4          8           0        0.049509    2.597975    0.000000
      5          1           0       -0.043699    3.576145    0.000000
      6          1           0       -0.845564    2.192574    0.000000
 ---------------------------------------------------------------------

 SCF Done:  E(RHF) =  -152.107098325     A.U. after   10 cycles
 E2 =    -0.5259451153D+00 EUMP2 =    -0.15263304344015D+03
 CCSD(T)
 CCSD(T)= -0.15266026704D+03

 The electronic state is 1-A'.
 Alpha  occ. eigenvalues --  -20.55424 -20.54912  -1.32721  -1.32206  -0.70129
 Alpha  occ. eigenvalues --   -0.69601  -0.56153  -0.55637  -0.49830  -0.49318
 Alpha virt. eigenvalues --    0.13997   0.14910   0.20240   0.20901   0.54382
 Alpha virt. eigenvalues --    0.54954   0.57327   0.57811   0.67409   0.69403
 Alpha virt. eigenvalues --    0.79051   0.79552   0.80431   0.80914   0.82701

 Mulliken charges:
               1
     1  O   -0.507004
     2  H    0.251524
     3  H    0.255538
     4  O   -0.506560
     5  H    0.249898
     6  H    0.256604
 Sum of Mulliken charges =  -0.00000

 Dipole moment (field-independent basis, Debye):
    X=             -1.6941    Y=             -1.0054    Z=              0.0000  Tot=              1.9700
 Quadrupole moment (field-independent basis, Debye-Ang):
   XX=             -9.3460   YY=              4.8505   ZZ=            -14.7118
   XY=             -3.7184   XZ=              0.0000   YZ=              0.0000

 Normal termination of Gaussian 16 at Fri Aug 26 21:31:04 2022.
