 Gaussian 16, Revision A.03,
 Gaussian 16:  ES64L-G16RevA.03 25-Dec-2016

 ------------------
 #p CCSD(T)/cc-pVTZ
 ------------------

 ------------
 H2O_H2O_1275
 ------------
 Symbolic Z-matrix:
 Charge =  0 Multiplicity = 1

                         Standard orientation:
 ---------------------------------------------------------------------
 Center     Atomic      Atomic             Coordinates (Angstroms)
 Number     Number       Type             X           Y           Z
 ---------------------------------------------------------------------
      1          8           0        0.000000   -0.000000    1.481691
      2          1           0        0.000000    0.799571    2.052823
      3          1           0       -0.000000   -0.799571    2.052823
      4          8           0        0.000000   -0.000000   -1.481691
      5          1           0       -0.000000   -0.799571   -2.052823
      6          1           0        0.000000    0.799571   -2.052823
 ---------------------------------------------------------------------

 SCF Done:  E(RHF) =  -152.100834770     A.U. after   10 cycles
 E2 =    -0.5274826314D+00 EUMP2 =    -0.15262831740181D+03
 CCSD(T)
 CCSD(T)= -0.15265562189D+03

 The electronic state is 1-AG.
 Alpha  occ. eigenvalues --  -20.53774 -20.53773  -1.31218  -1.30964  -0.68622
 Alpha  occ. eigenvalues --   -0.68434  -0.55686  -0.52747  -0.48425  -0.47904
 Alpha virt. eigenvalues --    0.14414   0.16781   0.20570   0.21881   0.51473
 Alpha virt. eigenvalues --    0.58352   0.58688   0.60323   0.66778   0.76160
 Alpha virt. eigenvalues --    0.77650   0.77894   0.79226   0.82847   0.86170

 Mulliken charges:
               1
     1  O   -0.470930
     2  H    0.235465
     3  H    0.235465
     4  O   -0.470930
     5  H    0.235465
     6  H    0.235465
 Sum of Mulliken charges =   0.00000

 Dipole moment (field-independent basis, Debye):
    X=             -0.0000    Y=              0.0000    Z=             -0.0000  Tot=              0.0000
 Quadrupole moment (field-independent basis, Debye-Ang):
   XX=            -14.7109   YY=             -7.9041   ZZ=             -0.6080
   XY=              0.0000   XZ=             -0.0000   YZ=             -0.0000

 MP4DQ=-152.6372142\MP4SDQ=-152.6403701\CCSD=-152.6397459\CCSD(T)=-152.
 Normal termination of Gaussian 16 at Sat Aug 27 03:33:13 2022.
