 Gaussian 16, Revision A.03,
 Gaussian 16:  ES64L-G16RevA.03 25-Dec-2016

 ------------------
 #p CCSD(T)/cc-pVTZ
 ------------------

 ------------
 H2O_H2O_1843
 ------------
 Symbolic Z-matrix:
 Charge =  0 Multiplicity = 1

                         Standard orientation:
 ---------------------------------------------------------------------
 Center     Atomic      Atomic             Coordinates (Angstroms)
 Number     Number       Type             X           Y           Z
 ---------------------------------------------------------------------
      1          8           0        0.052856   -1.736049    0.000000
      2          1           0       -0.748177   -2.305129    0.000000
      3          1           0        0.850960   -2.309230    0.000000
      4          8           0        0.052856    1.806292    0.000000
      5          1           0       -0.166362    2.764129    0.000000
      6          1           0       -0.782115    1.288288    0.000000
 ---------------------------------------------------------------------

 SCF Done:  E(RHF) =  -152.107304307     A.U. after   10 cycles
 E2 =    -0.5265265794D+00 EUMP2 =    -0.15263383088622D+03
 CCSD(T)
 CCSD(T)= -0.15266100288D+03

 The electronic state is 1-A'.
 Alpha  occ. eigenvalues --  -20.55580 -20.54089  -1.32853  -1.31364  -0.70268
 Alpha  occ. eigenvalues --   -0.68736  -0.56265  -0.54769  -0.49967  -0.48486
 Alpha virt. eigenvalues --    0.13377   0.16380   0.19999   0.22830   0.54140
 Alpha virt. eigenvalues --    0.54404   0.57216   0.58524   0.64975   0.75996
 Alpha virt. eigenvalues --    0.78220   0.78562   0.78985   0.80881   0.84805

 Mulliken charges:
               1
     1  O   -0.496020
     2  H    0.244575
     3  H    0.255168
     4  O   -0.503116
     5  H    0.240905
     6  H    0.258486
 Sum of Mulliken charges =  -0.00000

 Dipole moment (field-independent basis, Debye):
    X=             -1.7646    Y=             -1.3130    Z=              0.0000  Tot=              2.1995
 Quadrupole moment (field-independent basis, Debye-Ang):
   XX=             -9.5679   YY=             -0.6542   ZZ=            -14.7162
   XY=             -2.7725   XZ=              0.0000   YZ=              0.0000

 Normal termination of Gaussian 16 at Sat Aug 27 07:07:30 2022.
