 Gaussian 16, Revision A.03,
 Gaussian 16:  ES64L-G16RevA.03 25-Dec-2016

 ------------------
 #p CCSD(T)/cc-pVTZ
 ------------------

 ------------
 H2O_H2O_4978
 ------------
 Symbolic Z-matrix:
 Charge =  0 Multiplicity = 1

                         Standard orientation:
 ---------------------------------------------------------------------
 Center     Atomic      Atomic             Coordinates (Angstroms)
 Number     Number       Type             X           Y           Z
 ---------------------------------------------------------------------
      1          8           0        0.011143   -3.448296    0.000000
      2          1           0       -0.788587   -4.019206    0.000000
      3          1           0        0.810555   -4.019651    0.000000
      4          8           0        0.011143    3.450485    0.000000
      5          1           0        0.684127    4.166444    0.000000
      6          1           0       -0.884375    3.854903    0.000000
 ---------------------------------------------------------------------

 SCF Done:  E(RHF) =  -152.106982537     A.U. after   10 cycles
 E2 =    -0.5259106143D+00 EUMP2 =    -0.15263289315103D+03
 CCSD(T)
 CCSD(T)= -0.15266012269D+03

 The electronic state is 1-A'.
 Alpha  occ. eigenvalues --  -20.55272 -20.55262  -1.32569  -1.32558  -0.69975
 Alpha  occ. eigenvalues --   -0.69965  -0.55997  -0.55986  -0.49677  -0.49667
 Alpha virt. eigenvalues --    0.14369   0.14381   0.20422   0.20434   0.54592
 Alpha virt. eigenvalues --    0.54604   0.57472   0.57483   0.68225   0.68238
 Alpha virt. eigenvalues --    0.79202   0.79213   0.80643   0.80654   0.82568

 Mulliken charges:
               1
     1  O   -0.506351
     2  H    0.252979
     3  H    0.253372
     4  O   -0.506343
     5  H    0.252888
     6  H    0.253454
 Sum of Mulliken charges =  -0.00000

 Dipole moment (field-independent basis, Debye):
    X=             -0.3833    Y=             -0.0381    Z=              0.0000  Tot=              0.3852
 Quadrupole moment (field-independent basis, Debye-Ang):
   XX=             -7.8786   YY=             15.3687   ZZ=            -14.7109
   XY=             -0.9782   XZ=              0.0000   YZ=              0.0000

 Normal termination of Gaussian 16 at Sat Aug 27 10:26:49 2022.
