 Gaussian 16, Revision A.03,
 Gaussian 16:  ES64L-G16RevA.03 25-Dec-2016

 ------------------
 #p CCSD(T)/cc-pVTZ
 ------------------

 -----------
 H2O_H2O_199
 -----------
 Symbolic Z-matrix:
 Charge =  0 Multiplicity = 1

                         Standard orientation:
 ---------------------------------------------------------------------
 Center     Atomic      Atomic             Coordinates (Angstroms)
 Number     Number       Type             X           Y           Z
 ---------------------------------------------------------------------
      1          8           0        0.057427   -0.834970    0.000000
      2          1           0       -0.745280   -1.401685    0.000000
      3          1           0        0.853837   -1.410501    0.000000
      4          8           0        0.057427    0.948564    0.000000
      5          1           0       -0.509288    1.751273    0.000000
      6          1           0       -0.518104    0.152154    0.000000
 ---------------------------------------------------------------------

 SCF Done:  E(RHF) =  -151.950973184     A.U. after   11 cycles
 E2 =    -0.5462907250D+00 EUMP2 =    -0.15249726390852D+03
 CCSD(T)
 CCSD(T)= -0.15252190476D+03

 The electronic state is 1-A'.
 Alpha  occ. eigenvalues --  -20.58030 -20.45909  -1.42739  -1.25119  -0.80350
 Alpha  occ. eigenvalues --   -0.73719  -0.56468  -0.49534  -0.44553  -0.41862
 Alpha virt. eigenvalues --    0.12180   0.17548   0.20828   0.27872   0.48047
 Alpha virt. eigenvalues --    0.52777   0.63860   0.70174   0.74079   0.74155
 Alpha virt. eigenvalues --    0.77363   0.78025   0.84407   0.85726   0.88888

 Mulliken charges:
               1
     1  O   -0.283465
     2  H    0.183233
     3  H    0.231537
     4  O   -0.566332
     5  H    0.155051
     6  H    0.279976
 Sum of Mulliken charges =  -0.00000

 Dipole moment (field-independent basis, Debye):
    X=             -1.5259    Y=             -3.1710    Z=              0.0000  Tot=              3.5191
 Quadrupole moment (field-independent basis, Debye-Ang):
   XX=             -9.7971   YY=             -8.6395   ZZ=            -14.5272
   XY=             -2.0651   XZ=              0.0000   YZ=              0.0000

 Normal termination of Gaussian 16 at Fri Aug 26 13:55:25 2022.
