 Gaussian 16, Revision A.03,
 Gaussian 16:  ES64L-G16RevA.03 25-Dec-2016

 ------------------
 #p CCSD(T)/cc-pVTZ
 ------------------

 ------------
 H2O_H2O_1535
 ------------
 Symbolic Z-matrix:
 Charge =  0 Multiplicity = 1

                         Standard orientation:
 ---------------------------------------------------------------------
 Center     Atomic      Atomic             Coordinates (Angstroms)
 Number     Number       Type             X           Y           Z
 ---------------------------------------------------------------------
      1          8           0        0.034790   -1.601899    0.000000
      2          1           0       -0.765839   -2.171546    0.000000
      3          1           0        0.833300   -2.174513    0.000000
      4          8           0        0.034790    1.625374    0.000000
      5          1           0        0.323193    2.564699    0.000000
      6          1           0       -0.947297    1.593557    0.000000
 ---------------------------------------------------------------------

 SCF Done:  E(RHF) =  -152.104128133     A.U. after   10 cycles
 E2 =    -0.5269773201D+00 EUMP2 =    -0.15263110545348D+03
 CCSD(T)
 CCSD(T)= -0.15265834460D+03

 The electronic state is 1-A'.
 Alpha  occ. eigenvalues --  -20.54544 -20.54006  -1.31836  -1.31265  -0.69263
 Alpha  occ. eigenvalues --   -0.68673  -0.55580  -0.54037  -0.48959  -0.48337
 Alpha virt. eigenvalues --    0.14020   0.16481   0.20391   0.22017   0.53038
 Alpha virt. eigenvalues --    0.56828   0.57998   0.58707   0.64432   0.76967
 Alpha virt. eigenvalues --    0.78140   0.78800   0.79159   0.81904   0.85612

 Mulliken charges:
               1
     1  O   -0.482997
     2  H    0.237433
     3  H    0.246749
     4  O   -0.482193
     5  H    0.234584
     6  H    0.246424
 Sum of Mulliken charges =  -0.00000

 Dipole moment (field-independent basis, Debye):
    X=             -1.1484    Y=             -0.4413    Z=              0.0000  Tot=              1.2303
 Quadrupole moment (field-independent basis, Debye-Ang):
   XX=             -8.6169   YY=              0.0208   ZZ=            -14.7117
   XY=             -1.1341   XZ=              0.0000   YZ=              0.0000

 Normal termination of Gaussian 16 at Sat Aug 27 05:20:06 2022.
