 Gaussian 16, Revision A.03,
 Gaussian 16:  ES64L-G16RevA.03 25-Dec-2016

 ------------------
 #p CCSD(T)/cc-pVTZ
 ------------------

 -----------
 H2O_H2O_821
 -----------
 Symbolic Z-matrix:
 Charge =  0 Multiplicity = 1

                         Standard orientation:
 ---------------------------------------------------------------------
 Center     Atomic      Atomic             Coordinates (Angstroms)
 Number     Number       Type             X           Y           Z
 ---------------------------------------------------------------------
      1          8           0        0.056196   -1.179370    0.000000
      2          1           0       -0.745616   -1.747350    0.000000
      3          1           0        0.853513   -1.753645    0.000000
      4          8           0        0.056196    1.270870    0.000000
      5          1           0       -0.344444    2.168084    0.000000
      6          1           0       -0.662593    0.600909    0.000000
 ---------------------------------------------------------------------

 SCF Done:  E(RHF) =  -152.098607700     A.U. after   11 cycles
 E2 =    -0.5303777179D+00 EUMP2 =    -0.15262898541786D+03
 CCSD(T)
 CCSD(T)= -0.15265594205D+03

 The electronic state is 1-A'.
 Alpha  occ. eigenvalues --  -20.56231 -20.52041  -1.34113  -1.29449  -0.71477
 Alpha  occ. eigenvalues --   -0.68284  -0.55901  -0.52939  -0.51120  -0.46496
 Alpha virt. eigenvalues --    0.13203   0.18117   0.19532   0.25663   0.51194
 Alpha virt. eigenvalues --    0.56352   0.60194   0.61135   0.71487   0.73837
 Alpha virt. eigenvalues --    0.76563   0.82761   0.83127   0.83904   0.87035

 Mulliken charges:
               1
     1  O   -0.459401
     2  H    0.230934
     3  H    0.250107
     4  O   -0.499059
     5  H    0.216306
     6  H    0.261112
 Sum of Mulliken charges =  -0.00000

 Dipole moment (field-independent basis, Debye):
    X=             -1.7492    Y=             -1.9201    Z=              0.0000  Tot=              2.5974
 Quadrupole moment (field-independent basis, Debye-Ang):
   XX=             -9.8001   YY=             -4.8780   ZZ=            -14.7173
   XY=             -2.3210   XZ=              0.0000   YZ=              0.0000

 Normal termination of Gaussian 16 at Fri Aug 26 20:19:01 2022.
