 Gaussian 16, Revision A.03,
 Gaussian 16:  ES64L-G16RevA.03 25-Dec-2016

 ------------------
 #p CCSD(T)/cc-pVTZ
 ------------------

 ----------
 H2O_H2O_96
 ----------
 Symbolic Z-matrix:
 Charge =  0 Multiplicity = 1

                         Standard orientation:
 ---------------------------------------------------------------------
 Center     Atomic      Atomic             Coordinates (Angstroms)
 Number     Number       Type             X           Y           Z
 ---------------------------------------------------------------------
      1          8           0        0.056279   -0.793894    0.000000
      2          1           0       -0.746559   -1.360425    0.000000
      3          1           0        0.852556   -1.369609    0.000000
      4          8           0        0.056279    0.885191    0.000000
      5          1           0       -0.342739    1.783129    0.000000
      6          1           0       -0.663720    0.216531    0.000000
 ---------------------------------------------------------------------

 SCF Done:  E(RHF) =  -151.915611746     A.U. after   12 cycles
 E2 =    -0.5506100690D+00 EUMP2 =    -0.15246622181470D+03
 CCSD(T)
 CCSD(T)= -0.15249071546D+03

 The electronic state is 1-A'.
 Alpha  occ. eigenvalues --  -20.55998 -20.48120  -1.42033  -1.25682  -0.79104
 Alpha  occ. eigenvalues --   -0.72888  -0.55695  -0.51304  -0.42666  -0.41734
 Alpha virt. eigenvalues --    0.12952   0.18229   0.20413   0.25955   0.49598
 Alpha virt. eigenvalues --    0.53768   0.62353   0.69118   0.73324   0.76037
 Alpha virt. eigenvalues --    0.77600   0.79884   0.84408   0.84957   0.88886

 Mulliken charges:
               1
     1  O   -0.283535
     2  H    0.155628
     3  H    0.208134
     4  O   -0.467407
     5  H    0.123184
     6  H    0.263997
 Sum of Mulliken charges =  -0.00000

 Dipole moment (field-independent basis, Debye):
    X=             -1.4516    Y=             -2.3266    Z=              0.0000  Tot=              2.7423
 Quadrupole moment (field-independent basis, Debye-Ang):
   XX=             -9.8340   YY=             -8.9370   ZZ=            -14.5409
   XY=             -1.4753   XZ=              0.0000   YZ=              0.0000

 Normal termination of Gaussian 16 at Fri Aug 26 12:43:03 2022.
