 Gaussian 16, Revision A.03,
 Gaussian 16:  ES64L-G16RevA.03 25-Dec-2016

 ------------------
 #p CCSD(T)/cc-pVTZ
 ------------------

 -----------
 H2O_H2O_507
 -----------
 Symbolic Z-matrix:
 Charge =  0 Multiplicity = 1

                         Standard orientation:
 ---------------------------------------------------------------------
 Center     Atomic      Atomic             Coordinates (Angstroms)
 Number     Number       Type             X           Y           Z
 ---------------------------------------------------------------------
      1          8           0        0.025272   -1.063174    0.000000
      2          1           0       -0.775459   -1.632678    0.000000
      3          1           0        0.823680   -1.635931    0.000000
      4          8           0        0.025272    1.074851    0.000000
      5          1           0        0.491541    1.939778    0.000000
      6          1           0       -0.944122    1.235414    0.000000
 ---------------------------------------------------------------------

 SCF Done:  E(RHF) =  -152.071183656     A.U. after   11 cycles
 E2 =    -0.5327115726D+00 EUMP2 =    -0.15260389522905D+03
 CCSD(T)
 CCSD(T)= -0.15263094139D+03

 The electronic state is 1-A'.
 Alpha  occ. eigenvalues --  -20.52613 -20.52239  -1.31678  -1.29135  -0.68670
 Alpha  occ. eigenvalues --   -0.67112  -0.59078  -0.48944  -0.46569  -0.45715
 Alpha virt. eigenvalues --    0.14502   0.17974   0.20431   0.22952   0.51642
 Alpha virt. eigenvalues --    0.58592   0.58755   0.64365   0.70376   0.77012
 Alpha virt. eigenvalues --    0.78047   0.81939   0.84039   0.86399   0.87480

 Mulliken charges:
               1
     1  O   -0.449006
     2  H    0.216233
     3  H    0.230607
     4  O   -0.428092
     5  H    0.196658
     6  H    0.233600
 Sum of Mulliken charges =  -0.00000

 Dipole moment (field-independent basis, Debye):
    X=             -0.7524    Y=             -0.2367    Z=              0.0000  Tot=              0.7888
 Quadrupole moment (field-independent basis, Debye-Ang):
   XX=             -8.4534   YY=             -4.8773   ZZ=            -14.7386
   XY=             -0.3229   XZ=              0.0000   YZ=              0.0000

 Normal termination of Gaussian 16 at Fri Aug 26 17:09:25 2022.
