 Gaussian 16, Revision A.03,
 Gaussian 16:  ES64L-G16RevA.03 25-Dec-2016

 ------------------
 #p CCSD(T)/cc-pVTZ
 ------------------

 ------------
 H2O_H2O_1026
 ------------
 Symbolic Z-matrix:
 Charge =  0 Multiplicity = 1

                         Standard orientation:
 ---------------------------------------------------------------------
 Center     Atomic      Atomic             Coordinates (Angstroms)
 Number     Number       Type             X           Y           Z
 ---------------------------------------------------------------------
      1          8           0        0.003735   -1.348599    0.000000
      2          1           0       -0.795972   -1.919541    0.000000
      3          1           0        0.803170   -1.919922    0.000000
      4          8           0        0.003735    1.348842    0.000000
      5          1           0        0.764390    1.970865    0.000000
      6          1           0       -0.831354    1.866656    0.000000
 ---------------------------------------------------------------------

 SCF Done:  E(RHF) =  -152.097199670     A.U. after   10 cycles
 E2 =    -0.5282617665D+00 EUMP2 =    -0.15262546143662D+03
 CCSD(T)
 CCSD(T)= -0.15265278218D+03

 The electronic state is 1-A'.
 Alpha  occ. eigenvalues --  -20.53409 -20.53403  -1.31059  -1.30539  -0.68417
 Alpha  occ. eigenvalues --   -0.68055  -0.56258  -0.51419  -0.48317  -0.47387
 Alpha virt. eigenvalues --    0.14469   0.17183   0.20569   0.22136   0.50724
 Alpha virt. eigenvalues --    0.58602   0.58810   0.61907   0.71810   0.76517
 Alpha virt. eigenvalues --    0.76950   0.78357   0.79941   0.83577   0.86360

 Mulliken charges:
               1
     1  O   -0.464444
     2  H    0.231403
     3  H    0.233016
     4  O   -0.464195
     5  H    0.231385
     6  H    0.232835
 Sum of Mulliken charges =  -0.00000

 Dipole moment (field-independent basis, Debye):
    X=             -0.1195    Y=             -0.0046    Z=              0.0000  Tot=              0.1196
 Quadrupole moment (field-independent basis, Debye-Ang):
   XX=             -7.9513   YY=             -1.8636   ZZ=            -14.7167
   XY=             -0.0639   XZ=              0.0000   YZ=              0.0000

 Normal termination of Gaussian 16 at Sat Aug 27 01:29:31 2022.
