 Gaussian 16, Revision A.03,
 Gaussian 16:  ES64L-G16RevA.03 25-Dec-2016

 ------------------
 #p CCSD(T)/cc-pVTZ
 ------------------

 ----------
 H2O_H2O_72
 ----------
 Symbolic Z-matrix:
 Charge =  0 Multiplicity = 1

                         Standard orientation:
 ---------------------------------------------------------------------
 Center     Atomic      Atomic             Coordinates (Angstroms)
 Number     Number       Type             X           Y           Z
 ---------------------------------------------------------------------
      1          8           0        0.056917   -0.776607    0.000000
      2          1           0       -0.746011   -1.343010    0.000000
      3          1           0        0.853103   -1.352448    0.000000
      4          8           0        0.056917    0.875254    0.000000
      5          1           0       -0.399838    1.745243    0.000000
      6          1           0       -0.617921    0.161041    0.000000
 ---------------------------------------------------------------------

 SCF Done:  E(RHF) =  -151.884202143     A.U. after   12 cycles
 E2 =    -0.5529166229D+00 EUMP2 =    -0.15243711876599D+03
 CCSD(T)
 CCSD(T)= -0.15246107561D+03

 The electronic state is 1-A'.
 Alpha  occ. eigenvalues --  -20.56864 -20.46981  -1.44127  -1.25159  -0.80903
 Alpha  occ. eigenvalues --   -0.73899  -0.56881  -0.50287  -0.42081  -0.40574
 Alpha virt. eigenvalues --    0.12660   0.17752   0.20826   0.26430   0.48966
 Alpha virt. eigenvalues --    0.53022   0.62898   0.70146   0.73725   0.75039
 Alpha virt. eigenvalues --    0.77208   0.79233   0.84671   0.85002   0.89147

 Mulliken charges:
               1
     1  O   -0.255840
     2  H    0.153830
     3  H    0.210186
     4  O   -0.498707
     5  H    0.119199
     6  H    0.271331
 Sum of Mulliken charges =  -0.00000

 Dipole moment (field-independent basis, Debye):
    X=             -1.4361    Y=             -2.6467    Z=              0.0000  Tot=              3.0112
 Quadrupole moment (field-independent basis, Debye-Ang):
   XX=             -9.8521   YY=             -9.3392   ZZ=            -14.5090
   XY=             -1.5855   XZ=              0.0000   YZ=              0.0000

 Normal termination of Gaussian 16 at Fri Aug 26 12:29:18 2022.
