 Gaussian 16, Revision A.03,
 Gaussian 16:  ES64L-G16RevA.03 25-Dec-2016

 ------------------
 #p CCSD(T)/cc-pVTZ
 ------------------

 -----------
 H2O_H2O_732
 -----------
 Symbolic Z-matrix:
 Charge =  0 Multiplicity = 1

                         Standard orientation:
 ---------------------------------------------------------------------
 Center     Atomic      Atomic             Coordinates (Angstroms)
 Number     Number       Type             X           Y           Z
 ---------------------------------------------------------------------
      1          8           0        0.025271   -1.182831    0.000000
      2          1           0       -0.775343   -1.752500    0.000000
      3          1           0        0.823796   -1.755425    0.000000
      4          8           0        0.025271    1.194519    0.000000
      5          1           0        0.491362    2.059542    0.000000
      6          1           0       -0.944156    1.354884    0.000000
 ---------------------------------------------------------------------

 SCF Done:  E(RHF) =  -152.088764717     A.U. after   11 cycles
 E2 =    -0.5300540441D+00 EUMP2 =    -0.15261881876116D+03
 CCSD(T)
 CCSD(T)= -0.15264605549D+03

 The electronic state is 1-A'.
 Alpha  occ. eigenvalues --  -20.53184 -20.52821  -1.31280  -1.29911  -0.68520
 Alpha  occ. eigenvalues --   -0.67583  -0.57468  -0.49430  -0.48576  -0.46638
 Alpha virt. eigenvalues --    0.14423   0.17576   0.20483   0.22698   0.51554
 Alpha virt. eigenvalues --    0.58656   0.58754   0.62977   0.71072   0.76491
 Alpha virt. eigenvalues --    0.77132   0.80425   0.83951   0.86331   0.87017

 Mulliken charges:
               1
     1  O   -0.460986
     2  H    0.223497
     3  H    0.235847
     4  O   -0.446606
     5  H    0.212776
     6  H    0.235472
 Sum of Mulliken charges =  -0.00000

 Dipole moment (field-independent basis, Debye):
    X=             -0.7793    Y=             -0.2290    Z=              0.0000  Tot=              0.8123
 Quadrupole moment (field-independent basis, Debye-Ang):
   XX=             -8.3882   YY=             -3.5512   ZZ=            -14.7293
   XY=             -0.3984   XZ=              0.0000   YZ=              0.0000

 Normal termination of Gaussian 16 at Fri Aug 26 19:31:01 2022.
