 Gaussian 16, Revision A.03,
 Gaussian 16:  ES64L-G16RevA.03 25-Dec-2016

 ------------------
 #p CCSD(T)/cc-pVTZ
 ------------------

 -----------
 H2O_H2O_266
 -----------
 Symbolic Z-matrix:
 Charge =  0 Multiplicity = 1

                         Standard orientation:
 ---------------------------------------------------------------------
 Center     Atomic      Atomic             Coordinates (Angstroms)
 Number     Number       Type             X           Y           Z
 ---------------------------------------------------------------------
      1          8           0        0.049591   -0.905778    0.000000
      2          1           0       -0.752575   -1.473260    0.000000
      3          1           0        0.846550   -1.480549    0.000000
      4          8           0        0.049591    0.962440    0.000000
      5          1           0       -0.040779    1.940877    0.000000
      6          1           0       -0.846654    0.559638    0.000000
 ---------------------------------------------------------------------

 SCF Done:  E(RHF) =  -152.026483359     A.U. after   11 cycles
 E2 =    -0.5394492448D+00 EUMP2 =    -0.15256593260331D+03
 CCSD(T)
 CCSD(T)= -0.15259227801D+03

 The electronic state is 1-A'.
 Alpha  occ. eigenvalues --  -20.53738 -20.51192  -1.35137  -1.27791  -0.72428
 Alpha  occ. eigenvalues --   -0.69102  -0.56511  -0.51513  -0.45197  -0.44594
 Alpha virt. eigenvalues --    0.13843   0.18695   0.19738   0.24329   0.52221
 Alpha virt. eigenvalues --    0.56702   0.59617   0.64569   0.72669   0.76402
 Alpha virt. eigenvalues --    0.80716   0.82087   0.83489   0.84175   0.88451

 Mulliken charges:
               1
     1  O   -0.393961
     2  H    0.187062
     3  H    0.218433
     4  O   -0.406696
     5  H    0.154542
     6  H    0.240620
 Sum of Mulliken charges =  -0.00000

 Dipole moment (field-independent basis, Debye):
    X=             -1.3841    Y=             -1.2146    Z=              0.0000  Tot=              1.8415
 Quadrupole moment (field-independent basis, Debye-Ang):
   XX=             -9.4953   YY=             -6.8956   ZZ=            -14.6738
   XY=             -1.0336   XZ=              0.0000   YZ=              0.0000

 Normal termination of Gaussian 16 at Fri Aug 26 14:41:35 2022.
