 Gaussian 16, Revision A.03,
 Gaussian 16:  ES64L-G16RevA.03 25-Dec-2016

 ------------------
 #p CCSD(T)/cc-pVTZ
 ------------------

 ------------
 H2O_H2O_4956
 ------------
 Symbolic Z-matrix:
 Charge =  0 Multiplicity = 1

                         Standard orientation:
 ---------------------------------------------------------------------
 Center     Atomic      Atomic             Coordinates (Angstroms)
 Number     Number       Type             X           Y           Z
 ---------------------------------------------------------------------
      1          8           0        0.021859   -3.431480    0.000000
      2          1           0       -0.778025   -4.002174    0.000000
      3          1           0        0.821117   -4.003050    0.000000
      4          8           0        0.021859    3.440151    0.000000
      5          1           0        0.542460    4.273506    0.000000
      6          1           0       -0.935290    3.662349    0.000000
 ---------------------------------------------------------------------

 SCF Done:  E(RHF) =  -152.107015375     A.U. after   10 cycles
 E2 =    -0.5259080916D+00 EUMP2 =    -0.15263292346662D+03
 CCSD(T)
 CCSD(T)= -0.15266015229D+03

 The electronic state is 1-A'.
 Alpha  occ. eigenvalues --  -20.55299 -20.55257  -1.32595  -1.32553  -0.70002
 Alpha  occ. eigenvalues --   -0.69959  -0.56025  -0.55983  -0.49704  -0.49662
 Alpha virt. eigenvalues --    0.14346   0.14388   0.20400   0.20444   0.54565
 Alpha virt. eigenvalues --    0.54611   0.57448   0.57490   0.68195   0.68238
 Alpha virt. eigenvalues --    0.79175   0.79217   0.80615   0.80661   0.82540

 Mulliken charges:
               1
     1  O   -0.506548
     2  H    0.252884
     3  H    0.253664
     4  O   -0.506514
     5  H    0.252685
     6  H    0.253829
 Sum of Mulliken charges =  -0.00000

 Dipole moment (field-independent basis, Debye):
    X=             -0.7519    Y=             -0.1510    Z=              0.0000  Tot=              0.7669
 Quadrupole moment (field-independent basis, Debye-Ang):
   XX=             -8.1016   YY=             14.6956   ZZ=            -14.7110
   XY=             -1.9536   XZ=              0.0000   YZ=              0.0000

 Normal termination of Gaussian 16 at Sat Aug 27 10:19:42 2022.
