 Gaussian 16, Revision A.03,
 Gaussian 16:  ES64L-G16RevA.03 25-Dec-2016

 ------------------
 #p CCSD(T)/cc-pVTZ
 ------------------

 ----------
 H2O_H2O_63
 ----------
 Symbolic Z-matrix:
 Charge =  0 Multiplicity = 1

                         Standard orientation:
 ---------------------------------------------------------------------
 Center     Atomic      Atomic             Coordinates (Angstroms)
 Number     Number       Type             X           Y           Z
 ---------------------------------------------------------------------
      1          8           0        0.043026   -0.809260    0.000000
      2          1           0       -0.759085   -1.376819    0.000000
      3          1           0        0.840041   -1.383954    0.000000
      4          8           0        0.043026    0.847788    0.000000
      5          1           0        0.145182    1.825065    0.000000
      6          1           0       -0.914560    0.627482    0.000000
 ---------------------------------------------------------------------

 SCF Done:  E(RHF) =  -151.945914980     A.U. after   12 cycles
 E2 =    -0.5483305145D+00 EUMP2 =    -0.15249424549437D+03
 CCSD(T)
 CCSD(T)= -0.15251933252D+03

 The electronic state is 1-A'.
 Alpha  occ. eigenvalues --  -20.52799 -20.51363  -1.37793  -1.26730  -0.73966
 Alpha  occ. eigenvalues --   -0.69978  -0.59230  -0.53369  -0.43438  -0.37616
 Alpha virt. eigenvalues --    0.13956   0.19048   0.19757   0.23851   0.52995
 Alpha virt. eigenvalues --    0.56292   0.58609   0.65711   0.73296   0.77403
 Alpha virt. eigenvalues --    0.81044   0.81891   0.82096   0.84019   0.89099

 Mulliken charges:
               1
     1  O   -0.342312
     2  H    0.157797
     3  H    0.192433
     4  O   -0.342306
     5  H    0.102155
     6  H    0.232233
 Sum of Mulliken charges =  -0.00000

 Dipole moment (field-independent basis, Debye):
    X=             -1.1449    Y=             -0.9093    Z=              0.0000  Tot=              1.4621
 Quadrupole moment (field-independent basis, Debye-Ang):
   XX=             -9.2648   YY=             -8.6919   ZZ=            -14.6548
   XY=             -0.6336   XZ=              0.0000   YZ=              0.0000

 Normal termination of Gaussian 16 at Fri Aug 26 12:23:34 2022.
