 Gaussian 16, Revision A.03,
 Gaussian 16:  ES64L-G16RevA.03 25-Dec-2016

 ------------------
 #p CCSD(T)/cc-pVTZ
 ------------------

 ------------
 H2O_H2O_3717
 ------------
 Symbolic Z-matrix:
 Charge =  0 Multiplicity = 1

                         Standard orientation:
 ---------------------------------------------------------------------
 Center     Atomic      Atomic             Coordinates (Angstroms)
 Number     Number       Type             X           Y           Z
 ---------------------------------------------------------------------
      1          8           0        0.051274   -2.736884    0.000000
      2          1           0       -0.749206   -3.306742    0.000000
      3          1           0        0.849934   -3.309289    0.000000
      4          8           0        0.051274    2.800426    0.000000
      5          1           0       -0.105772    3.770396    0.000000
      6          1           0       -0.815339    2.337298    0.000000
 ---------------------------------------------------------------------

 SCF Done:  E(RHF) =  -152.107244926     A.U. after   10 cycles
 E2 =    -0.5259129283D+00 EUMP2 =    -0.15263315785426D+03
 CCSD(T)
 CCSD(T)= -0.15266038001D+03

 The electronic state is 1-A'.
 Alpha  occ. eigenvalues --  -20.55496 -20.55009  -1.32794  -1.32304  -0.70201
 Alpha  occ. eigenvalues --   -0.69701  -0.56234  -0.55742  -0.49904  -0.49417
 Alpha virt. eigenvalues --    0.14062   0.14731   0.20214   0.20782   0.54347
 Alpha virt. eigenvalues --    0.54873   0.57265   0.57745   0.67711   0.68754
 Alpha virt. eigenvalues --    0.78976   0.79454   0.80401   0.80851   0.82486

 Mulliken charges:
               1
     1  O   -0.507940
     2  H    0.252307
     3  H    0.255650
     4  O   -0.507544
     5  H    0.250844
     6  H    0.256682
 Sum of Mulliken charges =  -0.00000

 Dipole moment (field-independent basis, Debye):
    X=             -1.7580    Y=             -1.1167    Z=              0.0000  Tot=              2.0827
 Quadrupole moment (field-independent basis, Debye-Ang):
   XX=             -9.4576   YY=              5.5184   ZZ=            -14.7119
   XY=             -4.3038   XZ=              0.0000   YZ=              0.0000

 Normal termination of Gaussian 16 at Sat Aug 27 02:43:52 2022.
