 Gaussian 16, Revision A.03,
 Gaussian 16:  ES64L-G16RevA.03 25-Dec-2016

 ------------------
 #p CCSD(T)/cc-pVTZ
 ------------------

 ------------
 H2O_H2O_2106
 ------------
 Symbolic Z-matrix:
 Charge =  0 Multiplicity = 1

                         Standard orientation:
 ---------------------------------------------------------------------
 Center     Atomic      Atomic             Coordinates (Angstroms)
 Number     Number       Type             X           Y           Z
 ---------------------------------------------------------------------
      1          8           0        0.021860   -1.915756    0.000000
      2          1           0       -0.778270   -2.486104    0.000000
      3          1           0        0.820871   -2.487671    0.000000
      4          8           0        0.021860    1.924408    0.000000
      5          1           0        0.542822    2.757538    0.000000
      6          1           0       -0.935192    2.147021    0.000000
 ---------------------------------------------------------------------

 SCF Done:  E(RHF) =  -152.105103565     A.U. after   10 cycles
 E2 =    -0.5263761500D+00 EUMP2 =    -0.15263147971495D+03
 CCSD(T)
 CCSD(T)= -0.15265872233D+03

 The electronic state is 1-A'.
 Alpha  occ. eigenvalues --  -20.54609 -20.54467  -1.31891  -1.31744  -0.69310
 Alpha  occ. eigenvalues --   -0.69157  -0.55383  -0.54877  -0.48995  -0.48836
 Alpha virt. eigenvalues --    0.14100   0.15790   0.20557   0.21271   0.53835
 Alpha virt. eigenvalues --    0.56153   0.57911   0.58222   0.62234   0.75265
 Alpha virt. eigenvalues --    0.79371   0.80182   0.80500   0.81086   0.82580

 Mulliken charges:
               1
     1  O   -0.492912
     2  H    0.244630
     3  H    0.248461
     4  O   -0.492808
     5  H    0.243950
     6  H    0.248679
 Sum of Mulliken charges =  -0.00000

 Dipole moment (field-independent basis, Debye):
    X=             -0.7364    Y=             -0.1580    Z=              0.0000  Tot=              0.7531
 Quadrupole moment (field-independent basis, Debye-Ang):
   XX=             -8.1367   YY=              2.9082   ZZ=            -14.7097
   XY=             -0.8333   XZ=              0.0000   YZ=              0.0000

 Normal termination of Gaussian 16 at Sat Aug 27 08:37:24 2022.
