 Gaussian 16, Revision A.03,
 Gaussian 16:  ES64L-G16RevA.03 25-Dec-2016

 ------------------
 #p CCSD(T)/cc-pVTZ
 ------------------

 ------------
 H2O_H2O_3333
 ------------
 Symbolic Z-matrix:
 Charge =  0 Multiplicity = 1

                         Standard orientation:
 ---------------------------------------------------------------------
 Center     Atomic      Atomic             Coordinates (Angstroms)
 Number     Number       Type             X           Y           Z
 ---------------------------------------------------------------------
      1          8           0        0.028564   -2.563673    0.000000
      2          1           0       -0.771553   -3.134040    0.000000
      3          1           0        0.827588   -3.135569    0.000000
      4          8           0        0.028564    2.578922    0.000000
      5          1           0        0.436303    3.472933    0.000000
      6          1           0       -0.949360    2.674686    0.000000
 ---------------------------------------------------------------------

 SCF Done:  E(RHF) =  -152.106471597     A.U. after   10 cycles
 E2 =    -0.5259902273D+00 EUMP2 =    -0.15263246182436D+03
 CCSD(T)
 CCSD(T)= -0.15265970007D+03

 The electronic state is 1-A'.
 Alpha  occ. eigenvalues --  -20.55082 -20.54948  -1.32376  -1.32241  -0.69785
 Alpha  occ. eigenvalues --   -0.69646  -0.55779  -0.55644  -0.49481  -0.49346
 Alpha virt. eigenvalues --    0.14363   0.14795   0.20502   0.20726   0.54735
 Alpha virt. eigenvalues --    0.54970   0.57615   0.57765   0.67733   0.69401
 Alpha virt. eigenvalues --    0.79395   0.79529   0.80828   0.81013   0.82747

 Mulliken charges:
               1
     1  O   -0.503375
     2  H    0.250531
     3  H    0.252849
     4  O   -0.503158
     5  H    0.249966
     6  H    0.253187
 Sum of Mulliken charges =   0.00000

 Dipole moment (field-independent basis, Debye):
    X=             -0.9770    Y=             -0.2686    Z=              0.0000  Tot=              1.0132
 Quadrupole moment (field-independent basis, Debye-Ang):
   XX=             -8.3228   YY=              7.6348   ZZ=            -14.7104
   XY=             -1.7722   XZ=              0.0000   YZ=              0.0000

 Normal termination of Gaussian 16 at Fri Aug 26 21:26:55 2022.
