 Gaussian 16, Revision A.03,
 Gaussian 16:  ES64L-G16RevA.03 25-Dec-2016

 ------------------
 #p CCSD(T)/cc-pVTZ
 ------------------

 -----------
 H2O_H2O_527
 -----------
 Symbolic Z-matrix:
 Charge =  0 Multiplicity = 1

                         Standard orientation:
 ---------------------------------------------------------------------
 Center     Atomic      Atomic             Coordinates (Angstroms)
 Number     Number       Type             X           Y           Z
 ---------------------------------------------------------------------
      1          8           0        0.007455   -1.082287    0.000000
      2          1           0       -0.792454   -1.652945    0.000000
      3          1           0        0.806688   -1.653893    0.000000
      4          8           0        0.007455    1.083255    0.000000
      5          1           0        0.726035    1.753441    0.000000
      6          1           0       -0.859550    1.545650    0.000000
 ---------------------------------------------------------------------

 SCF Done:  E(RHF) =  -152.071554638     A.U. after   10 cycles
 E2 =    -0.5323774251D+00 EUMP2 =    -0.15260393206321D+03
 CCSD(T)
 CCSD(T)= -0.15263102762D+03

 The electronic state is 1-A'.
 Alpha  occ. eigenvalues --  -20.52276 -20.52246  -1.31342  -1.29135  -0.68282
 Alpha  occ. eigenvalues --   -0.66906  -0.59295  -0.48645  -0.46282  -0.45680
 Alpha virt. eigenvalues --    0.14611   0.18108   0.20545   0.22667   0.50259
 Alpha virt. eigenvalues --    0.59058   0.59152   0.65300   0.71191   0.77271
 Alpha virt. eigenvalues --    0.78360   0.81812   0.84389   0.86683   0.87020

 Mulliken charges:
               1
     1  O   -0.443971
     2  H    0.219803
     3  H    0.223854
     4  O   -0.441712
     5  H    0.215769
     6  H    0.226258
 Sum of Mulliken charges =  -0.00000

 Dipole moment (field-independent basis, Debye):
    X=             -0.2235    Y=             -0.0197    Z=              0.0000  Tot=              0.2244
 Quadrupole moment (field-independent basis, Debye-Ang):
   XX=             -8.1151   YY=             -4.7056   ZZ=            -14.7441
   XY=             -0.0770   XZ=              0.0000   YZ=              0.0000

 93\MP4DQ=-152.6118208\MP4SDQ=-152.6152217\CCSD=-152.6145054\CCSD(T)=-1
 Normal termination of Gaussian 16 at Fri Aug 26 17:21:21 2022.
