 Gaussian 16, Revision A.03,
 Gaussian 16:  ES64L-G16RevA.03 25-Dec-2016

 ------------------
 #p CCSD(T)/cc-pVTZ
 ------------------

 ------------
 H2O_H2O_4806
 ------------
 Symbolic Z-matrix:
 Charge =  0 Multiplicity = 1

                         Standard orientation:
 ---------------------------------------------------------------------
 Center     Atomic      Atomic             Coordinates (Angstroms)
 Number     Number       Type             X           Y           Z
 ---------------------------------------------------------------------
      1          8           0        0.021859   -3.351705    0.000000
      2          1           0       -0.778032   -3.922388    0.000000
      3          1           0        0.821109   -3.923285    0.000000
      4          8           0        0.021859    3.360375    0.000000
      5          1           0        0.542471    4.193723    0.000000
      6          1           0       -0.935287    3.582586    0.000000
 ---------------------------------------------------------------------

 SCF Done:  E(RHF) =  -152.106980866     A.U. after   10 cycles
 E2 =    -0.5259123320D+00 EUMP2 =    -0.15263289319752D+03
 CCSD(T)
 CCSD(T)= -0.15266012268D+03

 The electronic state is 1-A'.
 Alpha  occ. eigenvalues --  -20.55282 -20.55237  -1.32578  -1.32534  -0.69985
 Alpha  occ. eigenvalues --   -0.69940  -0.56006  -0.55962  -0.49686  -0.49642
 Alpha virt. eigenvalues --    0.14360   0.14405   0.20413   0.20459   0.54583
 Alpha virt. eigenvalues --    0.54631   0.57463   0.57507   0.68216   0.68263
 Alpha virt. eigenvalues --    0.79193   0.79237   0.80633   0.80682   0.82559

 Mulliken charges:
               1
     1  O   -0.506345
     2  H    0.252755
     3  H    0.253589
     4  O   -0.506307
     5  H    0.252544
     6  H    0.253762
 Sum of Mulliken charges =   0.00000

 Dipole moment (field-independent basis, Debye):
    X=             -0.7517    Y=             -0.1511    Z=              0.0000  Tot=              0.7667
 Quadrupole moment (field-independent basis, Debye-Ang):
   XX=             -8.1021   YY=             14.0831   ZZ=            -14.7109
   XY=             -1.8941   XZ=              0.0000   YZ=              0.0000

 Normal termination of Gaussian 16 at Sat Aug 27 09:26:13 2022.
