 Gaussian 16, Revision A.03,
 Gaussian 16:  ES64L-G16RevA.03 25-Dec-2016

 ------------------
 #p CCSD(T)/cc-pVTZ
 ------------------

 ------------
 H2O_H2O_3537
 ------------
 Symbolic Z-matrix:
 Charge =  0 Multiplicity = 1

                         Standard orientation:
 ---------------------------------------------------------------------
 Center     Atomic      Atomic             Coordinates (Angstroms)
 Number     Number       Type             X           Y           Z
 ---------------------------------------------------------------------
      1          8           0        0.040407   -2.660209    0.000000
      2          1           0       -0.759905   -3.230302    0.000000
      3          1           0        0.839235   -3.232379    0.000000
      4          8           0        0.040407    2.693560    0.000000
      5          1           0        0.203196    3.662583    0.000000
      6          1           0       -0.929036    2.533288    0.000000
 ---------------------------------------------------------------------

 SCF Done:  E(RHF) =  -152.106816792     A.U. after   10 cycles
 E2 =    -0.5259536259D+00 EUMP2 =    -0.15263277041756D+03
 CCSD(T)
 CCSD(T)= -0.15266000167D+03

 The electronic state is 1-A'.
 Alpha  occ. eigenvalues --  -20.55260 -20.54988  -1.32556  -1.32282  -0.69964
 Alpha  occ. eigenvalues --   -0.69683  -0.55975  -0.55702  -0.49663  -0.49390
 Alpha virt. eigenvalues --    0.14256   0.14735   0.20384   0.20730   0.54580
 Alpha virt. eigenvalues --    0.54907   0.57468   0.57743   0.67859   0.68974
 Alpha virt. eigenvalues --    0.79216   0.79483   0.80649   0.80946   0.82642

 Mulliken charges:
               1
     1  O   -0.505416
     2  H    0.251245
     3  H    0.254179
     4  O   -0.505103
     5  H    0.250317
     6  H    0.254778
 Sum of Mulliken charges =  -0.00000

 Dipole moment (field-independent basis, Debye):
    X=             -1.3839    Y=             -0.5865    Z=              0.0000  Tot=              1.5030
 Quadrupole moment (field-independent basis, Debye-Ang):
   XX=             -8.8328   YY=              7.2257   ZZ=            -14.7110
   XY=             -2.8817   XZ=              0.0000   YZ=              0.0000

 49452\MP4DQ=-152.6418921\MP4SDQ=-152.6449529\CCSD=-152.644364\CCSD(T)=
 Normal termination of Gaussian 16 at Sat Aug 27 01:18:54 2022.
