 Gaussian 16, Revision A.03,
 Gaussian 16:  ES64L-G16RevA.03 25-Dec-2016

 ------------------
 #p CCSD(T)/cc-pVTZ
 ------------------

 -----------
 H2O_H2O_427
 -----------
 Symbolic Z-matrix:
 Charge =  0 Multiplicity = 1

                         Standard orientation:
 ---------------------------------------------------------------------
 Center     Atomic      Atomic             Coordinates (Angstroms)
 Number     Number       Type             X           Y           Z
 ---------------------------------------------------------------------
      1          8           0        0.007455   -1.029104    0.000000
      2          1           0       -0.792472   -1.599737    0.000000
      3          1           0        0.806670   -1.600734    0.000000
      4          8           0        0.007455    1.030072    0.000000
      5          1           0        0.726056    1.700235    0.000000
      6          1           0       -0.859536    1.492492    0.000000
 ---------------------------------------------------------------------

 SCF Done:  E(RHF) =  -152.058535941     A.U. after   10 cycles
 E2 =    -0.5341541675D+00 EUMP2 =    -0.15259269010894D+03
 CCSD(T)
 CCSD(T)= -0.15261961952D+03

 The electronic state is 1-A'.
 Alpha  occ. eigenvalues --  -20.51963 -20.51933  -1.31677  -1.28722  -0.68399
 Alpha  occ. eigenvalues --   -0.66599  -0.60426  -0.48936  -0.45188  -0.44535
 Alpha virt. eigenvalues --    0.14646   0.18333   0.20500   0.22772   0.50294
 Alpha virt. eigenvalues --    0.59111   0.59218   0.65949   0.70301   0.77750
 Alpha virt. eigenvalues --    0.78910   0.82550   0.84445   0.86690   0.87194

 Mulliken charges:
               1
     1  O   -0.434885
     2  H    0.215111
     3  H    0.219467
     4  O   -0.432240
     5  H    0.209576
     6  H    0.222972
 Sum of Mulliken charges =  -0.00000

 Dipole moment (field-independent basis, Debye):
    X=             -0.2199    Y=             -0.0203    Z=              0.0000  Tot=              0.2209
 Quadrupole moment (field-independent basis, Debye-Ang):
   XX=             -8.1604   YY=             -5.3754   ZZ=            -14.7496
   XY=             -0.0709   XZ=              0.0000   YZ=              0.0000

 Normal termination of Gaussian 16 at Fri Aug 26 16:21:58 2022.
