 Gaussian 16, Revision A.03,
 Gaussian 16:  ES64L-G16RevA.03 25-Dec-2016

 ------------------
 #p CCSD(T)/cc-pVTZ
 ------------------

 -----------
 H2O_H2O_613
 -----------
 Symbolic Z-matrix:
 Charge =  0 Multiplicity = 1

                         Standard orientation:
 ---------------------------------------------------------------------
 Center     Atomic      Atomic             Coordinates (Angstroms)
 Number     Number       Type             X           Y           Z
 ---------------------------------------------------------------------
      1          8           0        0.043004   -1.101718    0.000000
      2          1           0       -0.758446   -1.670210    0.000000
      3          1           0        0.840687   -1.675483    0.000000
      4          8           0        0.043004    1.140346    0.000000
      5          1           0        0.144021    2.117741    0.000000
      6          1           0       -0.914325    0.918926    0.000000
 ---------------------------------------------------------------------

 SCF Done:  E(RHF) =  -152.084303182     A.U. after   11 cycles
 E2 =    -0.5314121449D+00 EUMP2 =    -0.15261571532690D+03
 CCSD(T)
 CCSD(T)= -0.15264282047D+03

 The electronic state is 1-A'.
 Alpha  occ. eigenvalues --  -20.53854 -20.52464  -1.32235  -1.29544  -0.69499
 Alpha  occ. eigenvalues --   -0.67772  -0.57276  -0.49529  -0.49413  -0.46338
 Alpha virt. eigenvalues --    0.14092   0.17778   0.20164   0.23514   0.53149
 Alpha virt. eigenvalues --    0.57753   0.58276   0.62035   0.71133   0.75715
 Alpha virt. eigenvalues --    0.78812   0.81246   0.83396   0.85498   0.87777

 Mulliken charges:
               1
     1  O   -0.457925
     2  H    0.220164
     3  H    0.239205
     4  O   -0.439290
     5  H    0.195552
     6  H    0.242294
 Sum of Mulliken charges =  -0.00000

 Dipole moment (field-independent basis, Debye):
    X=             -1.2979    Y=             -0.7694    Z=              0.0000  Tot=              1.5088
 Quadrupole moment (field-independent basis, Debye-Ang):
   XX=             -9.1099   YY=             -4.4970   ZZ=            -14.7263
   XY=             -0.9319   XZ=              0.0000   YZ=              0.0000

 Normal termination of Gaussian 16 at Fri Aug 26 18:13:49 2022.
