 Gaussian 16, Revision A.03,
 Gaussian 16:  ES64L-G16RevA.03 25-Dec-2016

 ------------------
 #p CCSD(T)/cc-pVTZ
 ------------------

 -----------
 H2O_H2O_846
 -----------
 Symbolic Z-matrix:
 Charge =  0 Multiplicity = 1

                         Standard orientation:
 ---------------------------------------------------------------------
 Center     Atomic      Atomic             Coordinates (Angstroms)
 Number     Number       Type             X           Y           Z
 ---------------------------------------------------------------------
      1          8           0        0.056194   -1.192663    0.000000
      2          1           0       -0.745594   -1.760678    0.000000
      3          1           0        0.853536   -1.766904    0.000000
      4          8           0        0.056194    1.284168    0.000000
      5          1           0       -0.344484    2.181365    0.000000
      6          1           0       -0.662567    0.614176    0.000000
 ---------------------------------------------------------------------

 SCF Done:  E(RHF) =  -152.099685698     A.U. after   11 cycles
 E2 =    -0.5301427805D+00 EUMP2 =    -0.15262982847873D+03
 CCSD(T)
 CCSD(T)= -0.15265680038D+03

 The electronic state is 1-A'.
 Alpha  occ. eigenvalues --  -20.56237 -20.52125  -1.34059  -1.29524  -0.71426
 Alpha  occ. eigenvalues --   -0.68228  -0.56011  -0.53014  -0.51081  -0.46577
 Alpha virt. eigenvalues --    0.13203   0.18068   0.19544   0.25620   0.51265
 Alpha virt. eigenvalues --    0.56387   0.60032   0.60920   0.71430   0.73853
 Alpha virt. eigenvalues --    0.76404   0.82767   0.82877   0.83933   0.86933

 Mulliken charges:
               1
     1  O   -0.462071
     2  H    0.232053
     3  H    0.250817
     4  O   -0.499793
     5  H    0.217654
     6  H    0.261340
 Sum of Mulliken charges =  -0.00000

 Dipole moment (field-independent basis, Debye):
    X=             -1.7546    Y=             -1.9124    Z=              0.0000  Tot=              2.5953
 Quadrupole moment (field-independent basis, Debye-Ang):
   XX=             -9.7997   YY=             -4.7857   ZZ=            -14.7188
   XY=             -2.3458   XZ=              0.0000   YZ=              0.0000

 Normal termination of Gaussian 16 at Fri Aug 26 20:31:32 2022.
