 Gaussian 16, Revision A.03,
 Gaussian 16:  ES64L-G16RevA.03 25-Dec-2016

 ------------------
 #p CCSD(T)/cc-pVTZ
 ------------------

 -----------
 H2O_H2O_225
 -----------
 Symbolic Z-matrix:
 Charge =  0 Multiplicity = 1

                         Standard orientation:
 ---------------------------------------------------------------------
 Center     Atomic      Atomic             Coordinates (Angstroms)
 Number     Number       Type             X           Y           Z
 ---------------------------------------------------------------------
      1          8           0        0.000000   -0.000000    0.923262
      2          1           0        0.000000    0.799571    1.494394
      3          1           0       -0.000000   -0.799571    1.494394
      4          8           0        0.000000   -0.000000   -0.923262
      5          1           0       -0.000000   -0.799571   -1.494394
      6          1           0        0.000000    0.799571   -1.494394
 ---------------------------------------------------------------------

 SCF Done:  E(RHF) =  -152.012746443     A.U. after   11 cycles
 E2 =    -0.5399898646D+00 EUMP2 =    -0.15255273630733D+03
 CCSD(T)
 CCSD(T)= -0.15257896716D+03

 The electronic state is 1-AG.
 Alpha  occ. eigenvalues --  -20.51313 -20.51311  -1.33085  -1.27760  -0.69000
 Alpha  occ. eigenvalues --   -0.65880  -0.63678  -0.50072  -0.44059  -0.39682
 Alpha virt. eigenvalues --    0.14674   0.18934   0.20295   0.22936   0.50303
 Alpha virt. eigenvalues --    0.59244   0.59276   0.67204   0.68521   0.78917
 Alpha virt. eigenvalues --    0.80162   0.83709   0.84484   0.86529   0.87542

 Mulliken charges:
               1
     1  O   -0.402578
     2  H    0.201289
     3  H    0.201289
     4  O   -0.402578
     5  H    0.201289
     6  H    0.201289
 Sum of Mulliken charges =  -0.00000

 Dipole moment (field-independent basis, Debye):
    X=             -0.0000    Y=              0.0000    Z=              0.0000  Tot=              0.0000
 Quadrupole moment (field-independent basis, Debye-Ang):
   XX=            -14.7593   YY=             -8.2682   ZZ=             -6.9436
   XY=              0.0000   XZ=             -0.0000   YZ=             -0.0000

 MP4DQ=-152.5586951\MP4SDQ=-152.5624939\CCSD=-152.5615661\CCSD(T)=-152.
 Normal termination of Gaussian 16 at Fri Aug 26 14:14:58 2022.
