 Gaussian 16, Revision A.03,
 Gaussian 16:  ES64L-G16RevA.03 25-Dec-2016

 ------------------
 #p CCSD(T)/cc-pVTZ
 ------------------

 -----------
 H2O_H2O_157
 -----------
 Symbolic Z-matrix:
 Charge =  0 Multiplicity = 1

                         Standard orientation:
 ---------------------------------------------------------------------
 Center     Atomic      Atomic             Coordinates (Angstroms)
 Number     Number       Type             X           Y           Z
 ---------------------------------------------------------------------
      1          8           0        0.025275   -0.877042    0.000000
      2          1           0       -0.775700   -1.446203    0.000000
      3          1           0        0.823437   -1.450142    0.000000
      4          8           0        0.025275    0.888698    0.000000
      5          1           0        0.491914    1.753425    0.000000
      6          1           0       -0.944050    1.049677    0.000000
 ---------------------------------------------------------------------

 SCF Done:  E(RHF) =  -151.991031460     A.U. after   11 cycles
 E2 =    -0.5429484716D+00 EUMP2 =    -0.15253397993170D+03
 CCSD(T)
 CCSD(T)= -0.15255977819D+03

 The electronic state is 1-A'.
 Alpha  occ. eigenvalues --  -20.51690 -20.51343  -1.34487  -1.27419  -0.70394
 Alpha  occ. eigenvalues --   -0.67373  -0.62619  -0.51136  -0.43796  -0.38492
 Alpha virt. eigenvalues --    0.14453   0.18927   0.20052   0.23305   0.52264
 Alpha virt. eigenvalues --    0.57514   0.58921   0.65761   0.70081   0.78566
 Alpha virt. eigenvalues --    0.79596   0.83252   0.83746   0.85814   0.88348

 Mulliken charges:
               1
     1  O   -0.395154
     2  H    0.187897
     3  H    0.206475
     4  O   -0.371005
     5  H    0.149086
     6  H    0.222700
 Sum of Mulliken charges =  -0.00000

 Dipole moment (field-independent basis, Debye):
    X=             -0.7101    Y=             -0.2774    Z=              0.0000  Tot=              0.7624
 Quadrupole moment (field-independent basis, Debye-Ang):
   XX=             -8.6323   YY=             -7.6115   ZZ=            -14.7355
   XY=             -0.2960   XZ=              0.0000   YZ=              0.0000

 Normal termination of Gaussian 16 at Fri Aug 26 13:27:00 2022.
