 Gaussian 16, Revision A.03,
 Gaussian 16:  ES64L-G16RevA.03 25-Dec-2016

 ------------------
 #p CCSD(T)/cc-pVTZ
 ------------------

 ----------
 H2O_H2O_83
 ----------
 Symbolic Z-matrix:
 Charge =  0 Multiplicity = 1

                         Standard orientation:
 ---------------------------------------------------------------------
 Center     Atomic      Atomic             Coordinates (Angstroms)
 Number     Number       Type             X           Y           Z
 ---------------------------------------------------------------------
      1          8           0        0.028579   -0.835263    0.000000
      2          1           0       -0.772655   -1.404060    0.000000
      3          1           0        0.826480   -1.408725    0.000000
      4          8           0        0.028579    0.850400    0.000000
      5          1           0        0.438070    1.743609    0.000000
      6          1           0       -0.949155    0.948081    0.000000
 ---------------------------------------------------------------------

 SCF Done:  E(RHF) =  -151.957830786     A.U. after   12 cycles
 E2 =    -0.5470439904D+00 EUMP2 =    -0.15250487477595D+03
 CCSD(T)
 CCSD(T)= -0.15253002973D+03

 The electronic state is 1-A'.
 Alpha  occ. eigenvalues --  -20.51842 -20.51388  -1.36061  -1.27030  -0.71638
 Alpha  occ. eigenvalues --   -0.68443  -0.62601  -0.52292  -0.43439  -0.36199
 Alpha virt. eigenvalues --    0.14301   0.19167   0.19883   0.23413   0.52897
 Alpha virt. eigenvalues --    0.56561   0.58860   0.65659   0.70880   0.78483
 Alpha virt. eigenvalues --    0.79708   0.83066   0.83382   0.85211   0.88673

 Mulliken charges:
               1
     1  O   -0.369072
     2  H    0.174160
     3  H    0.195724
     4  O   -0.347357
     5  H    0.124582
     6  H    0.221964
 Sum of Mulliken charges =  -0.00000

 Dipole moment (field-independent basis, Debye):
    X=             -0.7938    Y=             -0.3806    Z=              0.0000  Tot=              0.8803
 Quadrupole moment (field-independent basis, Debye-Ang):
   XX=             -8.7790   YY=             -8.4343   ZZ=            -14.7231
   XY=             -0.3745   XZ=              0.0000   YZ=              0.0000

 Normal termination of Gaussian 16 at Fri Aug 26 12:36:03 2022.
