 Gaussian 16, Revision A.03,
 Gaussian 16:  ES64L-G16RevA.03 25-Dec-2016

 ------------------
 #p CCSD(T)/cc-pVTZ
 ------------------

 ----------
 H2O_H2O_51
 ----------
 Symbolic Z-matrix:
 Charge =  0 Multiplicity = 1

                         Standard orientation:
 ---------------------------------------------------------------------
 Center     Atomic      Atomic             Coordinates (Angstroms)
 Number     Number       Type             X           Y           Z
 ---------------------------------------------------------------------
      1          8           0        0.003735   -0.830059    0.000000
      2          1           0       -0.796057   -1.400882    0.000000
      3          1           0        0.803085   -1.401501    0.000000
      4          8           0        0.003735    0.830301    0.000000
      5          1           0        0.764482    1.452210    0.000000
      6          1           0       -0.831277    1.348239    0.000000
 ---------------------------------------------------------------------

 SCF Done:  E(RHF) =  -151.935855046     A.U. after   11 cycles
 E2 =    -0.5498296167D+00 EUMP2 =    -0.15248568466239D+03
 CCSD(T)
 CCSD(T)= -0.15251032402D+03

 The electronic state is 1-A'.
 Alpha  occ. eigenvalues --  -20.51287 -20.51280  -1.36110  -1.27010  -0.70604
 Alpha  occ. eigenvalues --   -0.67898  -0.65405  -0.52401  -0.43216  -0.33516
 Alpha virt. eigenvalues --    0.14486   0.19737   0.19837   0.23020   0.50440
 Alpha virt. eigenvalues --    0.58851   0.59225   0.66674   0.67967   0.79304
 Alpha virt. eigenvalues --    0.80942   0.84094   0.84099   0.85950   0.87893

 Mulliken charges:
               1
     1  O   -0.348257
     2  H    0.171871
     3  H    0.176428
     4  O   -0.347380
     5  H    0.164777
     6  H    0.182561
 Sum of Mulliken charges =   0.00000

 Dipole moment (field-independent basis, Debye):
    X=             -0.1079    Y=             -0.0069    Z=              0.0000  Tot=              0.1081
 Quadrupole moment (field-independent basis, Debye-Ang):
   XX=             -8.5242   YY=             -8.8361   ZZ=            -14.7764
   XY=             -0.0561   XZ=              0.0000   YZ=              0.0000

 7718\MP4DQ=-152.4887822\MP4SDQ=-152.4931277\CCSD=-152.4917928\CCSD(T)=
 Normal termination of Gaussian 16 at Fri Aug 26 12:16:53 2022.
