 Gaussian 16, Revision A.03,
 Gaussian 16:  ES64L-G16RevA.03 25-Dec-2016

 ------------------
 #p CCSD(T)/cc-pVTZ
 ------------------

 ------------
 H2O_H2O_4209
 ------------
 Symbolic Z-matrix:
 Charge =  0 Multiplicity = 1

                         Standard orientation:
 ---------------------------------------------------------------------
 Center     Atomic      Atomic             Coordinates (Angstroms)
 Number     Number       Type             X           Y           Z
 ---------------------------------------------------------------------
      1          8           0        0.031739   -3.026887    0.000000
      2          1           0       -0.768345   -3.597300    0.000000
      3          1           0        0.830796   -3.598739    0.000000
      4          8           0        0.031739    3.046081    0.000000
      5          1           0        0.380081    3.964865    0.000000
      6          1           0       -0.950356    3.077625    0.000000
 ---------------------------------------------------------------------

 SCF Done:  E(RHF) =  -152.106896575     A.U. after   10 cycles
 E2 =    -0.5259274745D+00 EUMP2 =    -0.15263282405001D+03
 CCSD(T)
 CCSD(T)= -0.15266005485D+03

 The electronic state is 1-A'.
 Alpha  occ. eigenvalues --  -20.55261 -20.55141  -1.32557  -1.32436  -0.69965
 Alpha  occ. eigenvalues --   -0.69841  -0.55981  -0.55860  -0.49665  -0.49545
 Alpha virt. eigenvalues --    0.14362   0.14504   0.20419   0.20550   0.54602
 Alpha virt. eigenvalues --    0.54735   0.57476   0.57598   0.68214   0.68405
 Alpha virt. eigenvalues --    0.79214   0.79333   0.80655   0.80787   0.82585

 Mulliken charges:
               1
     1  O   -0.505859
     2  H    0.252124
     3  H    0.253735
     4  O   -0.505740
     5  H    0.251678
     6  H    0.254063
 Sum of Mulliken charges =  -0.00000

 Dipole moment (field-independent basis, Debye):
    X=             -1.0898    Y=             -0.3355    Z=              0.0000  Tot=              1.1403
 Quadrupole moment (field-independent basis, Debye-Ang):
   XX=             -8.4376   YY=             10.8244   ZZ=            -14.7109
   XY=             -2.5097   XZ=              0.0000   YZ=              0.0000

 Normal termination of Gaussian 16 at Sat Aug 27 06:00:39 2022.
