 Gaussian 16, Revision A.03,
 Gaussian 16:  ES64L-G16RevA.03 25-Dec-2016

 ------------------
 #p CCSD(T)/cc-pVTZ
 ------------------

 ------------
 H2O_H2O_1200
 ------------
 Symbolic Z-matrix:
 Charge =  0 Multiplicity = 1

                         Standard orientation:
 ---------------------------------------------------------------------
 Center     Atomic      Atomic             Coordinates (Angstroms)
 Number     Number       Type             X           Y           Z
 ---------------------------------------------------------------------
      1          8           0        0.000000   -0.000000    1.441803
      2          1           0        0.000000    0.799571    2.012935
      3          1           0       -0.000000   -0.799571    2.012935
      4          8           0        0.000000   -0.000000   -1.441803
      5          1           0       -0.000000   -0.799571   -2.012935
      6          1           0        0.000000    0.799571   -2.012935
 ---------------------------------------------------------------------

 SCF Done:  E(RHF) =  -152.099982266     A.U. after   10 cycles
 E2 =    -0.5276754627D+00 EUMP2 =    -0.15262765772841D+03
 CCSD(T)
 CCSD(T)= -0.15265496964D+03

 The electronic state is 1-AG.
 Alpha  occ. eigenvalues --  -20.53673 -20.53673  -1.31164  -1.30850  -0.68558
 Alpha  occ. eigenvalues --   -0.68330  -0.55817  -0.52400  -0.48385  -0.47765
 Alpha virt. eigenvalues --    0.14433   0.16897   0.20568   0.21956   0.51212
 Alpha virt. eigenvalues --    0.58421   0.58725   0.60785   0.68309   0.76232
 Alpha virt. eigenvalues --    0.77420   0.77903   0.79186   0.83081   0.86226

 Mulliken charges:
               1
     1  O   -0.468908
     2  H    0.234454
     3  H    0.234454
     4  O   -0.468908
     5  H    0.234454
     6  H    0.234454
 Sum of Mulliken charges =   0.00000

 Dipole moment (field-independent basis, Debye):
    X=             -0.0000    Y=              0.0000    Z=             -0.0000  Tot=              0.0000
 Quadrupole moment (field-independent basis, Debye-Ang):
   XX=            -14.7121   YY=             -7.9142   ZZ=             -0.9767
   XY=              0.0000   XZ=             -0.0000   YZ=             -0.0000

 1\MP4DQ=-152.6365247\MP4SDQ=-152.6396911\CCSD=-152.6390638\CCSD(T)=-15
 Normal termination of Gaussian 16 at Sat Aug 27 02:55:55 2022.
