 Gaussian 16, Revision A.03,
 Gaussian 16:  ES64L-G16RevA.03 25-Dec-2016

 ------------------
 #p CCSD(T)/cc-pVTZ
 ------------------

 ------------
 H2O_H2O_3569
 ------------
 Symbolic Z-matrix:
 Charge =  0 Multiplicity = 1

                         Standard orientation:
 ---------------------------------------------------------------------
 Center     Atomic      Atomic             Coordinates (Angstroms)
 Number     Number       Type             X           Y           Z
 ---------------------------------------------------------------------
      1          8           0        0.054149   -2.649625    0.000000
      2          1           0       -0.746410   -3.219371    0.000000
      3          1           0        0.852730   -3.222141    0.000000
      4          8           0        0.054149    2.726947    0.000000
      5          1           0       -0.228030    3.668159    0.000000
      6          1           0       -0.744679    2.154776    0.000000
 ---------------------------------------------------------------------

 SCF Done:  E(RHF) =  -152.107418054     A.U. after   10 cycles
 E2 =    -0.5259075033D+00 EUMP2 =    -0.15263332555772D+03
 CCSD(T)
 CCSD(T)= -0.15266054298D+03

 The electronic state is 1-A'.
 Alpha  occ. eigenvalues --  -20.55592 -20.54957  -1.32890  -1.32254  -0.70297
 Alpha  occ. eigenvalues --   -0.69648  -0.56338  -0.55697  -0.50002  -0.49368
 Alpha virt. eigenvalues --    0.13906   0.14841   0.20134   0.20892   0.54238
 Alpha virt. eigenvalues --    0.54903   0.57184   0.57787   0.67445   0.68984
 Alpha virt. eigenvalues --    0.78881   0.79500   0.80279   0.80748   0.82609

 Mulliken charges:
               1
     1  O   -0.508904
     2  H    0.252581
     3  H    0.256375
     4  O   -0.508430
     5  H    0.250677
     6  H    0.257701
 Sum of Mulliken charges =  -0.00000

 Dipole moment (field-independent basis, Debye):
    X=             -1.8555    Y=             -1.3622    Z=              0.0000  Tot=              2.3018
 Quadrupole moment (field-independent basis, Debye-Ang):
   XX=             -9.6479   YY=              3.9282   ZZ=            -14.7124
   XY=             -4.6319   XZ=              0.0000   YZ=              0.0000

 Normal termination of Gaussian 16 at Sat Aug 27 01:34:44 2022.
