 Gaussian 16, Revision A.03,
 Gaussian 16:  ES64L-G16RevA.03 25-Dec-2016

 ------------------
 #p CCSD(T)/cc-pVTZ
 ------------------

 ------------
 H2O_H2O_1480
 ------------
 Symbolic Z-matrix:
 Charge =  0 Multiplicity = 1

                         Standard orientation:
 ---------------------------------------------------------------------
 Center     Atomic      Atomic             Coordinates (Angstroms)
 Number     Number       Type             X           Y           Z
 ---------------------------------------------------------------------
      1          8           0        0.018361   -1.584785    0.000000
      2          1           0       -0.781778   -2.155120    0.000000
      3          1           0        0.817364   -2.156712    0.000000
      4          8           0        0.018361    1.590810    0.000000
      5          1           0        0.592709    2.388075    0.000000
      6          1           0       -0.922078    1.875555    0.000000
 ---------------------------------------------------------------------

 SCF Done:  E(RHF) =  -152.102841852     A.U. after   10 cycles
 E2 =    -0.5270763722D+00 EUMP2 =    -0.15262991822378D+03
 CCSD(T)
 CCSD(T)= -0.15265719060D+03

 The electronic state is 1-A'.
 Alpha  occ. eigenvalues --  -20.54132 -20.53996  -1.31453  -1.31249  -0.68875
 Alpha  occ. eigenvalues --   -0.68685  -0.55487  -0.53609  -0.48617  -0.48259
 Alpha virt. eigenvalues --    0.14266   0.16499   0.20538   0.21769   0.52400
 Alpha virt. eigenvalues --    0.58205   0.58311   0.58764   0.64056   0.76584
 Alpha virt. eigenvalues --    0.78197   0.78403   0.79467   0.82163   0.85931

 Mulliken charges:
               1
     1  O   -0.478078
     2  H    0.236500
     3  H    0.241814
     4  O   -0.477140
     5  H    0.235762
     6  H    0.241142
 Sum of Mulliken charges =  -0.00000

 Dipole moment (field-independent basis, Debye):
    X=             -0.6057    Y=             -0.1132    Z=              0.0000  Tot=              0.6162
 Quadrupole moment (field-independent basis, Debye-Ang):
   XX=             -8.0880   YY=              0.2286   ZZ=            -14.7098
   XY=             -0.4842   XZ=              0.0000   YZ=              0.0000

 Normal termination of Gaussian 16 at Sat Aug 27 04:59:58 2022.
