 Gaussian 16, Revision A.03,
 Gaussian 16:  ES64L-G16RevA.03 25-Dec-2016

 ------------------
 #p CCSD(T)/cc-pVTZ
 ------------------

 ------------
 H2O_H2O_3815
 ------------
 Symbolic Z-matrix:
 Charge =  0 Multiplicity = 1

                         Standard orientation:
 ---------------------------------------------------------------------
 Center     Atomic      Atomic             Coordinates (Angstroms)
 Number     Number       Type             X           Y           Z
 ---------------------------------------------------------------------
      1          8           0        0.047525   -2.797081    0.000000
      2          1           0       -0.752873   -3.367054    0.000000
      3          1           0        0.846268   -3.369371    0.000000
      4          8           0        0.047525    2.847709    0.000000
      5          1           0        0.018286    3.829876    0.000000
      6          1           0       -0.872075    2.501526    0.000000
 ---------------------------------------------------------------------

 SCF Done:  E(RHF) =  -152.107106823     A.U. after   10 cycles
 E2 =    -0.5259201380D+00 EUMP2 =    -0.15263302696132D+03
 CCSD(T)
 CCSD(T)= -0.15266025252D+03

 The electronic state is 1-A'.
 Alpha  occ. eigenvalues --  -20.55414 -20.55042  -1.32711  -1.32337  -0.70118
 Alpha  occ. eigenvalues --   -0.69736  -0.56145  -0.55770  -0.49820  -0.49448
 Alpha virt. eigenvalues --    0.14172   0.14661   0.20282   0.20709   0.54437
 Alpha virt. eigenvalues --    0.54845   0.57337   0.57710   0.67892   0.68637
 Alpha virt. eigenvalues --    0.79059   0.79425   0.80493   0.80872   0.82477

 Mulliken charges:
               1
     1  O   -0.507129
     2  H    0.252091
     3  H    0.255044
     4  O   -0.506806
     5  H    0.250954
     6  H    0.255846
 Sum of Mulliken charges =  -0.00000

 Dipole moment (field-independent basis, Debye):
    X=             -1.6300    Y=             -0.8884    Z=              0.0000  Tot=              1.8564
 Quadrupole moment (field-independent basis, Debye-Ang):
   XX=             -9.2248   YY=              6.8902   ZZ=            -14.7115
   XY=             -3.8827   XZ=              0.0000   YZ=              0.0000

 Normal termination of Gaussian 16 at Sat Aug 27 03:31:54 2022.
