 Gaussian 16, Revision A.03,
 Gaussian 16:  ES64L-G16RevA.03 25-Dec-2016

 ------------------
 #p CCSD(T)/cc-pVTZ
 ------------------

 ------------
 H2O_H2O_4158
 ------------
 Symbolic Z-matrix:
 Charge =  0 Multiplicity = 1

                         Standard orientation:
 ---------------------------------------------------------------------
 Center     Atomic      Atomic             Coordinates (Angstroms)
 Number     Number       Type             X           Y           Z
 ---------------------------------------------------------------------
      1          8           0        0.028563   -3.002434    0.000000
      2          1           0       -0.771474   -3.572912    0.000000
      3          1           0        0.827667   -3.574218    0.000000
      4          8           0        0.028563    3.017690    0.000000
      5          1           0        0.436177    3.911759    0.000000
      6          1           0       -0.949374    3.113318    0.000000
 ---------------------------------------------------------------------

 SCF Done:  E(RHF) =  -152.106845498     A.U. after   10 cycles
 E2 =    -0.5259326237D+00 EUMP2 =    -0.15263277812154D+03
 CCSD(T)
 CCSD(T)= -0.15266000997D+03

 The electronic state is 1-A'.
 Alpha  occ. eigenvalues --  -20.55231 -20.55134  -1.32527  -1.32429  -0.69934
 Alpha  occ. eigenvalues --   -0.69834  -0.55948  -0.55851  -0.49634  -0.49537
 Alpha virt. eigenvalues --    0.14386   0.14509   0.20441   0.20550   0.54633
 Alpha virt. eigenvalues --    0.54742   0.57502   0.57601   0.68240   0.68430
 Alpha virt. eigenvalues --    0.79244   0.79341   0.80687   0.80794   0.82617

 Mulliken charges:
               1
     1  O   -0.505557
     2  H    0.252035
     3  H    0.253522
     4  O   -0.505455
     5  H    0.251646
     6  H    0.253809
 Sum of Mulliken charges =  -0.00000

 Dipole moment (field-independent basis, Debye):
    X=             -0.9806    Y=             -0.2667    Z=              0.0000  Tot=              1.0162
 Quadrupole moment (field-independent basis, Debye-Ang):
   XX=             -8.3174   YY=             10.9300   ZZ=            -14.7108
   XY=             -2.1974   XZ=              0.0000   YZ=              0.0000

 Normal termination of Gaussian 16 at Sat Aug 27 05:42:26 2022.
