 Gaussian 16, Revision A.03,
 Gaussian 16:  ES64L-G16RevA.03 25-Dec-2016

 ------------------
 #p CCSD(T)/cc-pVTZ
 ------------------

 ------------
 H2O_H2O_2055
 ------------
 Symbolic Z-matrix:
 Charge =  0 Multiplicity = 1

                         Standard orientation:
 ---------------------------------------------------------------------
 Center     Atomic      Atomic             Coordinates (Angstroms)
 Number     Number       Type             X           Y           Z
 ---------------------------------------------------------------------
      1          8           0        0.018361   -1.890588    0.000000
      2          1           0       -0.781686   -2.461052    0.000000
      3          1           0        0.817455   -2.462387    0.000000
      4          8           0        0.018361    1.896619    0.000000
      5          1           0        0.592581    2.693976    0.000000
      6          1           0       -0.922124    2.181213    0.000000
 ---------------------------------------------------------------------

 SCF Done:  E(RHF) =  -152.104918157     A.U. after   10 cycles
 E2 =    -0.5264162620D+00 EUMP2 =    -0.15263133441935D+03
 CCSD(T)
 CCSD(T)= -0.15265857954D+03

 The electronic state is 1-A'.
 Alpha  occ. eigenvalues --  -20.54544 -20.54442  -1.31826  -1.31719  -0.69246
 Alpha  occ. eigenvalues --   -0.69134  -0.55356  -0.54791  -0.48935  -0.48804
 Alpha virt. eigenvalues --    0.14134   0.15833   0.20578   0.21281   0.53817
 Alpha virt. eigenvalues --    0.56375   0.57934   0.58254   0.61859   0.75412
 Alpha virt. eigenvalues --    0.79342   0.80116   0.80608   0.81004   0.82671

 Mulliken charges:
               1
     1  O   -0.491608
     2  H    0.244210
     3  H    0.247538
     4  O   -0.491542
     5  H    0.243682
     6  H    0.247721
 Sum of Mulliken charges =  -0.00000

 Dipole moment (field-independent basis, Debye):
    X=             -0.6178    Y=             -0.1104    Z=              0.0000  Tot=              0.6276
 Quadrupole moment (field-independent basis, Debye-Ang):
   XX=             -8.0519   YY=              2.7823   ZZ=            -14.7095
   XY=             -0.6688   XZ=              0.0000   YZ=              0.0000

 Normal termination of Gaussian 16 at Sat Aug 27 08:20:03 2022.
