 Gaussian 16, Revision A.03,
 Gaussian 16:  ES64L-G16RevA.03 25-Dec-2016

 ------------------
 #p CCSD(T)/cc-pVTZ
 ------------------

 ------------
 H2O_H2O_4310
 ------------
 Symbolic Z-matrix:
 Charge =  0 Multiplicity = 1

                         Standard orientation:
 ---------------------------------------------------------------------
 Center     Atomic      Atomic             Coordinates (Angstroms)
 Number     Number       Type             X           Y           Z
 ---------------------------------------------------------------------
      1          8           0        0.034780   -3.077712    0.000000
      2          1           0       -0.765344   -3.648069    0.000000
      3          1           0        0.833797   -3.649619    0.000000
      4          8           0        0.034780    3.101250    0.000000
      5          1           0        0.322350    4.040828    0.000000
      6          1           0       -0.947278    3.068562    0.000000
 ---------------------------------------------------------------------

 SCF Done:  E(RHF) =  -152.106962499     A.U. after   10 cycles
 E2 =    -0.5259202891D+00 EUMP2 =    -0.15263288278776D+03
 CCSD(T)
 CCSD(T)= -0.15266011227D+03

 The electronic state is 1-A'.
 Alpha  occ. eigenvalues --  -20.55299 -20.55156  -1.32595  -1.32452  -0.70002
 Alpha  occ. eigenvalues --   -0.69856  -0.56022  -0.55879  -0.49703  -0.49561
 Alpha virt. eigenvalues --    0.14334   0.14490   0.20391   0.20544   0.54564
 Alpha virt. eigenvalues --    0.54720   0.57444   0.57587   0.68182   0.68367
 Alpha virt. eigenvalues --    0.79176   0.79316   0.80616   0.80772   0.82544

 Mulliken charges:
               1
     1  O   -0.506249
     2  H    0.252285
     3  H    0.253964
     4  O   -0.506120
     5  H    0.251791
     6  H    0.254329
 Sum of Mulliken charges =  -0.00000

 Dipole moment (field-independent basis, Debye):
    X=             -1.1946    Y=             -0.4112    Z=              0.0000  Tot=              1.2634
 Quadrupole moment (field-independent basis, Debye-Ang):
   XX=             -8.5645   YY=             10.8650   ZZ=            -14.7110
   XY=             -2.8606   XZ=              0.0000   YZ=              0.0000

 Normal termination of Gaussian 16 at Sat Aug 27 06:35:45 2022.
