 Gaussian 16, Revision A.03,
 Gaussian 16:  ES64L-G16RevA.03 25-Dec-2016

 ------------------
 #p CCSD(T)/cc-pVTZ
 ------------------

 ------------
 H2O_H2O_1649
 ------------
 Symbolic Z-matrix:
 Charge =  0 Multiplicity = 1

                         Standard orientation:
 ---------------------------------------------------------------------
 Center     Atomic      Atomic             Coordinates (Angstroms)
 Number     Number       Type             X           Y           Z
 ---------------------------------------------------------------------
      1          8           0        0.057282   -1.605980    0.000000
      2          1           0       -0.743974   -2.174745    0.000000
      3          1           0        0.855161   -2.179473    0.000000
      4          8           0        0.057282    1.719868    0.000000
      5          1           0       -0.511484    2.521124    0.000000
      6          1           0       -0.516212    0.921989    0.000000
 ---------------------------------------------------------------------

 SCF Done:  E(RHF) =  -152.110043300     A.U. after   10 cycles
 E2 =    -0.5268049431D+00 EUMP2 =    -0.15263684824285D+03
 CCSD(T)
 CCSD(T)= -0.15266394177D+03

 The electronic state is 1-A'.
 Alpha  occ. eigenvalues --  -20.56585 -20.53577  -1.33858  -1.30901  -0.71253
 Alpha  occ. eigenvalues --   -0.68323  -0.57349  -0.54394  -0.50982  -0.48039
 Alpha virt. eigenvalues --    0.12868   0.16952   0.19572   0.25344   0.52380
 Alpha virt. eigenvalues --    0.55716   0.56621   0.58059   0.67887   0.75194
 Alpha virt. eigenvalues --    0.76416   0.76668   0.80552   0.81250   0.84047

 Mulliken charges:
               1
     1  O   -0.497609
     2  H    0.248181
     3  H    0.260347
     4  O   -0.518418
     5  H    0.241567
     6  H    0.265931
 Sum of Mulliken charges =  -0.00000

 Dipole moment (field-independent basis, Debye):
    X=             -1.9026    Y=             -2.1971    Z=              0.0000  Tot=              2.9064
 Quadrupole moment (field-independent basis, Debye-Ang):
   XX=             -9.8600   YY=             -3.5215   ZZ=            -14.7248
   XY=             -3.5840   XZ=              0.0000   YZ=              0.0000

 Normal termination of Gaussian 16 at Sat Aug 27 05:59:18 2022.
