 Gaussian 16, Revision A.03,
 Gaussian 16:  ES64L-G16RevA.03 25-Dec-2016

 ------------------
 #p CCSD(T)/cc-pVTZ
 ------------------

 ------------
 H2O_H2O_3471
 ------------
 Symbolic Z-matrix:
 Charge =  0 Multiplicity = 1

                         Standard orientation:
 ---------------------------------------------------------------------
 Center     Atomic      Atomic             Coordinates (Angstroms)
 Number     Number       Type             X           Y           Z
 ---------------------------------------------------------------------
      1          8           0        0.056100   -2.588613    0.000000
      2          1           0       -0.744515   -3.158281    0.000000
      3          1           0        0.854624   -3.161208    0.000000
      4          8           0        0.056100    2.680350    0.000000
      5          1           0       -0.346429    3.576718    0.000000
      6          1           0       -0.661277    2.008877    0.000000
 ---------------------------------------------------------------------

 SCF Done:  E(RHF) =  -152.107636341     A.U. after   10 cycles
 E2 =    -0.5258993844D+00 EUMP2 =    -0.15263353572579D+03
 CCSD(T)
 CCSD(T)= -0.15266074711D+03

 The electronic state is 1-A'.
 Alpha  occ. eigenvalues --  -20.55704 -20.54913  -1.33002  -1.32211  -0.70408
 Alpha  occ. eigenvalues --   -0.69603  -0.56459  -0.55661  -0.50115  -0.49328
 Alpha virt. eigenvalues --    0.13735   0.14942   0.20051   0.21005   0.54119
 Alpha virt. eigenvalues --    0.54906   0.57091   0.57814   0.67193   0.69181
 Alpha virt. eigenvalues --    0.78769   0.79537   0.80121   0.80562   0.82709

 Mulliken charges:
               1
     1  O   -0.510035
     2  H    0.253038
     3  H    0.257115
     4  O   -0.509531
     5  H    0.250671
     6  H    0.258742
 Sum of Mulliken charges =  -0.00000

 Dipole moment (field-independent basis, Debye):
    X=             -1.9215    Y=             -1.6196    Z=              0.0000  Tot=              2.5130
 Quadrupole moment (field-independent basis, Debye-Ang):
   XX=             -9.7829   YY=              2.4302   ZZ=            -14.7130
   XY=             -4.9502   XZ=              0.0000   YZ=              0.0000

 Normal termination of Gaussian 16 at Fri Aug 26 22:37:03 2022.
