 Gaussian 16, Revision A.03,
 Gaussian 16:  ES64L-G16RevA.03 25-Dec-2016

 ------------------
 #p CCSD(T)/cc-pVTZ
 ------------------

 -----------
 H2O_H2O_470
 -----------
 Symbolic Z-matrix:
 Charge =  0 Multiplicity = 1

                         Standard orientation:
 ---------------------------------------------------------------------
 Center     Atomic      Atomic             Coordinates (Angstroms)
 Number     Number       Type             X           Y           Z
 ---------------------------------------------------------------------
      1          8           0        0.055360   -0.997213    0.000000
      2          1           0       -0.746812   -1.564686    0.000000
      3          1           0        0.852313   -1.571993    0.000000
      4          8           0        0.055360    1.081370    0.000000
      5          1           0       -0.285159    2.003083    0.000000
      6          1           0       -0.706101    0.460337    0.000000
 ---------------------------------------------------------------------

 SCF Done:  E(RHF) =  -152.065537034     A.U. after   11 cycles
 E2 =    -0.5353588199D+00 EUMP2 =    -0.15260089585379D+03
 CCSD(T)
 CCSD(T)= -0.15262749465D+03

 The electronic state is 1-A'.
 Alpha  occ. eigenvalues --  -20.55571 -20.50871  -1.35086  -1.28287  -0.72572
 Alpha  occ. eigenvalues --   -0.69403  -0.54025  -0.51672  -0.50622  -0.45228
 Alpha virt. eigenvalues --    0.13326   0.18694   0.19464   0.25605   0.50787
 Alpha virt. eigenvalues --    0.55896   0.61303   0.64214   0.72177   0.74822
 Alpha virt. eigenvalues --    0.79004   0.81795   0.83859   0.84940   0.87712

 Mulliken charges:
               1
     1  O   -0.410501
     2  H    0.205928
     3  H    0.236015
     4  O   -0.472577
     5  H    0.186706
     6  H    0.254429
 Sum of Mulliken charges =  -0.00000

 Dipole moment (field-independent basis, Debye):
    X=             -1.6234    Y=             -1.8521    Z=              0.0000  Tot=              2.4628
 Quadrupole moment (field-independent basis, Debye-Ang):
   XX=             -9.7645   YY=             -6.1754   ZZ=            -14.6810
   XY=             -1.8030   XZ=              0.0000   YZ=              0.0000

 Normal termination of Gaussian 16 at Fri Aug 26 16:45:51 2022.
