 Gaussian 16, Revision A.03,
 Gaussian 16:  ES64L-G16RevA.03 25-Dec-2016

 ------------------
 #p CCSD(T)/cc-pVTZ
 ------------------

 -----------
 H2O_H2O_150
 -----------
 Symbolic Z-matrix:
 Charge =  0 Multiplicity = 1

                         Standard orientation:
 ---------------------------------------------------------------------
 Center     Atomic      Atomic             Coordinates (Angstroms)
 Number     Number       Type             X           Y           Z
 ---------------------------------------------------------------------
      1          8           0        0.000000   -0.000000    0.883375
      2          1           0        0.000000    0.799571    1.454507
      3          1           0       -0.000000   -0.799571    1.454507
      4          8           0        0.000000   -0.000000   -0.883375
      5          1           0       -0.000000   -0.799571   -1.454507
      6          1           0        0.000000    0.799571   -1.454507
 ---------------------------------------------------------------------

 SCF Done:  E(RHF) =  -151.985359385     A.U. after   11 cycles
 E2 =    -0.5434414372D+00 EUMP2 =    -0.15252880082196D+03
 CCSD(T)
 CCSD(T)= -0.15255452786D+03

 The electronic state is 1-AG.
 Alpha  occ. eigenvalues --  -20.51178 -20.51176  -1.34079  -1.27398  -0.69498
 Alpha  occ. eigenvalues --   -0.65649  -0.65276  -0.50846  -0.43645  -0.37304
 Alpha virt. eigenvalues --    0.14634   0.19230   0.20141   0.22987   0.50367
 Alpha virt. eigenvalues --    0.59183   0.59262   0.67558   0.67794   0.79233
 Alpha virt. eigenvalues --    0.80547   0.83981   0.84394   0.86357   0.87695

 Mulliken charges:
               1
     1  O   -0.383644
     2  H    0.191822
     3  H    0.191822
     4  O   -0.383644
     5  H    0.191822
     6  H    0.191822
 Sum of Mulliken charges =  -0.00000

 Dipole moment (field-independent basis, Debye):
    X=             -0.0000    Y=              0.0000    Z=              0.0000  Tot=              0.0000
 Quadrupole moment (field-independent basis, Debye-Ang):
   XX=            -14.7634   YY=             -8.3509   ZZ=             -7.6629
   XY=              0.0000   XZ=             -0.0000   YZ=             -0.0000

 \MP4DQ=-152.5337987\MP4SDQ=-152.5377885\CCSD=-152.5367344\CCSD(T)=-152
 Normal termination of Gaussian 16 at Fri Aug 26 13:22:14 2022.
