 Gaussian 16, Revision A.03,
 Gaussian 16:  ES64L-G16RevA.03 25-Dec-2016

 ------------------
 #p CCSD(T)/cc-pVTZ
 ------------------

 ------------
 H2O_H2O_4008
 ------------
 Symbolic Z-matrix:
 Charge =  0 Multiplicity = 1

                         Standard orientation:
 ---------------------------------------------------------------------
 Center     Atomic      Atomic             Coordinates (Angstroms)
 Number     Number       Type             X           Y           Z
 ---------------------------------------------------------------------
      1          8           0        0.028563   -2.922659    0.000000
      2          1           0       -0.771487   -3.493120    0.000000
      3          1           0        0.827655   -3.494462    0.000000
      4          8           0        0.028563    2.937915    0.000000
      5          1           0        0.436197    3.831973    0.000000
      6          1           0       -0.949372    3.033564    0.000000
 ---------------------------------------------------------------------

 SCF Done:  E(RHF) =  -152.106792533     A.U. after   10 cycles
 E2 =    -0.5259400597D+00 EUMP2 =    -0.15263273259298D+03
 CCSD(T)
 CCSD(T)= -0.15265996540D+03

 The electronic state is 1-A'.
 Alpha  occ. eigenvalues --  -20.55208 -20.55106  -1.32504  -1.32401  -0.69912
 Alpha  occ. eigenvalues --   -0.69806  -0.55923  -0.55820  -0.49611  -0.49508
 Alpha virt. eigenvalues --    0.14394   0.14542   0.20454   0.20573   0.54654
 Alpha virt. eigenvalues --    0.54772   0.57521   0.57626   0.68229   0.68506
 Alpha virt. eigenvalues --    0.79268   0.79369   0.80711   0.80825   0.82644

 Mulliken charges:
               1
     1  O   -0.505248
     2  H    0.251822
     3  H    0.253426
     4  O   -0.505131
     5  H    0.251406
     6  H    0.253725
 Sum of Mulliken charges =  -0.00000

 Dipole moment (field-independent basis, Debye):
    X=             -0.9801    Y=             -0.2670    Z=              0.0000  Tot=              1.0158
 Quadrupole moment (field-independent basis, Debye-Ang):
   XX=             -8.3181   YY=             10.3327   ZZ=            -14.7107
   XY=             -2.1199   XZ=              0.0000   YZ=              0.0000

 Normal termination of Gaussian 16 at Sat Aug 27 04:51:32 2022.
