 Gaussian 16, Revision A.03,
 Gaussian 16:  ES64L-G16RevA.03 25-Dec-2016

 ------------------
 #p CCSD(T)/cc-pVTZ
 ------------------

 ------------
 H2O_H2O_1636
 ------------
 Symbolic Z-matrix:
 Charge =  0 Multiplicity = 1

                         Standard orientation:
 ---------------------------------------------------------------------
 Center     Atomic      Atomic             Coordinates (Angstroms)
 Number     Number       Type             X           Y           Z
 ---------------------------------------------------------------------
      1          8           0        0.037685   -1.652516    0.000000
      2          1           0       -0.762995   -2.222092    0.000000
      3          1           0        0.836144   -2.225202    0.000000
      4          8           0        0.037685    1.680716    0.000000
      5          1           0        0.264121    2.636871    0.000000
      6          1           0       -0.940227    1.584824    0.000000
 ---------------------------------------------------------------------

 SCF Done:  E(RHF) =  -152.104773388     A.U. after   10 cycles
 E2 =    -0.5268227046D+00 EUMP2 =    -0.15263159609225D+03
 CCSD(T)
 CCSD(T)= -0.15265882349D+03

 The electronic state is 1-A'.
 Alpha  occ. eigenvalues --  -20.54703 -20.54084  -1.31987  -1.31344  -0.69411
 Alpha  occ. eigenvalues --   -0.68744  -0.55590  -0.54316  -0.49100  -0.48432
 Alpha virt. eigenvalues --    0.13929   0.16385   0.20353   0.21998   0.53183
 Alpha virt. eigenvalues --    0.56163   0.57892   0.58638   0.64000   0.77020
 Alpha virt. eigenvalues --    0.78360   0.78651   0.79497   0.81570   0.85494

 Mulliken charges:
               1
     1  O   -0.486026
     2  H    0.239071
     3  H    0.248355
     4  O   -0.486394
     5  H    0.236336
     6  H    0.248658
 Sum of Mulliken charges =  -0.00000

 Dipole moment (field-independent basis, Debye):
    X=             -1.2493    Y=             -0.5280    Z=              0.0000  Tot=              1.3563
 Quadrupole moment (field-independent basis, Debye-Ang):
   XX=             -8.7382   YY=              0.2946   ZZ=            -14.7119
   XY=             -1.3492   XZ=              0.0000   YZ=              0.0000

 Normal termination of Gaussian 16 at Sat Aug 27 05:54:49 2022.
