 Gaussian 16, Revision A.03,
 Gaussian 16:  ES64L-G16RevA.03 25-Dec-2016

 ------------------
 #p CCSD(T)/cc-pVTZ
 ------------------

 -----------
 H2O_H2O_879
 -----------
 Symbolic Z-matrix:
 Charge =  0 Multiplicity = 1

                         Standard orientation:
 ---------------------------------------------------------------------
 Center     Atomic      Atomic             Coordinates (Angstroms)
 Number     Number       Type             X           Y           Z
 ---------------------------------------------------------------------
      1          8           0        0.014784   -1.266857    0.000000
      2          1           0       -0.785359   -1.837187    0.000000
      3          1           0        0.813782   -1.838791    0.000000
      4          8           0        0.014784    1.270720    0.000000
      5          1           0        0.640051    2.028709    0.000000
      6          1           0       -0.905017    1.616370    0.000000
 ---------------------------------------------------------------------

 SCF Done:  E(RHF) =  -152.093782789     A.U. after   11 cycles
 E2 =    -0.5289950725D+00 EUMP2 =    -0.15262277786126D+03
 CCSD(T)
 CCSD(T)= -0.15265007793D+03

 The electronic state is 1-A'.
 Alpha  occ. eigenvalues --  -20.53242 -20.53131  -1.31072  -1.30248  -0.68378
 Alpha  occ. eigenvalues --   -0.67810  -0.56808  -0.50456  -0.48359  -0.47031
 Alpha virt. eigenvalues --    0.14461   0.17403   0.20553   0.22358   0.50823
 Alpha virt. eigenvalues --    0.58737   0.58868   0.62620   0.72423   0.76660
 Alpha virt. eigenvalues --    0.76778   0.79325   0.83628   0.83880   0.86414

 Mulliken charges:
               1
     1  O   -0.462367
     2  H    0.227487
     3  H    0.234251
     4  O   -0.457602
     5  H    0.224825
     6  H    0.233405
 Sum of Mulliken charges =  -0.00000

 Dipole moment (field-independent basis, Debye):
    X=             -0.4652    Y=             -0.0745    Z=              0.0000  Tot=              0.4712
 Quadrupole moment (field-independent basis, Debye-Ang):
   XX=             -8.1047   YY=             -2.6815   ZZ=            -14.7229
   XY=             -0.2334   XZ=              0.0000   YZ=              0.0000

 Normal termination of Gaussian 16 at Fri Aug 26 20:48:44 2022.
