 Gaussian 16, Revision A.03,
 Gaussian 16:  ES64L-G16RevA.03 25-Dec-2016

 ------------------
 #p CCSD(T)/cc-pVTZ
 ------------------

 ------------
 H2O_H2O_1297
 ------------
 Symbolic Z-matrix:
 Charge =  0 Multiplicity = 1

                         Standard orientation:
 ---------------------------------------------------------------------
 Center     Atomic      Atomic             Coordinates (Angstroms)
 Number     Number       Type             X           Y           Z
 ---------------------------------------------------------------------
      1          8           0        0.056788   -1.427952    0.000000
      2          1           0       -0.744663   -1.996443    0.000000
      3          1           0        0.854470   -2.001719    0.000000
      4          8           0        0.056788    1.526895    0.000000
      5          1           0       -0.402229    2.395693    0.000000
      6          1           0       -0.616189    0.810928    0.000000
 ---------------------------------------------------------------------

 SCF Done:  E(RHF) =  -152.108399744     A.U. after   10 cycles
 E2 =    -0.5276381735D+00 EUMP2 =    -0.15263603791727D+03
 CCSD(T)
 CCSD(T)= -0.15266311801D+03

 The electronic state is 1-A'.
 Alpha  occ. eigenvalues --  -20.56410 -20.53137  -1.33757  -1.30462  -0.71152
 Alpha  occ. eigenvalues --   -0.68064  -0.57014  -0.53961  -0.50866  -0.47586
 Alpha virt. eigenvalues --    0.13082   0.17362   0.19614   0.25263   0.52234
 Alpha virt. eigenvalues --    0.56130   0.56815   0.58974   0.69169   0.74750
 Alpha virt. eigenvalues --    0.75169   0.78083   0.82068   0.82082   0.84145

 Mulliken charges:
               1
     1  O   -0.488918
     2  H    0.243284
     3  H    0.259116
     4  O   -0.511558
     5  H    0.234246
     6  H    0.263831
 Sum of Mulliken charges =  -0.00000

 Dipole moment (field-independent basis, Debye):
    X=             -1.8485    Y=             -1.9631    Z=              0.0000  Tot=              2.6964
 Quadrupole moment (field-independent basis, Debye-Ang):
   XX=             -9.8310   YY=             -3.6436   ZZ=            -14.7264
   XY=             -2.9450   XZ=              0.0000   YZ=              0.0000

 Normal termination of Gaussian 16 at Sat Aug 27 03:43:04 2022.
