 Gaussian 16, Revision A.03,
 Gaussian 16:  ES64L-G16RevA.03 25-Dec-2016

 ------------------
 #p CCSD(T)/cc-pVTZ
 ------------------

 -----------
 H2O_H2O_410
 -----------
 Symbolic Z-matrix:
 Charge =  0 Multiplicity = 1

                         Standard orientation:
 ---------------------------------------------------------------------
 Center     Atomic      Atomic             Coordinates (Angstroms)
 Number     Number       Type             X           Y           Z
 ---------------------------------------------------------------------
      1          8           0        0.034803   -1.003622    0.000000
      2          1           0       -0.766448   -1.572395    0.000000
      3          1           0        0.832687   -1.577109    0.000000
      4          8           0        0.034803    1.027022    0.000000
      5          1           0        0.324232    1.966031    0.000000
      6          1           0       -0.947318    0.996278    0.000000
 ---------------------------------------------------------------------

 SCF Done:  E(RHF) =  -152.059856724     A.U. after   11 cycles
 E2 =    -0.5345591905D+00 EUMP2 =    -0.15259441591474D+03
 CCSD(T)
 CCSD(T)= -0.15262128050D+03

 The electronic state is 1-A'.
 Alpha  occ. eigenvalues --  -20.52773 -20.51989  -1.32445  -1.28752  -0.69399
 Alpha  occ. eigenvalues --   -0.67352  -0.59199  -0.49575  -0.45684  -0.45344
 Alpha virt. eigenvalues --    0.14363   0.18103   0.20247   0.23331   0.52893
 Alpha virt. eigenvalues --    0.57656   0.58493   0.63941   0.70896   0.76927
 Alpha virt. eigenvalues --    0.78967   0.81966   0.83657   0.85878   0.88046

 Mulliken charges:
               1
     1  O   -0.442245
     2  H    0.210577
     3  H    0.229324
     4  O   -0.411477
     5  H    0.178780
     6  H    0.235041
 Sum of Mulliken charges =  -0.00000

 Dipole moment (field-independent basis, Debye):
    X=             -1.0141    Y=             -0.4802    Z=              0.0000  Tot=              1.1221
 Quadrupole moment (field-independent basis, Debye-Ang):
   XX=             -8.8022   YY=             -5.5683   ZZ=            -14.7307
   XY=             -0.5096   XZ=              0.0000   YZ=              0.0000

 Normal termination of Gaussian 16 at Fri Aug 26 16:12:15 2022.
