 Gaussian 16, Revision A.03,
 Gaussian 16:  ES64L-G16RevA.03 25-Dec-2016

 ------------------
 #p CCSD(T)/cc-pVTZ
 ------------------

 ------------
 H2O_H2O_3523
 ------------
 Symbolic Z-matrix:
 Charge =  0 Multiplicity = 1

                         Standard orientation:
 ---------------------------------------------------------------------
 Center     Atomic      Atomic             Coordinates (Angstroms)
 Number     Number       Type             X           Y           Z
 ---------------------------------------------------------------------
      1          8           0        0.057089   -2.607163    0.000000
      2          1           0       -0.743534   -3.176820    0.000000
      3          1           0        0.855606   -3.179769    0.000000
      4          8           0        0.057089    2.713709    0.000000
      5          1           0       -0.458985    3.549875    0.000000
      6          1           0       -0.566516    1.954351    0.000000
 ---------------------------------------------------------------------

 SCF Done:  E(RHF) =  -152.107840513     A.U. after   10 cycles
 E2 =    -0.5258815857D+00 EUMP2 =    -0.15263372209870D+03
 CCSD(T)
 CCSD(T)= -0.15266092892D+03

 The electronic state is 1-A'.
 Alpha  occ. eigenvalues --  -20.55811 -20.54913  -1.33110  -1.32213  -0.70515
 Alpha  occ. eigenvalues --   -0.69605  -0.56576  -0.55669  -0.50224  -0.49331
 Alpha virt. eigenvalues --    0.13636   0.14955   0.19980   0.21043   0.54019
 Alpha virt. eigenvalues --    0.54890   0.57000   0.57815   0.67088   0.69107
 Alpha virt. eigenvalues --    0.78661   0.79531   0.80011   0.80409   0.82720

 Mulliken charges:
               1
     1  O   -0.511169
     2  H    0.253705
     3  H    0.257609
     4  O   -0.510609
     5  H    0.251045
     6  H    0.259419
 Sum of Mulliken charges =  -0.00000

 Dipole moment (field-independent basis, Debye):
    X=             -1.9560    Y=             -1.8807    Z=              0.0000  Tot=              2.7135
 Quadrupole moment (field-independent basis, Debye-Ang):
   XX=             -9.8537   YY=              1.2265   ZZ=            -14.7134
   XY=             -5.3528   XZ=              0.0000   YZ=              0.0000

 Normal termination of Gaussian 16 at Sat Aug 27 01:13:22 2022.
