 Gaussian 16, Revision A.03,
 Gaussian 16:  ES64L-G16RevA.03 25-Dec-2016

 ------------------
 #p CCSD(T)/cc-pVTZ
 ------------------

 ------------
 H2O_H2O_1960
 ------------
 Symbolic Z-matrix:
 Charge =  0 Multiplicity = 1

                         Standard orientation:
 ---------------------------------------------------------------------
 Center     Atomic      Atomic             Coordinates (Angstroms)
 Number     Number       Type             X           Y           Z
 ---------------------------------------------------------------------
      1          8           0        0.034787   -1.827921    0.000000
      2          1           0       -0.765712   -2.397751    0.000000
      3          1           0        0.833428   -2.400353    0.000000
      4          8           0        0.034787    1.851412    0.000000
      5          1           0        0.322976    2.790802    0.000000
      6          1           0       -0.947292    1.819371    0.000000
 ---------------------------------------------------------------------

 SCF Done:  E(RHF) =  -152.105365154     A.U. after   10 cycles
 E2 =    -0.5264719451D+00 EUMP2 =    -0.15263183709931D+03
 CCSD(T)
 CCSD(T)= -0.15265906502D+03

 The electronic state is 1-A'.
 Alpha  occ. eigenvalues --  -20.54773 -20.54345  -1.32051  -1.31616  -0.69472
 Alpha  occ. eigenvalues --   -0.69016  -0.55517  -0.54794  -0.49156  -0.48715
 Alpha virt. eigenvalues --    0.13909   0.16009   0.20415   0.21576   0.53260
 Alpha virt. eigenvalues --    0.55736   0.57847   0.58360   0.63043   0.76132
 Alpha virt. eigenvalues --    0.79064   0.79404   0.80734   0.80773   0.83545

 Mulliken charges:
               1
     1  O   -0.492307
     2  H    0.243120
     3  H    0.249902
     4  O   -0.492729
     5  H    0.241528
     6  H    0.250486
 Sum of Mulliken charges =  -0.00000

 Dipole moment (field-independent basis, Debye):
    X=             -1.1668    Y=             -0.4325    Z=              0.0000  Tot=              1.2444
 Quadrupole moment (field-independent basis, Debye-Ang):
   XX=             -8.5935   YY=              1.7622   ZZ=            -14.7108
   XY=             -1.3938   XZ=              0.0000   YZ=              0.0000

 Normal termination of Gaussian 16 at Sat Aug 27 07:47:21 2022.
