 Gaussian 16, Revision A.03,
 Gaussian 16:  ES64L-G16RevA.03 25-Dec-2016

 ------------------
 #p CCSD(T)/cc-pVTZ
 ------------------

 ------------
 H2O_H2O_2182
 ------------
 Symbolic Z-matrix:
 Charge =  0 Multiplicity = 1

                         Standard orientation:
 ---------------------------------------------------------------------
 Center     Atomic      Atomic             Coordinates (Angstroms)
 Number     Number       Type             X           Y           Z
 ---------------------------------------------------------------------
      1          8           0        0.025267   -1.953975    0.000000
      2          1           0       -0.774937   -2.524220    0.000000
      3          1           0        0.824204   -2.525994    0.000000
      4          8           0        0.025267    1.965699    0.000000
      5          1           0        0.490735    2.831057    0.000000
      6          1           0       -0.944275    2.125366    0.000000
 ---------------------------------------------------------------------

 SCF Done:  E(RHF) =  -152.105328703     A.U. after   10 cycles
 E2 =    -0.5263216353D+00 EUMP2 =    -0.15263165033860D+03
 CCSD(T)
 CCSD(T)= -0.15265889069D+03

 The electronic state is 1-A'.
 Alpha  occ. eigenvalues --  -20.54688 -20.54503  -1.31971  -1.31782  -0.69388
 Alpha  occ. eigenvalues --   -0.69191  -0.55423  -0.54984  -0.49073  -0.48878
 Alpha virt. eigenvalues --    0.14066   0.15724   0.20533   0.21249   0.53898
 Alpha virt. eigenvalues --    0.55924   0.57873   0.58180   0.62734   0.74986
 Alpha virt. eigenvalues --    0.79407   0.80316   0.80356   0.81140   0.82506

 Mulliken charges:
               1
     1  O   -0.494605
     2  H    0.245299
     3  H    0.249511
     4  O   -0.494441
     5  H    0.244471
     6  H    0.249766
 Sum of Mulliken charges =  -0.00000

 Dipole moment (field-independent basis, Debye):
    X=             -0.8525    Y=             -0.2133    Z=              0.0000  Tot=              0.8787
 Quadrupole moment (field-independent basis, Debye-Ang):
   XX=             -8.2331   YY=              3.1143   ZZ=            -14.7099
   XY=             -1.0208   XZ=              0.0000   YZ=              0.0000

 Normal termination of Gaussian 16 at Sat Aug 27 09:04:42 2022.
