 Gaussian 16, Revision A.03,
 Gaussian 16:  ES64L-G16RevA.03 25-Dec-2016

 ------------------
 #p CCSD(T)/cc-pVTZ
 ------------------

 ------------
 H2O_H2O_4977
 ------------
 Symbolic Z-matrix:
 Charge =  0 Multiplicity = 1

                         Standard orientation:
 ---------------------------------------------------------------------
 Center     Atomic      Atomic             Coordinates (Angstroms)
 Number     Number       Type             X           Y           Z
 ---------------------------------------------------------------------
      1          8           0        0.007455   -3.448956    0.000000
      2          1           0       -0.792222   -4.019939    0.000000
      3          1           0        0.806920   -4.020237    0.000000
      4          8           0        0.007455    3.449930    0.000000
      5          1           0        0.725763    4.120408    0.000000
      6          1           0       -0.859738    3.911973    0.000000
 ---------------------------------------------------------------------

 SCF Done:  E(RHF) =  -152.106975276     A.U. after   10 cycles
 E2 =    -0.5259112594D+00 EUMP2 =    -0.15263288653574D+03
 CCSD(T)
 CCSD(T)= -0.15266011623D+03

 The electronic state is 1-A'.
 Alpha  occ. eigenvalues --  -20.55267 -20.55262  -1.32563  -1.32559  -0.69970
 Alpha  occ. eigenvalues --   -0.69965  -0.55991  -0.55986  -0.49672  -0.49667
 Alpha virt. eigenvalues --    0.14373   0.14381   0.20427   0.20432   0.54598
 Alpha virt. eigenvalues --    0.54603   0.57477   0.57482   0.68230   0.68239
 Alpha virt. eigenvalues --    0.79208   0.79212   0.80649   0.80654   0.82574

 Mulliken charges:
               1
     1  O   -0.506309
     2  H    0.253023
     3  H    0.253286
     4  O   -0.506305
     5  H    0.252964
     6  H    0.253341
 Sum of Mulliken charges =  -0.00000

 Dipole moment (field-independent basis, Debye):
    X=             -0.2564    Y=             -0.0170    Z=              0.0000  Tot=              0.2570
 Quadrupole moment (field-independent basis, Debye-Ang):
   XX=             -7.8354   YY=             15.4742   ZZ=            -14.7109
   XY=             -0.6516   XZ=              0.0000   YZ=              0.0000

 Normal termination of Gaussian 16 at Sat Aug 27 10:26:30 2022.
