 Gaussian 16, Revision A.03,
 Gaussian 16:  ES64L-G16RevA.03 25-Dec-2016

 ------------------
 #p CCSD(T)/cc-pVTZ
 ------------------

 ------------
 H2O_H2O_2374
 ------------
 Symbolic Z-matrix:
 Charge =  0 Multiplicity = 1

                         Standard orientation:
 ---------------------------------------------------------------------
 Center     Atomic      Atomic             Coordinates (Angstroms)
 Number     Number       Type             X           Y           Z
 ---------------------------------------------------------------------
      1          8           0        0.057250   -1.991528    0.000000
      2          1           0       -0.743689   -2.560739    0.000000
      3          1           0        0.855448   -2.564577    0.000000
      4          8           0        0.057250    2.105480    0.000000
      5          1           0       -0.511961    2.906419    0.000000
      6          1           0       -0.515799    1.307281    0.000000
 ---------------------------------------------------------------------

 SCF Done:  E(RHF) =  -152.108909939     A.U. after   10 cycles
 E2 =    -0.5261149424D+00 EUMP2 =    -0.15263502488112D+03
 CCSD(T)
 CCSD(T)= -0.15266217909D+03

 The electronic state is 1-A'.
 Alpha  occ. eigenvalues --  -20.56166 -20.54342  -1.33439  -1.31647  -0.70843
 Alpha  occ. eigenvalues --   -0.69018  -0.56930  -0.55120  -0.50562  -0.48776
 Alpha virt. eigenvalues --    0.12900   0.16006   0.19769   0.22886   0.53759
 Alpha virt. eigenvalues --    0.55106   0.56764   0.58570   0.66767   0.72526
 Alpha virt. eigenvalues --    0.78262   0.79329   0.80105   0.80759   0.82428

 Mulliken charges:
               1
     1  O   -0.507338
     2  H    0.251724
     3  H    0.259041
     4  O   -0.514460
     5  H    0.247494
     6  H    0.263539
 Sum of Mulliken charges =  -0.00000

 Dipole moment (field-independent basis, Debye):
    X=             -1.9394    Y=             -2.0872    Z=              0.0000  Tot=              2.8491
 Quadrupole moment (field-independent basis, Debye-Ang):
   XX=             -9.8609   YY=             -1.9116   ZZ=            -14.7178
   XY=             -4.3167   XZ=              0.0000   YZ=              0.0000

 Normal termination of Gaussian 16 at Sat Aug 27 10:12:21 2022.
