 Gaussian 16, Revision A.03,
 Gaussian 16:  ES64L-G16RevA.03 25-Dec-2016

 ------------------
 #p CCSD(T)/cc-pVTZ
 ------------------

 ------------
 H2O_H2O_4693
 ------------
 Symbolic Z-matrix:
 Charge =  0 Multiplicity = 1

                         Standard orientation:
 ---------------------------------------------------------------------
 Center     Atomic      Atomic             Coordinates (Angstroms)
 Number     Number       Type             X           Y           Z
 ---------------------------------------------------------------------
      1          8           0        0.052814   -3.251718    0.000000
      2          1           0       -0.747545   -3.821745    0.000000
      3          1           0        0.851595   -3.823955    0.000000
      4          8           0        0.052814    3.322086    0.000000
      5          1           0       -0.167536    4.279662    0.000000
      6          1           0       -0.781544    2.803094    0.000000
 ---------------------------------------------------------------------

 SCF Done:  E(RHF) =  -152.107381098     A.U. after   10 cycles
 E2 =    -0.5258793155D+00 EUMP2 =    -0.15263326041368D+03
 CCSD(T)
 CCSD(T)= -0.15266048123D+03

 The electronic state is 1-A'.
 Alpha  occ. eigenvalues --  -20.55570 -20.55195  -1.32869  -1.32492  -0.70275
 Alpha  occ. eigenvalues --   -0.69893  -0.56315  -0.55937  -0.49980  -0.49605
 Alpha virt. eigenvalues --    0.14102   0.14481   0.20177   0.20575   0.54287
 Alpha virt. eigenvalues --    0.54681   0.57203   0.57579   0.67872   0.68266
 Alpha virt. eigenvalues --    0.78900   0.79270   0.80331   0.80731   0.82257

 Mulliken charges:
               1
     1  O   -0.508727
     2  H    0.253328
     3  H    0.255399
     4  O   -0.508509
     5  H    0.252353
     6  H    0.256156
 Sum of Mulliken charges =  -0.00000

 Dipole moment (field-independent basis, Debye):
    X=             -1.8162    Y=             -1.2278    Z=              0.0000  Tot=              2.1923
 Quadrupole moment (field-independent basis, Debye-Ang):
   XX=             -9.5596   YY=              7.8204   ZZ=            -14.7119
   XY=             -5.4801   XZ=              0.0000   YZ=              0.0000

 Normal termination of Gaussian 16 at Sat Aug 27 08:47:26 2022.
