 Gaussian 16, Revision A.03,
 Gaussian 16:  ES64L-G16RevA.03 25-Dec-2016

 ------------------
 #p CCSD(T)/cc-pVTZ
 ------------------

 ------------
 H2O_H2O_2289
 ------------
 Symbolic Z-matrix:
 Charge =  0 Multiplicity = 1

                         Standard orientation:
 ---------------------------------------------------------------------
 Center     Atomic      Atomic             Coordinates (Angstroms)
 Number     Number       Type             X           Y           Z
 ---------------------------------------------------------------------
      1          8           0        0.045354   -1.989350    0.000000
      2          1           0       -0.755323   -2.558930    0.000000
      3          1           0        0.843816   -2.562031    0.000000
      4          8           0        0.045354    2.033864    0.000000
      5          1           0        0.080897    3.015823    0.000000
      6          1           0       -0.895058    1.749028    0.000000
 ---------------------------------------------------------------------

 SCF Done:  E(RHF) =  -152.106475507     A.U. after   10 cycles
 E2 =    -0.5262163647D+00 EUMP2 =    -0.15263269187133D+03
 CCSD(T)
 CCSD(T)= -0.15265990717D+03

 The electronic state is 1-A'.
 Alpha  occ. eigenvalues --  -20.55182 -20.54493  -1.32465  -1.31773  -0.69878
 Alpha  occ. eigenvalues --   -0.69161  -0.55862  -0.55151  -0.49571  -0.48884
 Alpha virt. eigenvalues --    0.13660   0.15762   0.20260   0.21576   0.53698
 Alpha virt. eigenvalues --    0.55046   0.57549   0.58221   0.64653   0.74829
 Alpha virt. eigenvalues --    0.79144   0.79884   0.80133   0.81501   0.83536

 Mulliken charges:
               1
     1  O   -0.500324
     2  H    0.247056
     3  H    0.254082
     4  O   -0.501114
     5  H    0.244932
     6  H    0.255368
 Sum of Mulliken charges =  -0.00000

 Dipole moment (field-independent basis, Debye):
    X=             -1.5328    Y=             -0.8085    Z=              0.0000  Tot=              1.7329
 Quadrupole moment (field-independent basis, Debye-Ang):
   XX=             -9.1070   YY=              2.0870   ZZ=            -14.7121
   XY=             -2.3765   XZ=              0.0000   YZ=              0.0000

 Normal termination of Gaussian 16 at Sat Aug 27 09:40:41 2022.
