 Gaussian 16, Revision A.03,
 Gaussian 16:  ES64L-G16RevA.03 25-Dec-2016

 ------------------
 #p CCSD(T)/cc-pVTZ
 ------------------

 -----------
 H2O_H2O_580
 -----------
 Symbolic Z-matrix:
 Charge =  0 Multiplicity = 1

                         Standard orientation:
 ---------------------------------------------------------------------
 Center     Atomic      Atomic             Coordinates (Angstroms)
 Number     Number       Type             X           Y           Z
 ---------------------------------------------------------------------
      1          8           0        0.018363   -1.106140    0.000000
      2          1           0       -0.782021   -1.676132    0.000000
      3          1           0        0.817119   -1.678411    0.000000
      4          8           0        0.018363    1.112150    0.000000
      5          1           0        0.593053    1.909168    0.000000
      6          1           0       -0.921954    1.397298    0.000000
 ---------------------------------------------------------------------

 SCF Done:  E(RHF) =  -152.077575095     A.U. after   11 cycles
 E2 =    -0.5316490052D+00 EUMP2 =    -0.15260922409977D+03
 CCSD(T)
 CCSD(T)= -0.15263636794D+03

 The electronic state is 1-A'.
 Alpha  occ. eigenvalues --  -20.52611 -20.52423  -1.31345  -1.29376  -0.68403
 Alpha  occ. eigenvalues --   -0.67156  -0.58654  -0.48649  -0.47331  -0.45981
 Alpha virt. eigenvalues --    0.14542   0.17908   0.20513   0.22732   0.50911
 Alpha virt. eigenvalues --    0.58882   0.58953   0.64473   0.70969   0.76939
 Alpha virt. eigenvalues --    0.77756   0.81555   0.84196   0.86558   0.87114

 Mulliken charges:
               1
     1  O   -0.450916
     2  H    0.219753
     3  H    0.229692
     4  O   -0.439603
     5  H    0.209017
     6  H    0.232057
 Sum of Mulliken charges =  -0.00000

 Dipole moment (field-independent basis, Debye):
    X=             -0.5542    Y=             -0.1205    Z=              0.0000  Tot=              0.5672
 Quadrupole moment (field-independent basis, Debye-Ang):
   XX=             -8.2569   YY=             -4.3964   ZZ=            -14.7384
   XY=             -0.2234   XZ=              0.0000   YZ=              0.0000

 Normal termination of Gaussian 16 at Fri Aug 26 17:49:59 2022.
