 Gaussian 16, Revision A.03,
 Gaussian 16:  ES64L-G16RevA.03 25-Dec-2016

 ------------------
 #p CCSD(T)/cc-pVTZ
 ------------------

 ------------
 H2O_H2O_2803
 ------------
 Symbolic Z-matrix:
 Charge =  0 Multiplicity = 1

                         Standard orientation:
 ---------------------------------------------------------------------
 Center     Atomic      Atomic             Coordinates (Angstroms)
 Number     Number       Type             X           Y           Z
 ---------------------------------------------------------------------
      1          8           0        0.011143   -2.291554    0.000000
      2          1           0       -0.788667   -2.862351    0.000000
      3          1           0        0.810475   -2.863020    0.000000
      4          8           0        0.011143    2.293739    0.000000
      5          1           0        0.684227    3.009604    0.000000
      6          1           0       -0.884318    2.698283    0.000000
 ---------------------------------------------------------------------

 SCF Done:  E(RHF) =  -152.105840519     A.U. after   10 cycles
 E2 =    -0.5260871446D+00 EUMP2 =    -0.15263192766311D+03
 CCSD(T)
 CCSD(T)= -0.15265917573D+03

 The electronic state is 1-A'.
 Alpha  occ. eigenvalues --  -20.54815 -20.54791  -1.32106  -1.32082  -0.69518
 Alpha  occ. eigenvalues --   -0.69493  -0.55509  -0.55416  -0.49208  -0.49182
 Alpha virt. eigenvalues --    0.14352   0.15116   0.20613   0.20858   0.54788
 Alpha virt. eigenvalues --    0.55336   0.57790   0.57913   0.66012   0.71530
 Alpha virt. eigenvalues --    0.79602   0.79755   0.81101   0.81178   0.82359

 Mulliken charges:
               1
     1  O   -0.499565
     2  H    0.249168
     3  H    0.250402
     4  O   -0.499502
     5  H    0.248978
     6  H    0.250519
 Sum of Mulliken charges =  -0.00000

 Dipole moment (field-independent basis, Debye):
    X=             -0.3795    Y=             -0.0388    Z=              0.0000  Tot=              0.3815
 Quadrupole moment (field-independent basis, Debye-Ang):
   XX=             -7.8985   YY=              6.1518   ZZ=            -14.7097
   XY=             -0.5410   XZ=              0.0000   YZ=              0.0000

 Normal termination of Gaussian 16 at Fri Aug 26 16:19:29 2022.
