 Gaussian 16, Revision A.03,
 Gaussian 16:  ES64L-G16RevA.03 25-Dec-2016

 ------------------
 #p CCSD(T)/cc-pVTZ
 ------------------

 -----------
 H2O_H2O_655
 -----------
 Symbolic Z-matrix:
 Charge =  0 Multiplicity = 1

                         Standard orientation:
 ---------------------------------------------------------------------
 Center     Atomic      Atomic             Coordinates (Angstroms)
 Number     Number       Type             X           Y           Z
 ---------------------------------------------------------------------
      1          8           0        0.018363   -1.146027    0.000000
      2          1           0       -0.781993   -1.716059    0.000000
      3          1           0        0.817147   -1.718258    0.000000
      4          8           0        0.018363    1.152038    0.000000
      5          1           0        0.593013    1.949085    0.000000
      6          1           0       -0.921968    1.437141    0.000000
 ---------------------------------------------------------------------

 SCF Done:  E(RHF) =  -152.083419085     A.U. after   11 cycles
 E2 =    -0.5307704249D+00 EUMP2 =    -0.15261418950958D+03
 CCSD(T)
 CCSD(T)= -0.15264139627D+03

 The electronic state is 1-A'.
 Alpha  occ. eigenvalues --  -20.52810 -20.52624  -1.31224  -1.29635  -0.68373
 Alpha  occ. eigenvalues --   -0.67341  -0.58068  -0.48535  -0.48308  -0.46291
 Alpha virt. eigenvalues --    0.14514   0.17769   0.20528   0.22649   0.50905
 Alpha virt. eigenvalues --    0.58850   0.58936   0.63976   0.71411   0.76742
 Alpha virt. eigenvalues --    0.77427   0.81011   0.84145   0.86523   0.86979

 Mulliken charges:
               1
     1  O   -0.455038
     2  H    0.222098
     3  H    0.231565
     4  O   -0.445032
     5  H    0.213604
     6  H    0.232804
 Sum of Mulliken charges =  -0.00000

 Dipole moment (field-independent basis, Debye):
    X=             -0.5607    Y=             -0.1190    Z=              0.0000  Tot=              0.5731
 Quadrupole moment (field-independent basis, Debye-Ang):
   XX=             -8.2330   YY=             -3.9470   ZZ=            -14.7344
   XY=             -0.2409   XZ=              0.0000   YZ=              0.0000

 Normal termination of Gaussian 16 at Fri Aug 26 18:43:53 2022.
