 Gaussian 16, Revision A.03,
 Gaussian 16:  ES64L-G16RevA.03 25-Dec-2016

 ------------------
 #p CCSD(T)/cc-pVTZ
 ------------------

 ------------
 H2O_H2O_2472
 ------------
 Symbolic Z-matrix:
 Charge =  0 Multiplicity = 1

                         Standard orientation:
 ---------------------------------------------------------------------
 Center     Atomic      Atomic             Coordinates (Angstroms)
 Number     Number       Type             X           Y           Z
 ---------------------------------------------------------------------
      1          8           0        0.056740   -2.052802    0.000000
      2          1           0       -0.744154   -2.622078    0.000000
      3          1           0        0.854984   -2.625786    0.000000
      4          8           0        0.056740    2.151856    0.000000
      5          1           0       -0.403129    3.020203    0.000000
      6          1           0       -0.615535    1.435229    0.000000
 ---------------------------------------------------------------------

 SCF Done:  E(RHF) =  -152.108274803     A.U. after   10 cycles
 E2 =    -0.5260832314D+00 EUMP2 =    -0.15263435803486D+03
 CCSD(T)
 CCSD(T)= -0.15266153203D+03

 The electronic state is 1-A'.
 Alpha  occ. eigenvalues --  -20.55928 -20.54455  -1.33208  -1.31754  -0.70614
 Alpha  occ. eigenvalues --   -0.69127  -0.56674  -0.55213  -0.50326  -0.48877
 Alpha virt. eigenvalues --    0.13077   0.15827   0.19888   0.22300   0.54011
 Alpha virt. eigenvalues --    0.54724   0.56961   0.58419   0.66330   0.72739
 Alpha virt. eigenvalues --    0.78531   0.79391   0.80000   0.81255   0.82322

 Mulliken charges:
               1
     1  O   -0.507240
     2  H    0.251113
     3  H    0.258339
     4  O   -0.511596
     5  H    0.247483
     6  H    0.261901
 Sum of Mulliken charges =  -0.00000

 Dipole moment (field-independent basis, Debye):
    X=             -1.9245    Y=             -1.8016    Z=              0.0000  Tot=              2.6362
 Quadrupole moment (field-independent basis, Debye-Ang):
   XX=             -9.8256   YY=             -0.6251   ZZ=            -14.7160
   XY=             -4.1171   XZ=              0.0000   YZ=              0.0000

 Normal termination of Gaussian 16 at Sat Aug 27 10:44:47 2022.
