 Gaussian 16, Revision A.03,
 Gaussian 16:  ES64L-G16RevA.03 25-Dec-2016

 ------------------
 #p CCSD(T)/cc-pVTZ
 ------------------

 ------------
 H2O_H2O_3578
 ------------
 Symbolic Z-matrix:
 Charge =  0 Multiplicity = 1

                         Standard orientation:
 ---------------------------------------------------------------------
 Center     Atomic      Atomic             Coordinates (Angstroms)
 Number     Number       Type             X           Y           Z
 ---------------------------------------------------------------------
      1          8           0        0.011143   -2.703726    0.000000
      2          1           0       -0.788631   -3.274575    0.000000
      3          1           0        0.810511   -3.275142    0.000000
      4          8           0        0.011143    2.705913    0.000000
      5          1           0        0.684182    3.421821    0.000000
      6          1           0       -0.884344    3.110400    0.000000
 ---------------------------------------------------------------------

 SCF Done:  E(RHF) =  -152.106449305     A.U. after   10 cycles
 E2 =    -0.5259800235D+00 EUMP2 =    -0.15263242932853D+03
 CCSD(T)
 CCSD(T)= -0.15265966885D+03

 The electronic state is 1-A'.
 Alpha  occ. eigenvalues --  -20.55038 -20.55021  -1.32333  -1.32315  -0.69741
 Alpha  occ. eigenvalues --   -0.69723  -0.55735  -0.55716  -0.49437  -0.49420
 Alpha virt. eigenvalues --    0.14468   0.14666   0.20556   0.20630   0.54801
 Alpha virt. eigenvalues --    0.54879   0.57656   0.57694   0.68127   0.68955
 Alpha virt. eigenvalues --    0.79439   0.79458   0.80878   0.80924   0.82781

 Mulliken charges:
               1
     1  O   -0.503222
     2  H    0.251220
     3  H    0.252003
     4  O   -0.503194
     5  H    0.251073
     6  H    0.252121
 Sum of Mulliken charges =   0.00000

 Dipole moment (field-independent basis, Debye):
    X=             -0.3816    Y=             -0.0384    Z=              0.0000  Tot=              0.3835
 Quadrupole moment (field-independent basis, Debye-Ang):
   XX=             -7.8875   YY=              9.4586   ZZ=            -14.7102
   XY=             -0.6959   XZ=              0.0000   YZ=              0.0000

 Normal termination of Gaussian 16 at Sat Aug 27 01:38:38 2022.
