 Gaussian 16, Revision A.03,
 Gaussian 16:  ES64L-G16RevA.03 25-Dec-2016

 ------------------
 #p CCSD(T)/cc-pVTZ
 ------------------

 ------------
 H2O_H2O_2411
 ------------
 Symbolic Z-matrix:
 Charge =  0 Multiplicity = 1

                         Standard orientation:
 ---------------------------------------------------------------------
 Center     Atomic      Atomic             Coordinates (Angstroms)
 Number     Number       Type             X           Y           Z
 ---------------------------------------------------------------------
      1          8           0        0.037679   -2.064674    0.000000
      2          1           0       -0.762781   -2.634559    0.000000
      3          1           0        0.836359   -2.637052    0.000000
      4          8           0        0.037679    2.092903    0.000000
      5          1           0        0.263747    3.049146    0.000000
      6          1           0       -0.940196    1.996634    0.000000
 ---------------------------------------------------------------------

 SCF Done:  E(RHF) =  -152.106077086     A.U. after   10 cycles
 E2 =    -0.5261783460D+00 EUMP2 =    -0.15263225543183D+03
 CCSD(T)
 CCSD(T)= -0.15265948658D+03

 The electronic state is 1-A'.
 Alpha  occ. eigenvalues --  -20.54988 -20.54591  -1.32274  -1.31873  -0.69688
 Alpha  occ. eigenvalues --   -0.69271  -0.55667  -0.55227  -0.49378  -0.48979
 Alpha virt. eigenvalues --    0.13905   0.15565   0.20400   0.21258   0.54005
 Alpha virt. eigenvalues --    0.55344   0.57687   0.58080   0.64535   0.73959
 Alpha virt. eigenvalues --    0.79369   0.80012   0.80498   0.81288   0.82780

 Mulliken charges:
               1
     1  O   -0.499703
     2  H    0.247302
     3  H    0.252716
     4  O   -0.499484
     5  H    0.245863
     6  H    0.253306
 Sum of Mulliken charges =  -0.00000

 Dipole moment (field-independent basis, Debye):
    X=             -1.2765    Y=             -0.5090    Z=              0.0000  Tot=              1.3742
 Quadrupole moment (field-independent basis, Debye-Ang):
   XX=             -8.7104   YY=              3.3236   ZZ=            -14.7109
   XY=             -1.8668   XZ=              0.0000   YZ=              0.0000

 Normal termination of Gaussian 16 at Sat Aug 27 10:24:39 2022.
