 Gaussian 16, Revision A.03,
 Gaussian 16:  ES64L-G16RevA.03 25-Dec-2016

 ------------------
 #p CCSD(T)/cc-pVTZ
 ------------------

 ------------
 H2O_H2O_1973
 ------------
 Symbolic Z-matrix:
 Charge =  0 Multiplicity = 1

                         Standard orientation:
 ---------------------------------------------------------------------
 Center     Atomic      Atomic             Coordinates (Angstroms)
 Number     Number       Type             X           Y           Z
 ---------------------------------------------------------------------
      1          8           0        0.057133   -1.782866    0.000000
      2          1           0       -0.743961   -2.351860    0.000000
      3          1           0        0.855175   -2.356133    0.000000
      4          8           0        0.057133    1.889317    0.000000
      5          1           0       -0.458248    2.725910    0.000000
      6          1           0       -0.567100    1.130476    0.000000
 ---------------------------------------------------------------------

 SCF Done:  E(RHF) =  -152.109148581     A.U. after   10 cycles
 E2 =    -0.5263810954D+00 EUMP2 =    -0.15263552967674D+03
 CCSD(T)
 CCSD(T)= -0.15266266332D+03

 The electronic state is 1-A'.
 Alpha  occ. eigenvalues --  -20.56233 -20.54025  -1.33498  -1.31329  -0.70903
 Alpha  occ. eigenvalues --   -0.68698  -0.56982  -0.54805  -0.50622  -0.48461
 Alpha virt. eigenvalues --    0.12948   0.16450   0.19728   0.23899   0.53357
 Alpha virt. eigenvalues --    0.55537   0.56628   0.58337   0.66654   0.74252
 Alpha virt. eigenvalues --    0.77779   0.78866   0.79313   0.80609   0.84297

 Mulliken charges:
               1
     1  O   -0.501555
     2  H    0.249024
     3  H    0.258575
     4  O   -0.514600
     5  H    0.244414
     6  H    0.264141
 Sum of Mulliken charges =  -0.00000

 Dipole moment (field-independent basis, Debye):
    X=             -1.9178    Y=             -1.9945    Z=              0.0000  Tot=              2.7670
 Quadrupole moment (field-independent basis, Debye-Ang):
   XX=             -9.8516   YY=             -2.3089   ZZ=            -14.7198
   XY=             -3.7696   XZ=              0.0000   YZ=              0.0000

 Normal termination of Gaussian 16 at Sat Aug 27 07:51:49 2022.
