 Gaussian 16, Revision A.03,
 Gaussian 16:  ES64L-G16RevA.03 25-Dec-2016

 ------------------
 #p CCSD(T)/cc-pVTZ
 ------------------

 ------------
 H2O_H2O_1274
 ------------
 Symbolic Z-matrix:
 Charge =  0 Multiplicity = 1

                         Standard orientation:
 ---------------------------------------------------------------------
 Center     Atomic      Atomic             Coordinates (Angstroms)
 Number     Number       Type             X           Y           Z
 ---------------------------------------------------------------------
      1          8           0        0.057305   -1.406565    0.000000
      2          1           0       -0.744180   -1.975008    0.000000
      3          1           0        0.854953   -1.980380    0.000000
      4          8           0        0.057305    1.520407    0.000000
      5          1           0       -0.511138    2.321892    0.000000
      6          1           0       -0.516510    0.722759    0.000000
 ---------------------------------------------------------------------

 SCF Done:  E(RHF) =  -152.109576447     A.U. after   10 cycles
 E2 =    -0.5278447666D+00 EUMP2 =    -0.15263742121352D+03
 CCSD(T)
 CCSD(T)= -0.15266445044D+03

 The electronic state is 1-A'.
 Alpha  occ. eigenvalues --  -20.56895 -20.52861  -1.34264  -1.30241  -0.71634
 Alpha  occ. eigenvalues --   -0.68000  -0.57505  -0.53750  -0.51367  -0.47368
 Alpha virt. eigenvalues --    0.12854   0.17566   0.19433   0.26476   0.51306
 Alpha virt. eigenvalues --    0.56022   0.57047   0.59257   0.69529   0.74188
 Alpha virt. eigenvalues --    0.74485   0.78266   0.82126   0.83785   0.83872

 Mulliken charges:
               1
     1  O   -0.490198
     2  H    0.246095
     3  H    0.261248
     4  O   -0.521883
     5  H    0.235440
     6  H    0.269298
 Sum of Mulliken charges =  -0.00000

 Dipole moment (field-independent basis, Debye):
    X=             -1.8654    Y=             -2.2961    Z=              0.0000  Tot=              2.9584
 Quadrupole moment (field-independent basis, Debye-Ang):
   XX=             -9.8580   YY=             -4.4418   ZZ=            -14.7281
   XY=             -3.2110   XZ=              0.0000   YZ=              0.0000

 Normal termination of Gaussian 16 at Sat Aug 27 03:32:51 2022.
