 Gaussian 16, Revision A.03,
 Gaussian 16:  ES64L-G16RevA.03 25-Dec-2016

 ------------------
 #p CCSD(T)/cc-pVTZ
 ------------------

 -----------
 H2O_H2O_872
 -----------
 Symbolic Z-matrix:
 Charge =  0 Multiplicity = 1

                         Standard orientation:
 ---------------------------------------------------------------------
 Center     Atomic      Atomic             Coordinates (Angstroms)
 Number     Number       Type             X           Y           Z
 ---------------------------------------------------------------------
      1          8           0        0.056818   -1.201957    0.000000
      2          1           0       -0.744972   -1.769970    0.000000
      3          1           0        0.854158   -1.776199    0.000000
      4          8           0        0.056818    1.300832    0.000000
      5          1           0       -0.401682    2.169904    0.000000
      6          1           0       -0.616586    0.585267    0.000000
 ---------------------------------------------------------------------

 SCF Done:  E(RHF) =  -152.101060451     A.U. after   11 cycles
 E2 =    -0.5300927783D+00 EUMP2 =    -0.15263115322972D+03
 CCSD(T)
 CCSD(T)= -0.15265808865D+03

 The electronic state is 1-A'.
 Alpha  occ. eigenvalues --  -20.56562 -20.51999  -1.34364  -1.29446  -0.71715
 Alpha  occ. eigenvalues --   -0.68273  -0.56237  -0.53022  -0.51374  -0.46512
 Alpha virt. eigenvalues --    0.13076   0.18138   0.19439   0.26125   0.50929
 Alpha virt. eigenvalues --    0.56165   0.60025   0.61118   0.71360   0.73668
 Alpha virt. eigenvalues --    0.75842   0.82220   0.82720   0.83747   0.86847

 Mulliken charges:
               1
     1  O   -0.462909
     2  H    0.234019
     3  H    0.252641
     4  O   -0.508756
     5  H    0.220159
     6  H    0.264845
 Sum of Mulliken charges =   0.00000

 Dipole moment (field-independent basis, Debye):
    X=             -1.7805    Y=             -2.0870    Z=              0.0000  Tot=              2.7433
 Quadrupole moment (field-independent basis, Debye-Ang):
   XX=             -9.8320   YY=             -4.9717   ZZ=            -14.7178
   XY=             -2.5267   XZ=              0.0000   YZ=              0.0000

 Normal termination of Gaussian 16 at Fri Aug 26 20:44:53 2022.
