 Gaussian 16, Revision A.03,
 Gaussian 16:  ES64L-G16RevA.03 25-Dec-2016

 ------------------
 #p CCSD(T)/cc-pVTZ
 ------------------

 ------------
 H2O_H2O_1005
 ------------
 Symbolic Z-matrix:
 Charge =  0 Multiplicity = 1

                         Standard orientation:
 ---------------------------------------------------------------------
 Center     Atomic      Atomic             Coordinates (Angstroms)
 Number     Number       Type             X           Y           Z
 ---------------------------------------------------------------------
      1          8           0        0.018362   -1.332166    0.000000
      2          1           0       -0.781885   -1.902351    0.000000
      3          1           0        0.817256   -1.904244    0.000000
      4          8           0        0.018362    1.338185    0.000000
      5          1           0        0.592860    2.135341    0.000000
      6          1           0       -0.922023    1.623106    0.000000
 ---------------------------------------------------------------------

 SCF Done:  E(RHF) =  -152.097296222     A.U. after   11 cycles
 E2 =    -0.5283715654D+00 EUMP2 =    -0.15262566778706D+03
 CCSD(T)
 CCSD(T)= -0.15265297314D+03

 The electronic state is 1-A'.
 Alpha  occ. eigenvalues --  -20.53532 -20.53365  -1.31143  -1.30540  -0.68502
 Alpha  occ. eigenvalues --   -0.68057  -0.56327  -0.51450  -0.48402  -0.47391
 Alpha virt. eigenvalues --    0.14401   0.17180   0.20534   0.22265   0.51241
 Alpha virt. eigenvalues --    0.58587   0.58803   0.61588   0.71221   0.76583
 Alpha virt. eigenvalues --    0.76814   0.78643   0.81180   0.83589   0.86267

 Mulliken charges:
               1
     1  O   -0.466746
     2  H    0.229239
     3  H    0.236992
     4  O   -0.461261
     5  H    0.226591
     6  H    0.235186
 Sum of Mulliken charges =  -0.00000

 Dipole moment (field-independent basis, Debye):
    X=             -0.5855    Y=             -0.1152    Z=              0.0000  Tot=              0.5967
 Quadrupole moment (field-independent basis, Debye-Ang):
   XX=             -8.1505   YY=             -2.0524   ZZ=            -14.7179
   XY=             -0.3379   XZ=              0.0000   YZ=              0.0000

 Normal termination of Gaussian 16 at Sat Aug 27 01:18:55 2022.
