 Gaussian 16, Revision A.03,
 Gaussian 16:  ES64L-G16RevA.03 25-Dec-2016

 ------------------
 #p CCSD(T)/cc-pVTZ
 ------------------

 ------------
 H2O_H2O_3368
 ------------
 Symbolic Z-matrix:
 Charge =  0 Multiplicity = 1

                         Standard orientation:
 ---------------------------------------------------------------------
 Center     Atomic      Atomic             Coordinates (Angstroms)
 Number     Number       Type             X           Y           Z
 ---------------------------------------------------------------------
      1          8           0        0.052828   -2.547056    0.000000
      2          1           0       -0.747747   -3.116780    0.000000
      3          1           0        0.851393   -3.119593    0.000000
      4          8           0        0.052828    2.617383    0.000000
      5          1           0       -0.167162    3.575043    0.000000
      6          1           0       -0.781726    2.098707    0.000000
 ---------------------------------------------------------------------

 SCF Done:  E(RHF) =  -152.107312691     A.U. after   10 cycles
 E2 =    -0.5259288593D+00 EUMP2 =    -0.15263324155057D+03
 CCSD(T)
 CCSD(T)= -0.15266046008D+03

 The electronic state is 1-A'.
 Alpha  occ. eigenvalues --  -20.55536 -20.54906  -1.32833  -1.32201  -0.70240
 Alpha  occ. eigenvalues --   -0.69594  -0.56275  -0.55640  -0.49943  -0.49314
 Alpha virt. eigenvalues --    0.13881   0.14938   0.20162   0.20955   0.54273
 Alpha virt. eigenvalues --    0.54938   0.57234   0.57817   0.67309   0.69363
 Alpha virt. eigenvalues --    0.78939   0.79553   0.80298   0.80788   0.82709

 Mulliken charges:
               1
     1  O   -0.508203
     2  H    0.252053
     3  H    0.256237
     4  O   -0.507748
     5  H    0.250110
     6  H    0.257551
 Sum of Mulliken charges =   0.00000

 Dipole moment (field-independent basis, Debye):
    X=             -1.8081    Y=             -1.2422    Z=              0.0000  Tot=              2.1937
 Quadrupole moment (field-independent basis, Debye-Ang):
   XX=             -9.5589   YY=              3.9161   ZZ=            -14.7122
   XY=             -4.2126   XZ=              0.0000   YZ=              0.0000

 Normal termination of Gaussian 16 at Fri Aug 26 21:45:24 2022.
