 Gaussian 16, Revision A.03,
 Gaussian 16:  ES64L-G16RevA.03 25-Dec-2016

 ------------------
 #p CCSD(T)/cc-pVTZ
 ------------------

 ------------
 H2O_H2O_2154
 ------------
 Symbolic Z-matrix:
 Charge =  0 Multiplicity = 1

                         Standard orientation:
 ---------------------------------------------------------------------
 Center     Atomic      Atomic             Coordinates (Angstroms)
 Number     Number       Type             X           Y           Z
 ---------------------------------------------------------------------
      1          8           0        0.014783   -1.944944    0.000000
      2          1           0       -0.785161   -2.515553    0.000000
      3          1           0        0.813981   -2.516598    0.000000
      4          8           0        0.014783    1.948816    0.000000
      5          1           0        0.639786    2.707024    0.000000
      6          1           0       -0.905138    2.294145    0.000000
 ---------------------------------------------------------------------

 SCF Done:  E(RHF) =  -152.105037122     A.U. after   10 cycles
 E2 =    -0.5263489217D+00 EUMP2 =    -0.15263138604378D+03
 CCSD(T)
 CCSD(T)= -0.15265863296D+03

 The electronic state is 1-A'.
 Alpha  occ. eigenvalues --  -20.54564 -20.54502  -1.31847  -1.31782  -0.69266
 Alpha  occ. eigenvalues --   -0.69197  -0.55353  -0.54896  -0.48955  -0.48867
 Alpha virt. eigenvalues --    0.14167   0.15720   0.20603   0.21194   0.54098
 Alpha virt. eigenvalues --    0.56283   0.57911   0.58202   0.62039   0.75036
 Alpha virt. eigenvalues --    0.79449   0.80437   0.80463   0.81143   0.82321

 Mulliken charges:
               1
     1  O   -0.493040
     2  H    0.245304
     3  H    0.247805
     4  O   -0.492956
     5  H    0.244932
     6  H    0.247954
 Sum of Mulliken charges =  -0.00000

 Dipole moment (field-independent basis, Debye):
    X=             -0.4986    Y=             -0.0705    Z=              0.0000  Tot=              0.5035
 Quadrupole moment (field-independent basis, Debye-Ang):
   XX=             -7.9748   YY=              3.2875   ZZ=            -14.7095
   XY=             -0.5547   XZ=              0.0000   YZ=              0.0000

 Normal termination of Gaussian 16 at Sat Aug 27 08:53:33 2022.
