 Gaussian 16, Revision A.03,
 Gaussian 16:  ES64L-G16RevA.03 25-Dec-2016

 ------------------
 #p CCSD(T)/cc-pVTZ
 ------------------

 ------------
 H2O_H2O_4564
 ------------
 Symbolic Z-matrix:
 Charge =  0 Multiplicity = 1

                         Standard orientation:
 ---------------------------------------------------------------------
 Center     Atomic      Atomic             Coordinates (Angstroms)
 Number     Number       Type             X           Y           Z
 ---------------------------------------------------------------------
      1          8           0        0.045338   -3.199243    0.000000
      2          1           0       -0.754924   -3.769407    0.000000
      3          1           0        0.844217   -3.771343    0.000000
      4          8           0        0.045338    3.243823    0.000000
      5          1           0        0.080166    4.225808    0.000000
      6          1           0       -0.894866    2.958302    0.000000
 ---------------------------------------------------------------------

 SCF Done:  E(RHF) =  -152.107180914     A.U. after   10 cycles
 E2 =    -0.5258982868D+00 EUMP2 =    -0.15263307920122D+03
 CCSD(T)
 CCSD(T)= -0.15266030420D+03

 The electronic state is 1-A'.
 Alpha  occ. eigenvalues --  -20.55435 -20.55187  -1.32733  -1.32484  -0.70140
 Alpha  occ. eigenvalues --   -0.69886  -0.56170  -0.55921  -0.49843  -0.49595
 Alpha virt. eigenvalues --    0.14219   0.14473   0.20285   0.20547   0.54425
 Alpha virt. eigenvalues --    0.54689   0.57323   0.57572   0.68031   0.68296
 Alpha virt. eigenvalues --    0.79037   0.79282   0.80472   0.80740   0.82398

 Mulliken charges:
               1
     1  O   -0.507541
     2  H    0.252808
     3  H    0.254734
     4  O   -0.507371
     5  H    0.252095
     6  H    0.255276
 Sum of Mulliken charges =  -0.00000

 Dipole moment (field-independent basis, Debye):
    X=             -1.5585    Y=             -0.7781    Z=              0.0000  Tot=              1.7419
 Quadrupole moment (field-independent basis, Debye-Ang):
   XX=             -9.0967   YY=              9.9427   ZZ=            -14.7115
   XY=             -4.2343   XZ=              0.0000   YZ=              0.0000

 Normal termination of Gaussian 16 at Sat Aug 27 08:04:37 2022.
