 Gaussian 16, Revision A.03,
 Gaussian 16:  ES64L-G16RevA.03 25-Dec-2016

 ------------------
 #p CCSD(T)/cc-pVTZ
 ------------------

 ------------
 H2O_H2O_1779
 ------------
 Symbolic Z-matrix:
 Charge =  0 Multiplicity = 1

                         Standard orientation:
 ---------------------------------------------------------------------
 Center     Atomic      Atomic             Coordinates (Angstroms)
 Number     Number       Type             X           Y           Z
 ---------------------------------------------------------------------
      1          8           0        0.014783   -1.745506    0.000000
      2          1           0       -0.785203   -2.316056    0.000000
      3          1           0        0.813938   -2.317220    0.000000
      4          8           0        0.014783    1.749377    0.000000
      5          1           0        0.639843    2.507537    0.000000
      6          1           0       -0.905112    2.094774    0.000000
 ---------------------------------------------------------------------

 SCF Done:  E(RHF) =  -152.104105318     A.U. after   10 cycles
 E2 =    -0.5266702104D+00 EUMP2 =    -0.15263077552880D+03
 CCSD(T)
 CCSD(T)= -0.15265802963D+03

 The electronic state is 1-A'.
 Alpha  occ. eigenvalues --  -20.54339 -20.54263  -1.31628  -1.31530  -0.69051
 Alpha  occ. eigenvalues --   -0.68954  -0.55344  -0.54318  -0.48761  -0.48583
 Alpha virt. eigenvalues --    0.14202   0.16128   0.20578   0.21469   0.53222
 Alpha virt. eigenvalues --    0.57280   0.58039   0.58425   0.61645   0.76043
 Alpha virt. eigenvalues --    0.78956   0.79311   0.80329   0.81265   0.83935

 Mulliken charges:
               1
     1  O   -0.485251
     2  H    0.241060
     3  H    0.244337
     4  O   -0.485217
     5  H    0.240680
     6  H    0.244391
 Sum of Mulliken charges =  -0.00000

 Dipole moment (field-independent basis, Debye):
    X=             -0.4936    Y=             -0.0719    Z=              0.0000  Tot=              0.4988
 Quadrupole moment (field-independent basis, Debye-Ang):
   XX=             -7.9929   YY=              1.6390   ZZ=            -14.7091
   XY=             -0.4571   XZ=              0.0000   YZ=              0.0000

 Normal termination of Gaussian 16 at Sat Aug 27 06:44:28 2022.
