 Gaussian 16, Revision A.03,
 Gaussian 16:  ES64L-G16RevA.03 25-Dec-2016

 ------------------
 #p CCSD(T)/cc-pVTZ
 ------------------

 ------------
 H2O_H2O_4520
 ------------
 Symbolic Z-matrix:
 Charge =  0 Multiplicity = 1

                         Standard orientation:
 ---------------------------------------------------------------------
 Center     Atomic      Atomic             Coordinates (Angstroms)
 Number     Number       Type             X           Y           Z
 ---------------------------------------------------------------------
      1          8           0        0.055230   -3.150973    0.000000
      2          1           0       -0.745190   -3.720915    0.000000
      3          1           0        0.853951   -3.723293    0.000000
      4          8           0        0.055230    3.235471    0.000000
      5          1           0       -0.288128    4.156130    0.000000
      6          1           0       -0.704313    2.612093    0.000000
 ---------------------------------------------------------------------

 SCF Done:  E(RHF) =  -152.107482188     A.U. after   10 cycles
 E2 =    -0.5258726827D+00 EUMP2 =    -0.15263335487085D+03
 CCSD(T)
 CCSD(T)= -0.15266057339D+03

 The electronic state is 1-A'.
 Alpha  occ. eigenvalues --  -20.55637 -20.55159  -1.32937  -1.32458  -0.70343
 Alpha  occ. eigenvalues --   -0.69857  -0.56387  -0.55905  -0.50049  -0.49571
 Alpha virt. eigenvalues --    0.14035   0.14529   0.20122   0.20634   0.54217
 Alpha virt. eigenvalues --    0.54716   0.57143   0.57621   0.67778   0.68305
 Alpha virt. eigenvalues --    0.78831   0.79301   0.80260   0.80764   0.82195

 Mulliken charges:
               1
     1  O   -0.509332
     2  H    0.253510
     3  H    0.255823
     4  O   -0.509047
     5  H    0.252268
     6  H    0.256777
 Sum of Mulliken charges =  -0.00000

 Dipole moment (field-independent basis, Debye):
    X=             -1.8987    Y=             -1.4761    Z=              0.0000  Tot=              2.4049
 Quadrupole moment (field-independent basis, Debye-Ang):
   XX=             -9.7242   YY=              5.8661   ZZ=            -14.7122
   XY=             -5.7998   XZ=              0.0000   YZ=              0.0000

 Normal termination of Gaussian 16 at Sat Aug 27 07:47:22 2022.
