 Gaussian 16, Revision A.03,
 Gaussian 16:  ES64L-G16RevA.03 25-Dec-2016

 ------------------
 #p CCSD(T)/cc-pVTZ
 ------------------

 ------------
 H2O_H2O_1785
 ------------
 Symbolic Z-matrix:
 Charge =  0 Multiplicity = 1

                         Standard orientation:
 ---------------------------------------------------------------------
 Center     Atomic      Atomic             Coordinates (Angstroms)
 Number     Number       Type             X           Y           Z
 ---------------------------------------------------------------------
      1          8           0        0.034788   -1.734852    0.000000
      2          1           0       -0.765760   -2.304613    0.000000
      3          1           0        0.833380   -2.307354    0.000000
      4          8           0        0.034788    1.758338    0.000000
      5          1           0        0.323059    2.697703    0.000000
      6          1           0       -0.947294    1.726382    0.000000
 ---------------------------------------------------------------------

 SCF Done:  E(RHF) =  -152.104981760     A.U. after   10 cycles
 E2 =    -0.5266438943D+00 EUMP2 =    -0.15263162565396D+03
 CCSD(T)
 CCSD(T)= -0.15265885514D+03

 The electronic state is 1-A'.
 Alpha  occ. eigenvalues --  -20.54692 -20.54220  -1.31971  -1.31486  -0.69394
 Alpha  occ. eigenvalues --   -0.68888  -0.55515  -0.54539  -0.49080  -0.48579
 Alpha virt. eigenvalues --    0.13943   0.16199   0.20404   0.21746   0.53104
 Alpha virt. eigenvalues --    0.55998   0.57902   0.58502   0.63233   0.76740
 Alpha virt. eigenvalues --    0.78763   0.78898   0.80239   0.81163   0.84398

 Mulliken charges:
               1
     1  O   -0.488585
     2  H    0.240912
     3  H    0.248623
     4  O   -0.489055
     5  H    0.239034
     6  H    0.249071
 Sum of Mulliken charges =  -0.00000

 Dipole moment (field-independent basis, Debye):
    X=             -1.1604    Y=             -0.4362    Z=              0.0000  Tot=              1.2397
 Quadrupole moment (field-independent basis, Debye-Ang):
   XX=             -8.6014   YY=              1.0550   ZZ=            -14.7109
   XY=             -1.2863   XZ=              0.0000   YZ=              0.0000

 Normal termination of Gaussian 16 at Sat Aug 27 06:46:32 2022.
