 Gaussian 16, Revision A.03,
 Gaussian 16:  ES64L-G16RevA.03 25-Dec-2016

 ------------------
 #p CCSD(T)/cc-pVTZ
 ------------------

 -----------
 H2O_H2O_566
 -----------
 Symbolic Z-matrix:
 Charge =  0 Multiplicity = 1

                         Standard orientation:
 ---------------------------------------------------------------------
 Center     Atomic      Atomic             Coordinates (Angstroms)
 Number     Number       Type             X           Y           Z
 ---------------------------------------------------------------------
      1          8           0        0.049572   -1.065295    0.000000
      2          1           0       -0.752216   -1.633310    0.000000
      3          1           0        0.846914   -1.639536    0.000000
      4          8           0        0.049572    1.122023    0.000000
      5          1           0       -0.041448    2.100399    0.000000
      6          1           0       -0.846405    0.718625    0.000000
 ---------------------------------------------------------------------

 SCF Done:  E(RHF) =  -152.080922728     A.U. after   11 cycles
 E2 =    -0.5324184112D+00 EUMP2 =    -0.15261334113944D+03
 CCSD(T)
 CCSD(T)= -0.15264033679D+03

 The electronic state is 1-A'.
 Alpha  occ. eigenvalues --  -20.54443 -20.52114  -1.33074  -1.29235  -0.70399
 Alpha  occ. eigenvalues --   -0.68167  -0.56455  -0.50107  -0.50051  -0.46100
 Alpha virt. eigenvalues --    0.13819   0.18049   0.19928   0.24145   0.52534
 Alpha virt. eigenvalues --    0.57249   0.59277   0.62148   0.71613   0.75141
 Alpha virt. eigenvalues --    0.79241   0.83043   0.83076   0.84735   0.87850

 Mulliken charges:
               1
     1  O   -0.445979
     2  H    0.216479
     3  H    0.237068
     4  O   -0.445585
     5  H    0.192048
     6  H    0.245969
 Sum of Mulliken charges =  -0.00000

 Dipole moment (field-independent basis, Debye):
    X=             -1.4827    Y=             -1.1543    Z=              0.0000  Tot=              1.8791
 Quadrupole moment (field-independent basis, Debye-Ang):
   XX=             -9.4517   YY=             -5.0459   ZZ=            -14.7169
   XY=             -1.2979   XZ=              0.0000   YZ=              0.0000

 Normal termination of Gaussian 16 at Fri Aug 26 17:42:26 2022.
