 Gaussian 16, Revision A.03,
 Gaussian 16:  ES64L-G16RevA.03 25-Dec-2016

 ------------------
 #p CCSD(T)/cc-pVTZ
 ------------------

 ------------
 H2O_H2O_4260
 ------------
 Symbolic Z-matrix:
 Charge =  0 Multiplicity = 1

                         Standard orientation:
 ---------------------------------------------------------------------
 Center     Atomic      Atomic             Coordinates (Angstroms)
 Number     Number       Type             X           Y           Z
 ---------------------------------------------------------------------
      1          8           0        0.034780   -3.051121    0.000000
      2          1           0       -0.765349   -3.621471    0.000000
      3          1           0        0.833792   -3.623034    0.000000
      4          8           0        0.034780    3.074657    0.000000
      5          1           0        0.322358    4.014235    0.000000
      6          1           0       -0.947279    3.041978    0.000000
 ---------------------------------------------------------------------

 SCF Done:  E(RHF) =  -152.106948785     A.U. after   10 cycles
 E2 =    -0.5259223011D+00 EUMP2 =    -0.15263287108579D+03
 CCSD(T)
 CCSD(T)= -0.15266010081D+03

 The electronic state is 1-A'.
 Alpha  occ. eigenvalues --  -20.55293 -20.55148  -1.32589  -1.32443  -0.69996
 Alpha  occ. eigenvalues --   -0.69847  -0.56015  -0.55870  -0.49697  -0.49552
 Alpha virt. eigenvalues --    0.14337   0.14499   0.20395   0.20551   0.54570
 Alpha virt. eigenvalues --    0.54729   0.57449   0.57595   0.68184   0.68383
 Alpha virt. eigenvalues --    0.79182   0.79325   0.80622   0.80781   0.82551

 Mulliken charges:
               1
     1  O   -0.506169
     2  H    0.252224
     3  H    0.253945
     4  O   -0.506036
     5  H    0.251720
     6  H    0.254316
 Sum of Mulliken charges =  -0.00000

 Dipole moment (field-independent basis, Debye):
    X=             -1.1945    Y=             -0.4113    Z=              0.0000  Tot=              1.2633
 Quadrupole moment (field-independent basis, Debye-Ang):
   XX=             -8.5646   YY=             10.6740   ZZ=            -14.7110
   XY=             -2.8291   XZ=              0.0000   YZ=              0.0000

 Normal termination of Gaussian 16 at Sat Aug 27 06:18:38 2022.
