 Gaussian 16, Revision A.03,
 Gaussian 16:  ES64L-G16RevA.03 25-Dec-2016

 ------------------
 #p CCSD(T)/cc-pVTZ
 ------------------

 -----------
 H2O_H2O_161
 -----------
 Symbolic Z-matrix:
 Charge =  0 Multiplicity = 1

                         Standard orientation:
 ---------------------------------------------------------------------
 Center     Atomic      Atomic             Coordinates (Angstroms)
 Number     Number       Type             X           Y           Z
 ---------------------------------------------------------------------
      1          8           0        0.037709   -0.868125    0.000000
      2          1           0       -0.763955   -1.436315    0.000000
      3          1           0        0.835176   -1.442191    0.000000
      4          8           0        0.037709    0.896195    0.000000
      5          1           0        0.265799    1.851957    0.000000
      6          1           0       -0.940368    0.801994    0.000000
 ---------------------------------------------------------------------

 SCF Done:  E(RHF) =  -151.994929026     A.U. after   11 cycles
 E2 =    -0.5426998841D+00 EUMP2 =    -0.15253762891002D+03
 CCSD(T)
 CCSD(T)= -0.15256351338D+03

 The electronic state is 1-A'.
 Alpha  occ. eigenvalues --  -20.52350 -20.51418  -1.35139  -1.27393  -0.71581
 Alpha  occ. eigenvalues --   -0.68346  -0.60334  -0.51570  -0.43948  -0.40078
 Alpha virt. eigenvalues --    0.14226   0.18791   0.19906   0.23630   0.53584
 Alpha virt. eigenvalues --    0.56362   0.58620   0.65099   0.72167   0.77728
 Alpha virt. eigenvalues --    0.80020   0.82354   0.83110   0.84869   0.88739

 Mulliken charges:
               1
     1  O   -0.389299
     2  H    0.183270
     3  H    0.206263
     4  O   -0.366333
     5  H    0.136748
     6  H    0.229350
 Sum of Mulliken charges =  -0.00000

 Dipole moment (field-independent basis, Debye):
    X=             -1.0399    Y=             -0.6333    Z=              0.0000  Tot=              1.2175
 Quadrupole moment (field-independent basis, Debye-Ang):
   XX=             -9.0036   YY=             -7.5847   ZZ=            -14.7002
   XY=             -0.5154   XZ=              0.0000   YZ=              0.0000

 15692\MP4DQ=-152.5430212\MP4SDQ=-152.546898\CCSD=-152.5458945\CCSD(T)=
 Normal termination of Gaussian 16 at Fri Aug 26 13:29:41 2022.
