 Gaussian 16, Revision A.03,
 Gaussian 16:  ES64L-G16RevA.03 25-Dec-2016

 ------------------
 #p CCSD(T)/cc-pVTZ
 ------------------

 ------------
 H2O_H2O_4221
 ------------
 Symbolic Z-matrix:
 Charge =  0 Multiplicity = 1

                         Standard orientation:
 ---------------------------------------------------------------------
 Center     Atomic      Atomic             Coordinates (Angstroms)
 Number     Number       Type             X           Y           Z
 ---------------------------------------------------------------------
      1          8           0        0.056089   -2.987476    0.000000
      2          1           0       -0.744389   -3.557337    0.000000
      3          1           0        0.854751   -3.559879    0.000000
      4          8           0        0.056089    3.079240    0.000000
      5          1           0       -0.346656    3.975512    0.000000
      6          1           0       -0.661127    2.407594    0.000000
 ---------------------------------------------------------------------

 SCF Done:  E(RHF) =  -152.107553076     A.U. after   10 cycles
 E2 =    -0.5258719882D+00 EUMP2 =    -0.15263342506470D+03
 CCSD(T)
 CCSD(T)= -0.15266064168D+03

 The electronic state is 1-A'.
 Alpha  occ. eigenvalues --  -20.55679 -20.55100  -1.32978  -1.32398  -0.70384
 Alpha  occ. eigenvalues --   -0.69796  -0.56432  -0.55848  -0.50091  -0.49513
 Alpha virt. eigenvalues --    0.13974   0.14611   0.20088   0.20719   0.54173
 Alpha virt. eigenvalues --    0.54775   0.57106   0.57683   0.67676   0.68412
 Alpha virt. eigenvalues --    0.78790   0.79357   0.80216   0.80794   0.82209

 Mulliken charges:
               1
     1  O   -0.509761
     2  H    0.253533
     3  H    0.256233
     4  O   -0.509381
     5  H    0.251972
     6  H    0.257404
 Sum of Mulliken charges =   0.00000

 Dipole moment (field-independent basis, Debye):
    X=             -1.9268    Y=             -1.6064    Z=              0.0000  Tot=              2.5086
 Quadrupole moment (field-independent basis, Debye-Ang):
   XX=             -9.7840   YY=              4.3383   ZZ=            -14.7124
   XY=             -5.7118   XZ=              0.0000   YZ=              0.0000

 Normal termination of Gaussian 16 at Sat Aug 27 06:06:11 2022.
