 Gaussian 16, Revision A.03,
 Gaussian 16:  ES64L-G16RevA.03 25-Dec-2016

 ------------------
 #p CCSD(T)/cc-pVTZ
 ------------------

 ------------
 H2O_H2O_2356
 ------------
 Symbolic Z-matrix:
 Charge =  0 Multiplicity = 1

                         Standard orientation:
 ---------------------------------------------------------------------
 Center     Atomic      Atomic             Coordinates (Angstroms)
 Number     Number       Type             X           Y           Z
 ---------------------------------------------------------------------
      1          8           0        0.021860   -2.048713    0.000000
      2          1           0       -0.778234   -2.619112    0.000000
      3          1           0        0.820907   -2.620578    0.000000
      4          8           0        0.021860    2.057368    0.000000
      5          1           0        0.542769    2.890531    0.000000
      6          1           0       -0.935206    2.279920    0.000000
 ---------------------------------------------------------------------

 SCF Done:  E(RHF) =  -152.105483994     A.U. after   10 cycles
 E2 =    -0.5262293144D+00 EUMP2 =    -0.15263171330845D+03
 CCSD(T)
 CCSD(T)= -0.15265895760D+03

 The electronic state is 1-A'.
 Alpha  occ. eigenvalues --  -20.54720 -20.54597  -1.32005  -1.31880  -0.69421
 Alpha  occ. eigenvalues --   -0.69290  -0.55433  -0.55134  -0.49106  -0.48978
 Alpha virt. eigenvalues --    0.14141   0.15536   0.20567   0.21111   0.54294
 Alpha virt. eigenvalues --    0.55788   0.57844   0.58094   0.63438   0.74106
 Alpha virt. eigenvalues --    0.79525   0.80122   0.80794   0.81216   0.82188

 Mulliken charges:
               1
     1  O   -0.496539
     2  H    0.246694
     3  H    0.249936
     4  O   -0.496306
     5  H    0.246089
     6  H    0.250126
 Sum of Mulliken charges =  -0.00000

 Dipole moment (field-independent basis, Debye):
    X=             -0.7400    Y=             -0.1561    Z=              0.0000  Tot=              0.7563
 Quadrupole moment (field-independent basis, Debye-Ang):
   XX=             -8.1285   YY=              3.9650   ZZ=            -14.7098
   XY=             -0.9303   XZ=              0.0000   YZ=              0.0000

 Normal termination of Gaussian 16 at Sat Aug 27 10:06:26 2022.
