 Gaussian 16, Revision A.03,
 Gaussian 16:  ES64L-G16RevA.03 25-Dec-2016

 ------------------
 #p CCSD(T)/cc-pVTZ
 ------------------

 ------------
 H2O_H2O_2723
 ------------
 Symbolic Z-matrix:
 Charge =  0 Multiplicity = 1

                         Standard orientation:
 ---------------------------------------------------------------------
 Center     Atomic      Atomic             Coordinates (Angstroms)
 Number     Number       Type             X           Y           Z
 ---------------------------------------------------------------------
      1          8           0        0.057108   -2.181715    0.000000
      2          1           0       -0.743715   -2.751090    0.000000
      3          1           0        0.855423   -2.754601    0.000000
      4          8           0        0.057108    2.288220    0.000000
      5          1           0       -0.458672    3.124567    0.000000
      6          1           0       -0.566764    1.529082    0.000000
 ---------------------------------------------------------------------

 SCF Done:  E(RHF) =  -152.108288534     A.U. after   10 cycles
 E2 =    -0.5259974451D+00 EUMP2 =    -0.15263428597922D+03
 CCSD(T)
 CCSD(T)= -0.15266146656D+03

 The electronic state is 1-A'.
 Alpha  occ. eigenvalues --  -20.55953 -20.54584  -1.33238  -1.31885  -0.70644
 Alpha  occ. eigenvalues --   -0.69263  -0.56712  -0.55347  -0.50356  -0.49008
 Alpha virt. eigenvalues --    0.13107   0.15603   0.19881   0.21920   0.53926
 Alpha virt. eigenvalues --    0.54817   0.56933   0.58216   0.66577   0.71375
 Alpha virt. eigenvalues --    0.78535   0.79444   0.79847   0.80502   0.82671

 Mulliken charges:
               1
     1  O   -0.509612
     2  H    0.252463
     3  H    0.258636
     4  O   -0.511981
     5  H    0.248818
     6  H    0.261676
 Sum of Mulliken charges =  -0.00000

 Dipole moment (field-independent basis, Debye):
    X=             -1.9440    Y=             -1.9193    Z=              0.0000  Tot=              2.7318
 Quadrupole moment (field-independent basis, Debye-Ang):
   XX=             -9.8524   YY=             -0.5826   ZZ=            -14.7156
   XY=             -4.5312   XZ=              0.0000   YZ=              0.0000

 Normal termination of Gaussian 16 at Fri Aug 26 15:28:41 2022.
