 Gaussian 16, Revision A.03,
 Gaussian 16:  ES64L-G16RevA.03 25-Dec-2016

 ------------------
 #p CCSD(T)/cc-pVTZ
 ------------------

 ------------
 H2O_H2O_2816
 ------------
 Symbolic Z-matrix:
 Charge =  0 Multiplicity = 1

                         Standard orientation:
 ---------------------------------------------------------------------
 Center     Atomic      Atomic             Coordinates (Angstroms)
 Number     Number       Type             X           Y           Z
 ---------------------------------------------------------------------
      1          8           0        0.049514   -2.261822    0.000000
      2          1           0       -0.751117   -2.831466    0.000000
      3          1           0        0.848022   -2.834439    0.000000
      4          8           0        0.049514    2.318751    0.000000
      5          1           0       -0.043496    3.296941    0.000000
      6          1           0       -0.845640    1.913532    0.000000
 ---------------------------------------------------------------------

 SCF Done:  E(RHF) =  -152.106997656     A.U. after   10 cycles
 E2 =    -0.5260191590D+00 EUMP2 =    -0.15263301681543D+03
 CCSD(T)
 CCSD(T)= -0.15266023579D+03

 The electronic state is 1-A'.
 Alpha  occ. eigenvalues --  -20.55389 -20.54725  -1.32681  -1.32015  -0.70090
 Alpha  occ. eigenvalues --   -0.69405  -0.56103  -0.55439  -0.49789  -0.49128
 Alpha virt. eigenvalues --    0.13730   0.15309   0.20208   0.21225   0.54215
 Alpha virt. eigenvalues --    0.54975   0.57373   0.57947   0.66425   0.71543
 Alpha virt. eigenvalues --    0.79086   0.79745   0.80243   0.81395   0.82893

 Mulliken charges:
               1
     1  O   -0.505628
     2  H    0.250230
     3  H    0.255721
     4  O   -0.505522
     5  H    0.248144
     6  H    0.257054
 Sum of Mulliken charges =  -0.00000

 Dipole moment (field-independent basis, Debye):
    X=             -1.6868    Y=             -1.0164    Z=              0.0000  Tot=              1.9694
 Quadrupole moment (field-independent basis, Debye-Ang):
   XX=             -9.3474   YY=              3.1591   ZZ=            -14.7121
   XY=             -3.2516   XZ=              0.0000   YZ=              0.0000

 Normal termination of Gaussian 16 at Fri Aug 26 16:26:44 2022.
