 Gaussian 16, Revision A.03,
 Gaussian 16:  ES64L-G16RevA.03 25-Dec-2016

 ------------------
 #p CCSD(T)/cc-pVTZ
 ------------------

 ------------
 H2O_H2O_1076
 ------------
 Symbolic Z-matrix:
 Charge =  0 Multiplicity = 1

                         Standard orientation:
 ---------------------------------------------------------------------
 Center     Atomic      Atomic             Coordinates (Angstroms)
 Number     Number       Type             X           Y           Z
 ---------------------------------------------------------------------
      1          8           0        0.003735   -1.375191    0.000000
      2          1           0       -0.795969   -1.946136    0.000000
      3          1           0        0.803173   -1.946510    0.000000
      4          8           0        0.003735    1.375434    0.000000
      5          1           0        0.764387    1.997459    0.000000
      6          1           0       -0.831357    1.893244    0.000000
 ---------------------------------------------------------------------

 SCF Done:  E(RHF) =  -152.098146843     A.U. after   10 cycles
 E2 =    -0.5280707463D+00 EUMP2 =    -0.15262621758917D+03
 CCSD(T)
 CCSD(T)= -0.15265353733D+03

 The electronic state is 1-A'.
 Alpha  occ. eigenvalues --  -20.53492 -20.53486  -1.31086  -1.30636  -0.68457
 Alpha  occ. eigenvalues --   -0.68140  -0.56110  -0.51730  -0.48333  -0.47505
 Alpha virt. eigenvalues --    0.14458   0.17098   0.20567   0.22085   0.50853
 Alpha virt. eigenvalues --    0.58548   0.58785   0.61572   0.70904   0.76421
 Alpha virt. eigenvalues --    0.77068   0.78186   0.79511   0.83443   0.86321

 Mulliken charges:
               1
     1  O   -0.465750
     2  H    0.232084
     3  H    0.233647
     4  O   -0.465528
     5  H    0.232105
     6  H    0.233443
 Sum of Mulliken charges =   0.00000

 Dipole moment (field-independent basis, Debye):
    X=             -0.1201    Y=             -0.0046    Z=              0.0000  Tot=              0.1202
 Quadrupole moment (field-independent basis, Debye-Ang):
   XX=             -7.9424   YY=             -1.6073   ZZ=            -14.7151
   XY=             -0.0669   XZ=              0.0000   YZ=              0.0000

 Normal termination of Gaussian 16 at Sat Aug 27 01:53:07 2022.
