 Gaussian 16, Revision A.03,
 Gaussian 16:  ES64L-G16RevA.03 25-Dec-2016

 ------------------
 #p CCSD(T)/cc-pVTZ
 ------------------

 ------------
 H2O_H2O_1596
 ------------
 Symbolic Z-matrix:
 Charge =  0 Multiplicity = 1

                         Standard orientation:
 ---------------------------------------------------------------------
 Center     Atomic      Atomic             Coordinates (Angstroms)
 Number     Number       Type             X           Y           Z
 ---------------------------------------------------------------------
      1          8           0        0.056151   -1.591485    0.000000
      2          1           0       -0.745099   -2.160260    0.000000
      3          1           0        0.854036   -2.164970    0.000000
      4          8           0        0.056151    1.683097    0.000000
      5          1           0       -0.345379    2.579913    0.000000
      6          1           0       -0.661974    1.012423    0.000000
 ---------------------------------------------------------------------

 SCF Done:  E(RHF) =  -152.108482793     A.U. after   10 cycles
 E2 =    -0.5268628503D+00 EUMP2 =    -0.15263534564365D+03
 CCSD(T)
 CCSD(T)= -0.15266247330D+03

 The electronic state is 1-A'.
 Alpha  occ. eigenvalues --  -20.56086 -20.53690  -1.33366  -1.30982  -0.70775
 Alpha  occ. eigenvalues --   -0.68384  -0.56780  -0.54446  -0.50485  -0.48112
 Alpha virt. eigenvalues --    0.13166   0.16844   0.19759   0.24200   0.53291
 Alpha virt. eigenvalues --    0.55284   0.56818   0.58247   0.66944   0.75759
 Alpha virt. eigenvalues --    0.76594   0.76903   0.79654   0.81407   0.84417

 Mulliken charges:
               1
     1  O   -0.493699
     2  H    0.244460
     3  H    0.257492
     4  O   -0.508975
     5  H    0.239017
     6  H    0.261705
 Sum of Mulliken charges =  -0.00000

 Dipole moment (field-independent basis, Debye):
    X=             -1.8575    Y=             -1.7572    Z=              0.0000  Tot=              2.5570
 Quadrupole moment (field-independent basis, Debye-Ang):
   XX=             -9.7876   YY=             -2.4422   ZZ=            -14.7216
   XY=             -3.0751   XZ=              0.0000   YZ=              0.0000

 Normal termination of Gaussian 16 at Sat Aug 27 05:40:47 2022.
