 Gaussian 16, Revision A.03,
 Gaussian 16:  ES64L-G16RevA.03 25-Dec-2016

 ------------------
 #p CCSD(T)/cc-pVTZ
 ------------------

 ------------
 H2O_H2O_3828
 ------------
 Symbolic Z-matrix:
 Charge =  0 Multiplicity = 1

                         Standard orientation:
 ---------------------------------------------------------------------
 Center     Atomic      Atomic             Coordinates (Angstroms)
 Number     Number       Type             X           Y           Z
 ---------------------------------------------------------------------
      1          8           0        0.011143   -2.836685    0.000000
      2          1           0       -0.788621   -3.407547    0.000000
      3          1           0        0.810521   -3.408087    0.000000
      4          8           0        0.011143    2.838872    0.000000
      5          1           0        0.684170    3.554792    0.000000
      6          1           0       -0.884351    3.243345    0.000000
 ---------------------------------------------------------------------

 SCF Done:  E(RHF) =  -152.106585013     A.U. after   10 cycles
 E2 =    -0.5259611690D+00 EUMP2 =    -0.15263254618198D+03
 CCSD(T)
 CCSD(T)= -0.15265978323D+03

 The electronic state is 1-A'.
 Alpha  occ. eigenvalues --  -20.55093 -20.55077  -1.32387  -1.32372  -0.69796
 Alpha  occ. eigenvalues --   -0.69779  -0.55796  -0.55780  -0.49493  -0.49477
 Alpha virt. eigenvalues --    0.14466   0.14582   0.20532   0.20581   0.54763
 Alpha virt. eigenvalues --    0.54805   0.57617   0.57644   0.68269   0.68665
 Alpha virt. eigenvalues --    0.79385   0.79401   0.80830   0.80854   0.82757

 Mulliken charges:
               1
     1  O   -0.504017
     2  H    0.251667
     3  H    0.252351
     4  O   -0.503995
     5  H    0.251532
     6  H    0.252463
 Sum of Mulliken charges =  -0.00000

 Dipole moment (field-independent basis, Debye):
    X=             -0.3820    Y=             -0.0383    Z=              0.0000  Tot=              0.3840
 Quadrupole moment (field-independent basis, Debye-Ang):
   XX=             -7.8852   YY=             10.5190   ZZ=            -14.7103
   XY=             -0.7461   XZ=              0.0000   YZ=              0.0000

 Normal termination of Gaussian 16 at Sat Aug 27 03:37:34 2022.
