 Gaussian 16, Revision A.03,
 Gaussian 16:  ES64L-G16RevA.03 25-Dec-2016

 ------------------
 #p CCSD(T)/cc-pVTZ
 ------------------

 -----------
 H2O_H2O_131
 -----------
 Symbolic Z-matrix:
 Charge =  0 Multiplicity = 1

                         Standard orientation:
 ---------------------------------------------------------------------
 Center     Atomic      Atomic             Coordinates (Angstroms)
 Number     Number       Type             X           Y           Z
 ---------------------------------------------------------------------
      1          8           0        0.021866   -0.865406    0.000000
      2          1           0       -0.778939   -1.434807    0.000000
      3          1           0        0.820199   -1.438266    0.000000
      4          8           0        0.021866    0.874006    0.000000
      5          1           0        0.543813    1.706519    0.000000
      6          1           0       -0.934923    1.097752    0.000000
 ---------------------------------------------------------------------

 SCF Done:  E(RHF) =  -151.979181842     A.U. after   11 cycles
 E2 =    -0.5443663232D+00 EUMP2 =    -0.15252354816551D+03
 CCSD(T)
 CCSD(T)= -0.15254912419D+03

 The electronic state is 1-A'.
 Alpha  occ. eigenvalues --  -20.51545 -20.51293  -1.34799  -1.27291  -0.70432
 Alpha  occ. eigenvalues --   -0.67368  -0.63321  -0.51378  -0.43626  -0.37334
 Alpha virt. eigenvalues --    0.14470   0.19086   0.20023   0.23250   0.51867
 Alpha virt. eigenvalues --    0.57787   0.59006   0.66017   0.69609   0.78801
 Alpha virt. eigenvalues --    0.79812   0.83486   0.83824   0.85882   0.88273

 Mulliken charges:
               1
     1  O   -0.386592
     2  H    0.184261
     3  H    0.202030
     4  O   -0.366333
     5  H    0.147851
     6  H    0.218783
 Sum of Mulliken charges =  -0.00000

 Dipole moment (field-independent basis, Debye):
    X=             -0.6160    Y=             -0.2124    Z=              0.0000  Tot=              0.6516
 Quadrupole moment (field-independent basis, Debye-Ang):
   XX=             -8.5840   YY=             -7.8866   ZZ=            -14.7425
   XY=             -0.2601   XZ=              0.0000   YZ=              0.0000

 Normal termination of Gaussian 16 at Fri Aug 26 13:06:49 2022.
