 Gaussian 16, Revision A.03,
 Gaussian 16:  ES64L-G16RevA.03 25-Dec-2016

 ------------------
 #p CCSD(T)/cc-pVTZ
 ------------------

 ------------
 H2O_H2O_1685
 ------------
 Symbolic Z-matrix:
 Charge =  0 Multiplicity = 1

                         Standard orientation:
 ---------------------------------------------------------------------
 Center     Atomic      Atomic             Coordinates (Angstroms)
 Number     Number       Type             X           Y           Z
 ---------------------------------------------------------------------
      1          8           0        0.034789   -1.681671    0.000000
      2          1           0       -0.765790   -2.251389    0.000000
      3          1           0        0.833349   -2.254215    0.000000
      4          8           0        0.034789    1.705152    0.000000
      5          1           0        0.323110    2.644501    0.000000
      6          1           0       -0.947295    1.673249    0.000000
 ---------------------------------------------------------------------

 SCF Done:  E(RHF) =  -152.104693997     A.U. after   10 cycles
 E2 =    -0.5267625749D+00 EUMP2 =    -0.15263145657187D+03
 CCSD(T)
 CCSD(T)= -0.15265868887D+03

 The electronic state is 1-A'.
 Alpha  occ. eigenvalues --  -20.54638 -20.54140  -1.31920  -1.31403  -0.69345
 Alpha  occ. eigenvalues --   -0.68807  -0.55529  -0.54361  -0.49033  -0.48490
 Alpha virt. eigenvalues --    0.13971   0.16310   0.20399   0.21851   0.53069
 Alpha virt. eigenvalues --    0.56252   0.57938   0.58585   0.63572   0.76972
 Alpha virt. eigenvalues --    0.78541   0.78715   0.79831   0.81444   0.85042

 Mulliken charges:
               1
     1  O   -0.486345
     2  H    0.239549
     3  H    0.247865
     4  O   -0.486553
     5  H    0.237388
     6  H    0.248096
 Sum of Mulliken charges =  -0.00000

 Dipole moment (field-independent basis, Debye):
    X=             -1.1560    Y=             -0.4383    Z=              0.0000  Tot=              1.2363
 Quadrupole moment (field-independent basis, Debye-Ang):
   XX=             -8.6070   YY=              0.6450   ZZ=            -14.7111
   XY=             -1.2252   XZ=              0.0000   YZ=              0.0000

 Normal termination of Gaussian 16 at Sat Aug 27 06:12:44 2022.
