 Gaussian 16, Revision A.03,
 Gaussian 16:  ES64L-G16RevA.03 25-Dec-2016

 ------------------
 #p CCSD(T)/cc-pVTZ
 ------------------

 -----------
 H2O_H2O_910
 -----------
 Symbolic Z-matrix:
 Charge =  0 Multiplicity = 1

                         Standard orientation:
 ---------------------------------------------------------------------
 Center     Atomic      Atomic             Coordinates (Angstroms)
 Number     Number       Type             X           Y           Z
 ---------------------------------------------------------------------
      1          8           0        0.034796   -1.269518    0.000000
      2          1           0       -0.766107   -1.838781    0.000000
      3          1           0        0.833030   -1.842516    0.000000
      4          8           0        0.034796    1.292960    0.000000
      5          1           0        0.323651    2.232146    0.000000
      6          1           0       -0.947306    1.261616    0.000000
 ---------------------------------------------------------------------

 SCF Done:  E(RHF) =  -152.096778126     A.U. after   11 cycles
 E2 =    -0.5288674332D+00 EUMP2 =    -0.15262564555956D+03
 CCSD(T)
 CCSD(T)= -0.15265290038D+03

 The electronic state is 1-A'.
 Alpha  occ. eigenvalues --  -20.53891 -20.53171  -1.31526  -1.30374  -0.68890
 Alpha  occ. eigenvalues --   -0.67943  -0.56555  -0.51409  -0.48758  -0.47254
 Alpha virt. eigenvalues --    0.14217   0.17274   0.20372   0.22776   0.52629
 Alpha virt. eigenvalues --    0.58280   0.58450   0.60983   0.70296   0.76286
 Alpha virt. eigenvalues --    0.76940   0.78554   0.83538   0.84291   0.85935

 Mulliken charges:
               1
     1  O   -0.469580
     2  H    0.227496
     3  H    0.242014
     4  O   -0.456444
     5  H    0.216745
     6  H    0.239770
 Sum of Mulliken charges =  -0.00000

 Dipole moment (field-independent basis, Debye):
    X=             -1.0954    Y=             -0.4546    Z=              0.0000  Tot=              1.1860
 Quadrupole moment (field-independent basis, Debye-Ang):
   XX=             -8.6894   YY=             -2.7719   ZZ=            -14.7221
   XY=             -0.7645   XZ=              0.0000   YZ=              0.0000

 067\MP4DQ=-152.634266\MP4SDQ=-152.6374907\CCSD=-152.6368404\CCSD(T)=-1
 Normal termination of Gaussian 16 at Fri Aug 26 21:07:18 2022.
