 Gaussian 16, Revision A.03,
 Gaussian 16:  ES64L-G16RevA.03 25-Dec-2016

 ------------------
 #p CCSD(T)/cc-pVTZ
 ------------------

 ------------
 H2O_H2O_3945
 ------------
 Symbolic Z-matrix:
 Charge =  0 Multiplicity = 1

                         Standard orientation:
 ---------------------------------------------------------------------
 Center     Atomic      Atomic             Coordinates (Angstroms)
 Number     Number       Type             X           Y           Z
 ---------------------------------------------------------------------
      1          8           0        0.055237   -2.845176    0.000000
      2          1           0       -0.745273   -3.414992    0.000000
      3          1           0        0.853867   -3.417622    0.000000
      4          8           0        0.055237    2.929657    0.000000
      5          1           0       -0.287976    3.850370    0.000000
      6          1           0       -0.704404    2.306398    0.000000
 ---------------------------------------------------------------------

 SCF Done:  E(RHF) =  -152.107494788     A.U. after   10 cycles
 E2 =    -0.5258845551D+00 EUMP2 =    -0.15263337934327D+03
 CCSD(T)
 CCSD(T)= -0.15266059661D+03

 The electronic state is 1-A'.
 Alpha  occ. eigenvalues --  -20.55639 -20.55046  -1.32938  -1.32344  -0.70345
 Alpha  occ. eigenvalues --   -0.69740  -0.56390  -0.55791  -0.50050  -0.49458
 Alpha virt. eigenvalues --    0.13968   0.14688   0.20113   0.20778   0.54208
 Alpha virt. eigenvalues --    0.54829   0.57141   0.57726   0.67634   0.68570
 Alpha virt. eigenvalues --    0.78831   0.79412   0.80255   0.80794   0.82347

 Mulliken charges:
               1
     1  O   -0.509416
     2  H    0.253159
     3  H    0.256272
     4  O   -0.508994
     5  H    0.251480
     6  H    0.257499
 Sum of Mulliken charges =  -0.00000

 Dipole moment (field-independent basis, Debye):
    X=             -1.8958    Y=             -1.4822    Z=              0.0000  Tot=              2.4065
 Quadrupole moment (field-independent basis, Debye-Ang):
   XX=             -9.7235   YY=              4.3264   ZZ=            -14.7124
   XY=             -5.2235   XZ=              0.0000   YZ=              0.0000

 Normal termination of Gaussian 16 at Sat Aug 27 04:29:01 2022.
