 Gaussian 16, Revision A.03,
 Gaussian 16:  ES64L-G16RevA.03 25-Dec-2016

 ------------------
 #p CCSD(T)/cc-pVTZ
 ------------------

 ------------
 H2O_H2O_4191
 ------------
 Symbolic Z-matrix:
 Charge =  0 Multiplicity = 1

                         Standard orientation:
 ---------------------------------------------------------------------
 Center     Atomic      Atomic             Coordinates (Angstroms)
 Number     Number       Type             X           Y           Z
 ---------------------------------------------------------------------
      1          8           0        0.049502   -2.993074    0.000000
      2          1           0       -0.750873   -3.563078    0.000000
      3          1           0        0.848267   -3.565332    0.000000
      4          8           0        0.049502    3.050047    0.000000
      5          1           0       -0.043949    4.028195    0.000000
      6          1           0       -0.845471    2.644425    0.000000
 ---------------------------------------------------------------------

 SCF Done:  E(RHF) =  -152.107232044     A.U. after   10 cycles
 E2 =    -0.5258999998D+00 EUMP2 =    -0.15263313204351D+03
 CCSD(T)
 CCSD(T)= -0.15266035555D+03

 The electronic state is 1-A'.
 Alpha  occ. eigenvalues --  -20.55479 -20.55116  -1.32777  -1.32413  -0.70184
 Alpha  occ. eigenvalues --   -0.69813  -0.56216  -0.55851  -0.49887  -0.49524
 Alpha virt. eigenvalues --    0.14161   0.14561   0.20244   0.20638   0.54377
 Alpha virt. eigenvalues --    0.54766   0.57282   0.57647   0.67941   0.68404
 Alpha virt. eigenvalues --    0.78992   0.79350   0.80426   0.80811   0.82367

 Mulliken charges:
               1
     1  O   -0.507858
     2  H    0.252673
     3  H    0.255187
     4  O   -0.507596
     5  H    0.251635
     6  H    0.255960
 Sum of Mulliken charges =  -0.00000

 Dipole moment (field-independent basis, Debye):
    X=             -1.7001    Y=             -0.9969    Z=              0.0000  Tot=              1.9708
 Quadrupole moment (field-independent basis, Debye-Ang):
   XX=             -9.3455   YY=              7.5747   ZZ=            -14.7117
   XY=             -4.4788   XZ=              0.0000   YZ=              0.0000

 Normal termination of Gaussian 16 at Sat Aug 27 05:54:06 2022.
