 Gaussian 16, Revision A.03,
 Gaussian 16:  ES64L-G16RevA.03 25-Dec-2016

 ------------------
 #p CCSD(T)/cc-pVTZ
 ------------------

 ------------
 H2O_H2O_1775
 ------------
 Symbolic Z-matrix:
 Charge =  0 Multiplicity = 1

                         Standard orientation:
 ---------------------------------------------------------------------
 Center     Atomic      Atomic             Coordinates (Angstroms)
 Number     Number       Type             X           Y           Z
 ---------------------------------------------------------------------
      1          8           0        0.000000   -0.000000    1.747609
      2          1           0        0.000000    0.799571    2.318741
      3          1           0       -0.000000   -0.799571    2.318741
      4          8           0        0.000000   -0.000000   -1.747609
      5          1           0       -0.000000   -0.799571   -2.318741
      6          1           0        0.000000    0.799571   -2.318741
 ---------------------------------------------------------------------

 SCF Done:  E(RHF) =  -152.103934143     A.U. after   10 cycles
 E2 =    -0.5266743770D+00 EUMP2 =    -0.15263060852048D+03
 CCSD(T)
 CCSD(T)= -0.15265786767D+03

 The electronic state is 1-AG.
 Alpha  occ. eigenvalues --  -20.54270 -20.54270  -1.31579  -1.31520  -0.69001
 Alpha  occ. eigenvalues --   -0.68950  -0.55318  -0.54265  -0.48720  -0.48560
 Alpha virt. eigenvalues --    0.14255   0.16117   0.20611   0.21429   0.53324
 Alpha virt. eigenvalues --    0.57764   0.58014   0.58418   0.61076   0.75871
 Alpha virt. eigenvalues --    0.78990   0.79457   0.80203   0.81289   0.84001

 Mulliken charges:
               1
     1  O   -0.484594
     2  H    0.242297
     3  H    0.242297
     4  O   -0.484594
     5  H    0.242297
     6  H    0.242297
 Sum of Mulliken charges =   0.00000

 Dipole moment (field-independent basis, Debye):
    X=             -0.0000    Y=              0.0000    Z=             -0.0000  Tot=              0.0000
 Quadrupole moment (field-independent basis, Debye-Ang):
   XX=            -14.7088   YY=             -7.8587   ZZ=              1.7403
   XY=              0.0000   XZ=              0.0000   YZ=             -0.0000

 1\MP4DQ=-152.6396219\MP4SDQ=-152.6427302\CCSD=-152.6421211\CCSD(T)=-15
 Normal termination of Gaussian 16 at Sat Aug 27 06:43:11 2022.
