 Gaussian 16, Revision A.03,
 Gaussian 16:  ES64L-G16RevA.03 25-Dec-2016

 ------------------
 #p CCSD(T)/cc-pVTZ
 ------------------

 ------------
 H2O_H2O_4345
 ------------
 Symbolic Z-matrix:
 Charge =  0 Multiplicity = 1

                         Standard orientation:
 ---------------------------------------------------------------------
 Center     Atomic      Atomic             Coordinates (Angstroms)
 Number     Number       Type             X           Y           Z
 ---------------------------------------------------------------------
      1          8           0        0.055232   -3.057904    0.000000
      2          1           0       -0.745213   -3.627810    0.000000
      3          1           0        0.853927   -3.630260    0.000000
      4          8           0        0.055232    3.142397    0.000000
      5          1           0       -0.288085    4.063071    0.000000
      6          1           0       -0.704339    2.519053    0.000000
 ---------------------------------------------------------------------

 SCF Done:  E(RHF) =  -152.107484525     A.U. after   10 cycles
 E2 =    -0.5258754053D+00 EUMP2 =    -0.15263335993071D+03
 CCSD(T)
 CCSD(T)= -0.15266057820D+03

 The electronic state is 1-A'.
 Alpha  occ. eigenvalues --  -20.55638 -20.55128  -1.32937  -1.32427  -0.70343
 Alpha  occ. eigenvalues --   -0.69825  -0.56388  -0.55874  -0.50049  -0.49540
 Alpha virt. eigenvalues --    0.14025   0.14567   0.20121   0.20671   0.54216
 Alpha virt. eigenvalues --    0.54748   0.57143   0.57652   0.67757   0.68357
 Alpha virt. eigenvalues --    0.78831   0.79332   0.80260   0.80788   0.82212

 Mulliken charges:
               1
     1  O   -0.509352
     2  H    0.253415
     3  H    0.255939
     4  O   -0.509030
     5  H    0.252058
     6  H    0.256970
 Sum of Mulliken charges =  -0.00000

 Dipole moment (field-independent basis, Debye):
    X=             -1.8979    Y=             -1.4776    Z=              0.0000  Tot=              2.4053
 Quadrupole moment (field-independent basis, Debye-Ang):
   XX=             -9.7240   YY=              5.3979   ZZ=            -14.7122
   XY=             -5.6242   XZ=              0.0000   YZ=              0.0000

 Normal termination of Gaussian 16 at Sat Aug 27 06:47:32 2022.
