 Gaussian 16, Revision A.03,
 Gaussian 16:  ES64L-G16RevA.03 25-Dec-2016

 ------------------
 #p CCSD(T)/cc-pVTZ
 ------------------

 ------------
 H2O_H2O_2877
 ------------
 Symbolic Z-matrix:
 Charge =  0 Multiplicity = 1

                         Standard orientation:
 ---------------------------------------------------------------------
 Center     Atomic      Atomic             Coordinates (Angstroms)
 Number     Number       Type             X           Y           Z
 ---------------------------------------------------------------------
      1          8           0        0.007455   -2.332100    0.000000
      2          1           0       -0.792273   -2.903012    0.000000
      3          1           0        0.806869   -2.903452    0.000000
      4          8           0        0.007455    2.333073    0.000000
      5          1           0        0.725822    3.003487    0.000000
      6          1           0       -0.859697    2.795193    0.000000
 ---------------------------------------------------------------------

 SCF Done:  E(RHF) =  -152.105891429     A.U. after   10 cycles
 E2 =    -0.5260727860D+00 EUMP2 =    -0.15263196421518D+03
 CCSD(T)
 CCSD(T)= -0.15265921216D+03

 The electronic state is 1-A'.
 Alpha  occ. eigenvalues --  -20.54829 -20.54819  -1.32121  -1.32110  -0.69532
 Alpha  occ. eigenvalues --   -0.69521  -0.55524  -0.55450  -0.49223  -0.49210
 Alpha virt. eigenvalues --    0.14383   0.15056   0.20617   0.20827   0.54820
 Alpha virt. eigenvalues --    0.55272   0.57783   0.57888   0.66379   0.71144
 Alpha virt. eigenvalues --    0.79598   0.79716   0.81077   0.81163   0.82443

 Mulliken charges:
               1
     1  O   -0.499899
     2  H    0.249557
     3  H    0.250344
     4  O   -0.499872
     5  H    0.249442
     6  H    0.250428
 Sum of Mulliken charges =   0.00000

 Dipole moment (field-independent basis, Debye):
    X=             -0.2541    Y=             -0.0172    Z=              0.0000  Tot=              0.2547
 Quadrupole moment (field-independent basis, Debye-Ang):
   XX=             -7.8544   YY=              6.5307   ZZ=            -14.7096
   XY=             -0.3691   XZ=              0.0000   YZ=              0.0000

 Normal termination of Gaussian 16 at Fri Aug 26 17:03:53 2022.
