 Gaussian 16, Revision A.03,
 Gaussian 16:  ES64L-G16RevA.03 25-Dec-2016

 ------------------
 #p CCSD(T)/cc-pVTZ
 ------------------

 ------------
 H2O_H2O_3932
 ------------
 Symbolic Z-matrix:
 Charge =  0 Multiplicity = 1

                         Standard orientation:
 ---------------------------------------------------------------------
 Center     Atomic      Atomic             Coordinates (Angstroms)
 Number     Number       Type             X           Y           Z
 ---------------------------------------------------------------------
      1          8           0        0.025265   -2.884679    0.000000
      2          1           0       -0.774735   -3.455210    0.000000
      3          1           0        0.824406   -3.456413    0.000000
      4          8           0        0.025265    2.896421    0.000000
      5          1           0        0.490424    3.761946    0.000000
      6          1           0       -0.944334    3.055743    0.000000
 ---------------------------------------------------------------------

 SCF Done:  E(RHF) =  -152.106728412     A.U. after   10 cycles
 E2 =    -0.5259470722D+00 EUMP2 =    -0.15263267548424D+03
 CCSD(T)
 CCSD(T)= -0.15265990958D+03

 The electronic state is 1-A'.
 Alpha  occ. eigenvalues --  -20.55174 -20.55093  -1.32469  -1.32387  -0.69877
 Alpha  occ. eigenvalues --   -0.69793  -0.55885  -0.55803  -0.49576  -0.49494
 Alpha virt. eigenvalues --    0.14416   0.14558   0.20478   0.20579   0.54688
 Alpha virt. eigenvalues --    0.54786   0.57550   0.57635   0.68239   0.68561
 Alpha virt. eigenvalues --    0.79303   0.79383   0.80747   0.80838   0.82681

 Mulliken charges:
               1
     1  O   -0.504869
     2  H    0.251697
     3  H    0.253172
     4  O   -0.504769
     5  H    0.251337
     6  H    0.253432
 Sum of Mulliken charges =  -0.00000

 Dipole moment (field-independent basis, Debye):
    X=             -0.8667    Y=             -0.2056    Z=              0.0000  Tot=              0.8907
 Quadrupole moment (field-independent basis, Debye-Ang):
   XX=             -8.2071   YY=             10.2834   ZZ=            -14.7106
   XY=             -1.8130   XZ=              0.0000   YZ=              0.0000

 Normal termination of Gaussian 16 at Sat Aug 27 04:23:39 2022.
