 Gaussian 16, Revision A.03,
 Gaussian 16:  ES64L-G16RevA.03 25-Dec-2016

 ------------------
 #p CCSD(T)/cc-pVTZ
 ------------------

 ------------
 H2O_H2O_3276
 ------------
 Symbolic Z-matrix:
 Charge =  0 Multiplicity = 1

                         Standard orientation:
 ---------------------------------------------------------------------
 Center     Atomic      Atomic             Coordinates (Angstroms)
 Number     Number       Type             X           Y           Z
 ---------------------------------------------------------------------
      1          8           0        0.003735   -2.545231    0.000000
      2          1           0       -0.795908   -3.116262    0.000000
      3          1           0        0.803234   -3.116464    0.000000
      4          8           0        0.003735    2.545474    0.000000
      5          1           0        0.764320    3.167582    0.000000
      6          1           0       -0.831412    3.063195    0.000000
 ---------------------------------------------------------------------

 SCF Done:  E(RHF) =  -152.106222907     A.U. after   10 cycles
 E2 =    -0.5260120662D+00 EUMP2 =    -0.15263223497347D+03
 CCSD(T)
 CCSD(T)= -0.15265947852D+03

 The electronic state is 1-A'.
 Alpha  occ. eigenvalues --  -20.54947 -20.54945  -1.32240  -1.32238  -0.69650
 Alpha  occ. eigenvalues --   -0.69647  -0.55640  -0.55618  -0.49343  -0.49340
 Alpha virt. eigenvalues --    0.14461   0.14801   0.20591   0.20701   0.54844
 Alpha virt. eigenvalues --    0.55006   0.57715   0.57768   0.67713   0.69587
 Alpha virt. eigenvalues --    0.79520   0.79548   0.80949   0.81030   0.82743

 Mulliken charges:
               1
     1  O   -0.501893
     2  H    0.250791
     3  H    0.251102
     4  O   -0.501889
     5  H    0.250743
     6  H    0.251146
 Sum of Mulliken charges =  -0.00000

 Dipole moment (field-independent basis, Debye):
    X=             -0.1277    Y=             -0.0043    Z=              0.0000  Tot=              0.1278
 Quadrupole moment (field-independent basis, Debye-Ang):
   XX=             -7.8221   YY=              8.2890   ZZ=            -14.7099
   XY=             -0.2109   XZ=              0.0000   YZ=              0.0000

 Normal termination of Gaussian 16 at Fri Aug 26 20:57:26 2022.
