 Gaussian 16, Revision A.03,
 Gaussian 16:  ES64L-G16RevA.03 25-Dec-2016

 ------------------
 #p CCSD(T)/cc-pVTZ
 ------------------

 ------------
 H2O_H2O_1078
 ------------
 Symbolic Z-matrix:
 Charge =  0 Multiplicity = 1

                         Standard orientation:
 ---------------------------------------------------------------------
 Center     Atomic      Atomic             Coordinates (Angstroms)
 Number     Number       Type             X           Y           Z
 ---------------------------------------------------------------------
      1          8           0        0.011143   -1.374139    0.000000
      2          1           0       -0.788826   -1.944713    0.000000
      3          1           0        0.810316   -1.945829    0.000000
      4          8           0        0.011143    1.376319    0.000000
      5          1           0        0.684427    2.091995    0.000000
      6          1           0       -0.884205    1.781112    0.000000
 ---------------------------------------------------------------------

 SCF Done:  E(RHF) =  -152.098338696     A.U. after   11 cycles
 E2 =    -0.5280721670D+00 EUMP2 =    -0.15262641086296D+03
 CCSD(T)
 CCSD(T)= -0.15265372567D+03

 The electronic state is 1-A'.
 Alpha  occ. eigenvalues --  -20.53545 -20.53487  -1.31114  -1.30655  -0.68487
 Alpha  occ. eigenvalues --   -0.68157  -0.56110  -0.51790  -0.48361  -0.47528
 Alpha virt. eigenvalues --    0.14432   0.17085   0.20556   0.22116   0.51035
 Alpha virt. eigenvalues --    0.58551   0.58777   0.61396   0.70671   0.76446
 Alpha virt. eigenvalues --    0.77042   0.78435   0.79643   0.83430   0.86287

 Mulliken charges:
               1
     1  O   -0.466760
     2  H    0.231002
     3  H    0.235606
     4  O   -0.464870
     5  H    0.230403
     6  H    0.234620
 Sum of Mulliken charges =  -0.00000

 Dipole moment (field-independent basis, Debye):
    X=             -0.3581    Y=             -0.0415    Z=              0.0000  Tot=              0.3605
 Quadrupole moment (field-independent basis, Debye-Ang):
   XX=             -8.0089   YY=             -1.6292   ZZ=            -14.7153
   XY=             -0.2059   XZ=              0.0000   YZ=              0.0000

 Normal termination of Gaussian 16 at Sat Aug 27 01:54:09 2022.
