 Gaussian 16, Revision A.03,
 Gaussian 16:  ES64L-G16RevA.03 25-Dec-2016

 ------------------
 #p CCSD(T)/cc-pVTZ
 ------------------

 ------------
 H2O_H2O_4669
 ------------
 Symbolic Z-matrix:
 Charge =  0 Multiplicity = 1

                         Standard orientation:
 ---------------------------------------------------------------------
 Center     Atomic      Atomic             Coordinates (Angstroms)
 Number     Number       Type             X           Y           Z
 ---------------------------------------------------------------------
      1          8           0        0.054137   -3.234628    0.000000
      2          1           0       -0.746245   -3.804622    0.000000
      3          1           0        0.852895   -3.806896    0.000000
      4          8           0        0.054137    3.311983    0.000000
      5          1           0       -0.228333    4.253109    0.000000
      6          1           0       -0.744514    2.739564    0.000000
 ---------------------------------------------------------------------

 SCF Done:  E(RHF) =  -152.107429868     A.U. after   10 cycles
 E2 =    -0.5258753215D+00 EUMP2 =    -0.15263330518938D+03
 CCSD(T)
 CCSD(T)= -0.15266052495D+03

 The electronic state is 1-A'.
 Alpha  occ. eigenvalues --  -20.55603 -20.55188  -1.32902  -1.32486  -0.70308
 Alpha  occ. eigenvalues --   -0.69886  -0.56350  -0.55932  -0.50014  -0.49599
 Alpha virt. eigenvalues --    0.14071   0.14493   0.20150   0.20592   0.54253
 Alpha virt. eigenvalues --    0.54687   0.57174   0.57590   0.67830   0.68271
 Alpha virt. eigenvalues --    0.78866   0.79275   0.80296   0.80738   0.82223

 Mulliken charges:
               1
     1  O   -0.509017
     2  H    0.253444
     3  H    0.255574
     4  O   -0.508778
     5  H    0.252374
     6  H    0.256403
 Sum of Mulliken charges =  -0.00000

 Dipole moment (field-independent basis, Debye):
    X=             -1.8617    Y=             -1.3500    Z=              0.0000  Tot=              2.2996
 Quadrupole moment (field-independent basis, Debye-Ang):
   XX=             -9.6489   YY=              7.0232   ZZ=            -14.7121
   XY=             -5.7115   XZ=              0.0000   YZ=              0.0000

 Normal termination of Gaussian 16 at Sat Aug 27 08:39:25 2022.
