 Gaussian 16, Revision A.03,
 Gaussian 16:  ES64L-G16RevA.03 25-Dec-2016

 ------------------
 #p CCSD(T)/cc-pVTZ
 ------------------

 ------------
 H2O_H2O_4522
 ------------
 Symbolic Z-matrix:
 Charge =  0 Multiplicity = 1

                         Standard orientation:
 ---------------------------------------------------------------------
 Center     Atomic      Atomic             Coordinates (Angstroms)
 Number     Number       Type             X           Y           Z
 ---------------------------------------------------------------------
      1          8           0        0.056700   -3.143020    0.000000
      2          1           0       -0.743742   -3.712930    0.000000
      3          1           0        0.855398   -3.715372    0.000000
      4          8           0        0.056700    3.242164    0.000000
      5          1           0       -0.403856    4.110146    0.000000
      6          1           0       -0.615006    2.525005    0.000000
 ---------------------------------------------------------------------

 SCF Done:  E(RHF) =  -152.107594059     A.U. after   10 cycles
 E2 =    -0.5258625768D+00 EUMP2 =    -0.15263345663546D+03
 CCSD(T)
 CCSD(T)= -0.15266067280D+03

 The electronic state is 1-A'.
 Alpha  occ. eigenvalues --  -20.55710 -20.55152  -1.33010  -1.32451  -0.70416
 Alpha  occ. eigenvalues --   -0.69850  -0.56466  -0.55902  -0.50123  -0.49566
 Alpha virt. eigenvalues --    0.13968   0.14547   0.20064   0.20663   0.54143
 Alpha virt. eigenvalues --    0.54721   0.57078   0.57636   0.67685   0.68308
 Alpha virt. eigenvalues --    0.78757   0.79306   0.80184   0.80765   0.82127

 Mulliken charges:
               1
     1  O   -0.509994
     2  H    0.253841
     3  H    0.256155
     4  O   -0.509660
     5  H    0.252412
     6  H    0.257246
 Sum of Mulliken charges =  -0.00000

 Dipole moment (field-independent basis, Debye):
    X=             -1.9493    Y=             -1.7321    Z=              0.0000  Tot=              2.6077
 Quadrupole moment (field-independent basis, Debye-Ang):
   XX=             -9.8282   YY=              4.3072   ZZ=            -14.7125
   XY=             -6.2144   XZ=              0.0000   YZ=              0.0000

 Normal termination of Gaussian 16 at Sat Aug 27 07:48:00 2022.
