 Gaussian 16, Revision A.03,
 Gaussian 16:  ES64L-G16RevA.03 25-Dec-2016

 ------------------
 #p CCSD(T)/cc-pVTZ
 ------------------

 ------------
 H2O_H2O_3876
 ------------
 Symbolic Z-matrix:
 Charge =  0 Multiplicity = 1

                         Standard orientation:
 ---------------------------------------------------------------------
 Center     Atomic      Atomic             Coordinates (Angstroms)
 Number     Number       Type             X           Y           Z
 ---------------------------------------------------------------------
      1          8           0        0.003735   -2.864333    0.000000
      2          1           0       -0.795900   -3.435375    0.000000
      3          1           0        0.803242   -3.435554    0.000000
      4          8           0        0.003735    2.864576    0.000000
      5          1           0        0.764311    3.486695    0.000000
      6          1           0       -0.831420    3.382285    0.000000
 ---------------------------------------------------------------------

 SCF Done:  E(RHF) =  -152.106589561     A.U. after   10 cycles
 E2 =    -0.5259594658D+00 EUMP2 =    -0.15263254902654D+03
 CCSD(T)
 CCSD(T)= -0.15265978605D+03

 The electronic state is 1-A'.
 Alpha  occ. eigenvalues --  -20.55090 -20.55088  -1.32385  -1.32383  -0.69793
 Alpha  occ. eigenvalues --   -0.69791  -0.55794  -0.55792  -0.49490  -0.49489
 Alpha virt. eigenvalues --    0.14471   0.14569   0.20534   0.20571   0.54764
 Alpha virt. eigenvalues --    0.54795   0.57617   0.57635   0.68294   0.68630
 Alpha virt. eigenvalues --    0.79387   0.79390   0.80829   0.80844   0.82757

 Mulliken charges:
               1
     1  O   -0.504042
     2  H    0.251909
     3  H    0.252133
     4  O   -0.504040
     5  H    0.251869
     6  H    0.252171
 Sum of Mulliken charges =  -0.00000

 Dipole moment (field-independent basis, Debye):
    X=             -0.1281    Y=             -0.0043    Z=              0.0000  Tot=              0.1282
 Quadrupole moment (field-independent basis, Debye-Ang):
   XX=             -7.8156   YY=             10.8595   ZZ=            -14.7103
   XY=             -0.2512   XZ=              0.0000   YZ=              0.0000

 2348\MP4DQ=-152.6416735\MP4SDQ=-152.6447357\CCSD=-152.6441466\CCSD(T)=
 Normal termination of Gaussian 16 at Sat Aug 27 03:58:15 2022.
