 Gaussian 16, Revision A.03,
 Gaussian 16:  ES64L-G16RevA.03 25-Dec-2016

 ------------------
 #p CCSD(T)/cc-pVTZ
 ------------------

 ------------
 H2O_H2O_3593
 ------------
 Symbolic Z-matrix:
 Charge =  0 Multiplicity = 1

                         Standard orientation:
 ---------------------------------------------------------------------
 Center     Atomic      Atomic             Coordinates (Angstroms)
 Number     Number       Type             X           Y           Z
 ---------------------------------------------------------------------
      1          8           0        0.052825   -2.666715    0.000000
      2          1           0       -0.747705   -3.236502    0.000000
      3          1           0        0.851435   -3.239190    0.000000
      4          8           0        0.052825    2.737051    0.000000
      5          1           0       -0.167239    3.694692    0.000000
      6          1           0       -0.781688    2.218308    0.000000
 ---------------------------------------------------------------------

 SCF Done:  E(RHF) =  -152.107322676     A.U. after   10 cycles
 E2 =    -0.5259130251D+00 EUMP2 =    -0.15263323570064D+03
 CCSD(T)
 CCSD(T)= -0.15266045551D+03

 The electronic state is 1-A'.
 Alpha  occ. eigenvalues --  -20.55541 -20.54971  -1.32839  -1.32266  -0.70245
 Alpha  occ. eigenvalues --   -0.69662  -0.56282  -0.55707  -0.49949  -0.49380
 Alpha virt. eigenvalues --    0.13973   0.14808   0.20173   0.20853   0.54293
 Alpha virt. eigenvalues --    0.54900   0.57227   0.57776   0.67543   0.68933
 Alpha virt. eigenvalues --    0.78932   0.79489   0.80341   0.80807   0.82571

 Mulliken charges:
               1
     1  O   -0.508370
     2  H    0.252366
     3  H    0.256041
     4  O   -0.507923
     5  H    0.250647
     6  H    0.257239
 Sum of Mulliken charges =  -0.00000

 Dipole moment (field-independent basis, Debye):
    X=             -1.8103    Y=             -1.2383    Z=              0.0000  Tot=              2.1933
 Quadrupole moment (field-independent basis, Debye-Ang):
   XX=             -9.5589   YY=              4.5811   ZZ=            -14.7121
   XY=             -4.4270   XZ=              0.0000   YZ=              0.0000

 Normal termination of Gaussian 16 at Sat Aug 27 01:45:07 2022.
