 Gaussian 16, Revision A.03,
 Gaussian 16:  ES64L-G16RevA.03 25-Dec-2016

 ------------------
 #p CCSD(T)/cc-pVTZ
 ------------------

 ------------
 H2O_H2O_2132
 ------------
 Symbolic Z-matrix:
 Charge =  0 Multiplicity = 1

                         Standard orientation:
 ---------------------------------------------------------------------
 Center     Atomic      Atomic             Coordinates (Angstroms)
 Number     Number       Type             X           Y           Z
 ---------------------------------------------------------------------
      1          8           0        0.025267   -1.927384    0.000000
      2          1           0       -0.774946   -2.497616    0.000000
      3          1           0        0.824195   -2.499415    0.000000
      4          8           0        0.025267    1.939107    0.000000
      5          1           0        0.490749    2.804458    0.000000
      6          1           0       -0.944273    2.098788    0.000000
 ---------------------------------------------------------------------

 SCF Done:  E(RHF) =  -152.105248854     A.U. after   10 cycles
 E2 =    -0.5263544239D+00 EUMP2 =    -0.15263160327811D+03
 CCSD(T)
 CCSD(T)= -0.15265884325D+03

 The electronic state is 1-A'.
 Alpha  occ. eigenvalues --  -20.54666 -20.54476  -1.31948  -1.31753  -0.69366
 Alpha  occ. eigenvalues --   -0.69163  -0.55415  -0.54929  -0.49051  -0.48848
 Alpha virt. eigenvalues --    0.14061   0.15776   0.20531   0.21284   0.53796
 Alpha virt. eigenvalues --    0.55989   0.57888   0.58207   0.62551   0.75203
 Alpha virt. eigenvalues --    0.79368   0.80179   0.80440   0.81099   0.82609

 Mulliken charges:
               1
     1  O   -0.493797
     2  H    0.244836
     3  H    0.249193
     4  O   -0.493678
     5  H    0.243989
     6  H    0.249457
 Sum of Mulliken charges =  -0.00000

 Dipole moment (field-independent basis, Debye):
    X=             -0.8515    Y=             -0.2138    Z=              0.0000  Tot=              0.8780
 Quadrupole moment (field-independent basis, Debye-Ang):
   XX=             -8.2348   YY=              2.9052   ZZ=            -14.7099
   XY=             -0.9984   XZ=              0.0000   YZ=              0.0000

 Normal termination of Gaussian 16 at Sat Aug 27 08:46:06 2022.
