 Gaussian 16, Revision A.03,
 Gaussian 16:  ES64L-G16RevA.03 25-Dec-2016

 ------------------
 #p CCSD(T)/cc-pVTZ
 ------------------

 ----------
 H2O_H2O_35
 ----------
 Symbolic Z-matrix:
 Charge =  0 Multiplicity = 1

                         Standard orientation:
 ---------------------------------------------------------------------
 Center     Atomic      Atomic             Coordinates (Angstroms)
 Number     Number       Type             X           Y           Z
 ---------------------------------------------------------------------
      1          8           0        0.034811   -0.804210    0.000000
      2          1           0       -0.766849   -1.372405    0.000000
      3          1           0        0.832282   -1.378271    0.000000
      4          8           0        0.034811    0.827559    0.000000
      5          1           0        0.324917    1.766358    0.000000
      6          1           0       -0.947331    0.797523    0.000000
 ---------------------------------------------------------------------

 SCF Done:  E(RHF) =  -151.931577527     A.U. after   12 cycles
 E2 =    -0.5501550299D+00 EUMP2 =    -0.15248173255721D+03
 CCSD(T)
 CCSD(T)= -0.15250639536D+03

 The electronic state is 1-A'.
 Alpha  occ. eigenvalues --  -20.52295 -20.51548  -1.37706  -1.26740  -0.73211
 Alpha  occ. eigenvalues --   -0.69647  -0.61601  -0.53431  -0.43271  -0.35093
 Alpha virt. eigenvalues --    0.14088   0.19155   0.19856   0.23567   0.53704
 Alpha virt. eigenvalues --    0.55460   0.58693   0.65644   0.72349   0.77988
 Alpha virt. eigenvalues --    0.79806   0.82577   0.82733   0.84382   0.89038

 Mulliken charges:
               1
     1  O   -0.341298
     2  H    0.159200
     3  H    0.186109
     4  O   -0.328449
     5  H    0.098687
     6  H    0.225751
 Sum of Mulliken charges =  -0.00000

 Dipole moment (field-independent basis, Debye):
    X=             -0.9474    Y=             -0.5944    Z=              0.0000  Tot=              1.1185
 Quadrupole moment (field-independent basis, Debye-Ang):
   XX=             -8.9959   YY=             -9.0531   ZZ=            -14.6939
   XY=             -0.4918   XZ=              0.0000   YZ=              0.0000

 938504\MP4DQ=-152.4849858\MP4SDQ=-152.48926\CCSD=-152.4879373\CCSD(T)=
 Normal termination of Gaussian 16 at Fri Aug 26 12:08:21 2022.
