 Gaussian 16, Revision A.03,
 Gaussian 16:  ES64L-G16RevA.03 25-Dec-2016

 ------------------
 #p CCSD(T)/cc-pVTZ
 ------------------

 ------------
 H2O_H2O_3235
 ------------
 Symbolic Z-matrix:
 Charge =  0 Multiplicity = 1

                         Standard orientation:
 ---------------------------------------------------------------------
 Center     Atomic      Atomic             Coordinates (Angstroms)
 Number     Number       Type             X           Y           Z
 ---------------------------------------------------------------------
      1          8           0        0.034782   -2.505996    0.000000
      2          1           0       -0.765467   -3.076177    0.000000
      3          1           0        0.833674   -3.078078    0.000000
      4          8           0        0.034782    2.529518    0.000000
      5          1           0        0.322559    3.469034    0.000000
      6          1           0       -0.947283    2.497047    0.000000
 ---------------------------------------------------------------------

 SCF Done:  E(RHF) =  -152.106537323     A.U. after   10 cycles
 E2 =    -0.5259919487D+00 EUMP2 =    -0.15263252927120D+03
 CCSD(T)
 CCSD(T)= -0.15265976550D+03

 The electronic state is 1-A'.
 Alpha  occ. eigenvalues --  -20.55129 -20.54913  -1.32424  -1.32205  -0.69833
 Alpha  occ. eigenvalues --   -0.69607  -0.55829  -0.55611  -0.49529  -0.49312
 Alpha virt. eigenvalues --    0.14274   0.14871   0.20452   0.20789   0.54666
 Alpha virt. eigenvalues --    0.55007   0.57572   0.57800   0.67500   0.69657
 Alpha virt. eigenvalues --    0.79347   0.79563   0.80765   0.81063   0.82741

 Mulliken charges:
               1
     1  O   -0.503761
     2  H    0.250389
     3  H    0.253387
     4  O   -0.503437
     5  H    0.249567
     6  H    0.253855
 Sum of Mulliken charges =   0.00000

 Dipole moment (field-independent basis, Debye):
    X=             -1.1890    Y=             -0.4150    Z=              0.0000  Tot=              1.2594
 Quadrupole moment (field-independent basis, Debye-Ang):
   XX=             -8.5698   YY=              6.7398   ZZ=            -14.7106
   XY=             -2.1857   XZ=              0.0000   YZ=              0.0000

 Normal termination of Gaussian 16 at Fri Aug 26 20:35:58 2022.
