 Gaussian 16, Revision A.03,
 Gaussian 16:  ES64L-G16RevA.03 25-Dec-2016

 ------------------
 #p CCSD(T)/cc-pVTZ
 ------------------

 ------------
 H2O_H2O_3117
 ------------
 Symbolic Z-matrix:
 Charge =  0 Multiplicity = 1

                         Standard orientation:
 ---------------------------------------------------------------------
 Center     Atomic      Atomic             Coordinates (Angstroms)
 Number     Number       Type             X           Y           Z
 ---------------------------------------------------------------------
      1          8           0        0.051281   -2.417793    0.000000
      2          1           0       -0.749317   -2.987485    0.000000
      3          1           0        0.849822   -2.990363    0.000000
      4          8           0        0.051281    2.481314    0.000000
      5          1           0       -0.105565    3.451317    0.000000
      6          1           0       -0.815428    2.018365    0.000000
 ---------------------------------------------------------------------

 SCF Done:  E(RHF) =  -152.107178264     A.U. after   10 cycles
 E2 =    -0.5259621575D+00 EUMP2 =    -0.15263314042176D+03
 CCSD(T)
 CCSD(T)= -0.15266035971D+03

 The electronic state is 1-A'.
 Alpha  occ. eigenvalues --  -20.55470 -20.54831  -1.32765  -1.32124  -0.70173
 Alpha  occ. eigenvalues --   -0.69516  -0.56199  -0.55557  -0.49874  -0.49237
 Alpha virt. eigenvalues --    0.13823   0.15088   0.20187   0.21059   0.54284
 Alpha virt. eigenvalues --    0.54968   0.57296   0.57862   0.67014   0.70108
 Alpha virt. eigenvalues --    0.79008   0.79629   0.80283   0.80942   0.82798

 Mulliken charges:
               1
     1  O   -0.507207
     2  H    0.251319
     3  H    0.256050
     4  O   -0.506835
     5  H    0.249309
     6  H    0.257363
 Sum of Mulliken charges =  -0.00000

 Dipole moment (field-independent basis, Debye):
    X=             -1.7520    Y=             -1.1266    Z=              0.0000  Tot=              2.0830
 Quadrupole moment (field-independent basis, Debye-Ang):
   XX=             -9.4579   YY=              3.6660   ZZ=            -14.7122
   XY=             -3.7493   XZ=              0.0000   YZ=              0.0000

 Normal termination of Gaussian 16 at Fri Aug 26 19:34:32 2022.
