 Gaussian 16, Revision A.03,
 Gaussian 16:  ES64L-G16RevA.03 25-Dec-2016

 ------------------
 #p CCSD(T)/cc-pVTZ
 ------------------

 ------------
 H2O_H2O_4519
 ------------
 Symbolic Z-matrix:
 Charge =  0 Multiplicity = 1

                         Standard orientation:
 ---------------------------------------------------------------------
 Center     Atomic      Atomic             Coordinates (Angstroms)
 Number     Number       Type             X           Y           Z
 ---------------------------------------------------------------------
      1          8           0        0.054139   -3.154854    0.000000
      2          1           0       -0.746264   -3.724820    0.000000
      3          1           0        0.852876   -3.727151    0.000000
      4          8           0        0.054139    3.232206    0.000000
      5          1           0       -0.228299    4.173341    0.000000
      6          1           0       -0.744533    2.659815    0.000000
 ---------------------------------------------------------------------

 SCF Done:  E(RHF) =  -152.107427077     A.U. after   10 cycles
 E2 =    -0.5258775685D+00 EUMP2 =    -0.15263330464559D+03
 CCSD(T)
 CCSD(T)= -0.15266052433D+03

 The electronic state is 1-A'.
 Alpha  occ. eigenvalues --  -20.55601 -20.55163  -1.32900  -1.32461  -0.70306
 Alpha  occ. eigenvalues --   -0.69861  -0.56348  -0.55907  -0.50012  -0.49574
 Alpha virt. eigenvalues --    0.14068   0.14520   0.20151   0.20619   0.54254
 Alpha virt. eigenvalues --    0.54713   0.57175   0.57614   0.67824   0.68304
 Alpha virt. eigenvalues --    0.78868   0.79299   0.80298   0.80762   0.82230

 Mulliken charges:
               1
     1  O   -0.509005
     2  H    0.253357
     3  H    0.255648
     4  O   -0.508740
     5  H    0.252208
     6  H    0.256532
 Sum of Mulliken charges =   0.00000

 Dipole moment (field-independent basis, Debye):
    X=             -1.8611    Y=             -1.3511    Z=              0.0000  Tot=              2.2998
 Quadrupole moment (field-independent basis, Debye-Ang):
   XX=             -9.6488   YY=              6.6022   ZZ=            -14.7121
   XY=             -5.5639   XZ=              0.0000   YZ=              0.0000

 Normal termination of Gaussian 16 at Sat Aug 27 07:47:01 2022.
