 Gaussian 16, Revision A.03,
 Gaussian 16:  ES64L-G16RevA.03 25-Dec-2016

 ------------------
 #p CCSD(T)/cc-pVTZ
 ------------------

 -----------
 H2O_H2O_350
 -----------
 Symbolic Z-matrix:
 Charge =  0 Multiplicity = 1

                         Standard orientation:
 ---------------------------------------------------------------------
 Center     Atomic      Atomic             Coordinates (Angstroms)
 Number     Number       Type             X           Y           Z
 ---------------------------------------------------------------------
      1          8           0        0.000000   -0.000000    0.989742
      2          1           0        0.000000    0.799571    1.560874
      3          1           0       -0.000000   -0.799571    1.560874
      4          8           0        0.000000   -0.000000   -0.989742
      5          1           0       -0.000000   -0.799571   -1.560874
      6          1           0        0.000000    0.799571   -1.560874
 ---------------------------------------------------------------------

 SCF Done:  E(RHF) =  -152.044859597     A.U. after   11 cycles
 E2 =    -0.5359150482D+00 EUMP2 =    -0.15258077464533D+03
 CCSD(T)
 CCSD(T)= -0.15260751774D+03

 The electronic state is 1-AG.
 Alpha  occ. eigenvalues --  -20.51681 -20.51679  -1.32039  -1.28370  -0.68518
 Alpha  occ. eigenvalues --   -0.66310  -0.61526  -0.49236  -0.44769  -0.42899
 Alpha virt. eigenvalues --    0.14675   0.18550   0.20453   0.22823   0.50196
 Alpha virt. eigenvalues --    0.59187   0.59298   0.66507   0.69695   0.78211
 Alpha virt. eigenvalues --    0.79464   0.83030   0.84514   0.86670   0.87295

 Mulliken charges:
               1
     1  O   -0.424644
     2  H    0.212322
     3  H    0.212322
     4  O   -0.424644
     5  H    0.212322
     6  H    0.212322
 Sum of Mulliken charges =  -0.00000

 Dipole moment (field-independent basis, Debye):
    X=             -0.0000    Y=              0.0000    Z=              0.0000  Tot=              0.0000
 Quadrupole moment (field-independent basis, Debye-Ang):
   XX=            -14.7542   YY=             -8.1725   ZZ=             -5.9215
   XY=              0.0000   XZ=             -0.0000   YZ=             -0.0000

 MP4DQ=-152.587802\MP4SDQ=-152.5913833\CCSD=-152.5905804\CCSD(T)=-152.6
 Normal termination of Gaussian 16 at Fri Aug 26 15:33:27 2022.
