 Gaussian 16, Revision A.03,
 Gaussian 16:  ES64L-G16RevA.03 25-Dec-2016

 ------------------
 #p CCSD(T)/cc-pVTZ
 ------------------

 ------------
 H2O_H2O_1780
 ------------
 Symbolic Z-matrix:
 Charge =  0 Multiplicity = 1

                         Standard orientation:
 ---------------------------------------------------------------------
 Center     Atomic      Atomic             Coordinates (Angstroms)
 Number     Number       Type             X           Y           Z
 ---------------------------------------------------------------------
      1          8           0        0.018361   -1.744334    0.000000
      2          1           0       -0.781726   -2.314742    0.000000
      3          1           0        0.817415   -2.316189    0.000000
      4          8           0        0.018361    1.750363    0.000000
      5          1           0        0.592637    2.547679    0.000000
      6          1           0       -0.922104    2.035021    0.000000
 ---------------------------------------------------------------------

 SCF Done:  E(RHF) =  -152.104200923     A.U. after   10 cycles
 E2 =    -0.5266676585D+00 EUMP2 =    -0.15263086858135D+03
 CCSD(T)
 CCSD(T)= -0.15265811990D+03

 The electronic state is 1-A'.
 Alpha  occ. eigenvalues --  -20.54378 -20.54259  -1.31663  -1.31527  -0.69087
 Alpha  occ. eigenvalues --   -0.68948  -0.55359  -0.54346  -0.48789  -0.48589
 Alpha virt. eigenvalues --    0.14172   0.16135   0.20559   0.21494   0.53178
 Alpha virt. eigenvalues --    0.57077   0.58040   0.58426   0.61900   0.76140
 Alpha virt. eigenvalues --    0.78936   0.79252   0.80360   0.81253   0.83924

 Mulliken charges:
               1
     1  O   -0.485621
     2  H    0.240886
     3  H    0.244963
     4  O   -0.485582
     5  H    0.240330
     6  H    0.245025
 Sum of Mulliken charges =  -0.00000

 Dipole moment (field-independent basis, Debye):
    X=             -0.6130    Y=             -0.1120    Z=              0.0000  Tot=              0.6232
 Quadrupole moment (field-independent basis, Debye-Ang):
   XX=             -8.0657   YY=              1.5804   ZZ=            -14.7093
   XY=             -0.5799   XZ=              0.0000   YZ=              0.0000

 Normal termination of Gaussian 16 at Sat Aug 27 06:44:55 2022.
