 Gaussian 16, Revision A.03,
 Gaussian 16:  ES64L-G16RevA.03 25-Dec-2016

 ------------------
 #p CCSD(T)/cc-pVTZ
 ------------------

 -----------
 H2O_H2O_104
 -----------
 Symbolic Z-matrix:
 Charge =  0 Multiplicity = 1

                         Standard orientation:
 ---------------------------------------------------------------------
 Center     Atomic      Atomic             Coordinates (Angstroms)
 Number     Number       Type             X           Y           Z
 ---------------------------------------------------------------------
      1          8           0        0.014785   -0.854692    0.000000
      2          1           0       -0.785634   -1.424635    0.000000
      3          1           0        0.813507   -1.427011    0.000000
      4          8           0        0.014785    0.858540    0.000000
      5          1           0        0.640418    1.616227    0.000000
      6          1           0       -0.904849    1.204634    0.000000
 ---------------------------------------------------------------------

 SCF Done:  E(RHF) =  -151.965067904     A.U. after   11 cycles
 E2 =    -0.5460770765D+00 EUMP2 =    -0.15251114498068D+03
 CCSD(T)
 CCSD(T)= -0.15253644225D+03

 The electronic state is 1-A'.
 Alpha  occ. eigenvalues --  -20.51344 -20.51234  -1.35102  -1.27179  -0.70319
 Alpha  occ. eigenvalues --   -0.67225  -0.64414  -0.51620  -0.43448  -0.35921
 Alpha virt. eigenvalues --    0.14512   0.19323   0.19990   0.23136   0.51111
 Alpha virt. eigenvalues --    0.58411   0.59136   0.66469   0.68734   0.79115
 Alpha virt. eigenvalues --    0.80290   0.83835   0.84013   0.86029   0.88058

 Mulliken charges:
               1
     1  O   -0.374263
     2  H    0.180061
     3  H    0.194281
     4  O   -0.362733
     5  H    0.153443
     6  H    0.209211
 Sum of Mulliken charges =  -0.00000

 Dipole moment (field-independent basis, Debye):
    X=             -0.4203    Y=             -0.1003    Z=              0.0000  Tot=              0.4321
 Quadrupole moment (field-independent basis, Debye-Ang):
   XX=             -8.5075   YY=             -8.1905   ZZ=            -14.7567
   XY=             -0.1846   XZ=              0.0000   YZ=              0.0000

 2415\MP4DQ=-152.5154024\MP4SDQ=-152.519529\CCSD=-152.5183656\CCSD(T)=-
 Normal termination of Gaussian 16 at Fri Aug 26 12:48:05 2022.
