 Gaussian 16, Revision A.03,
 Gaussian 16:  ES64L-G16RevA.03 25-Dec-2016

 ------------------
 #p CCSD(T)/cc-pVTZ
 ------------------

 ------------
 H2O_H2O_2352
 ------------
 Symbolic Z-matrix:
 Charge =  0 Multiplicity = 1

                         Standard orientation:
 ---------------------------------------------------------------------
 Center     Atomic      Atomic             Coordinates (Angstroms)
 Number     Number       Type             X           Y           Z
 ---------------------------------------------------------------------
      1          8           0        0.007455   -2.052886    0.000000
      2          1           0       -0.792294   -2.623768    0.000000
      3          1           0        0.806847   -2.624268    0.000000
      4          8           0        0.007455    2.053859    0.000000
      5          1           0        0.725847    2.724246    0.000000
      6          1           0       -0.859680    2.516010    0.000000
 ---------------------------------------------------------------------

 SCF Done:  E(RHF) =  -152.105274021     A.U. after   10 cycles
 E2 =    -0.5262404067D+00 EUMP2 =    -0.15263151442743D+03
 CCSD(T)
 CCSD(T)= -0.15265876408D+03

 The electronic state is 1-A'.
 Alpha  occ. eigenvalues --  -20.54621 -20.54607  -1.31908  -1.31891  -0.69324
 Alpha  occ. eigenvalues --   -0.69306  -0.55374  -0.55083  -0.49016  -0.48977
 Alpha virt. eigenvalues --    0.14237   0.15510   0.20633   0.21057   0.54498
 Alpha virt. eigenvalues --    0.55987   0.57878   0.58105   0.63041   0.74140
 Alpha virt. eigenvalues --    0.79578   0.80159   0.80979   0.81414   0.81795

 Mulliken charges:
               1
     1  O   -0.495438
     2  H    0.247172
     3  H    0.248276
     4  O   -0.495403
     5  H    0.247034
     6  H    0.248359
 Sum of Mulliken charges =  -0.00000

 Dipole moment (field-independent basis, Debye):
    X=             -0.2524    Y=             -0.0175    Z=              0.0000  Tot=              0.2530
 Quadrupole moment (field-independent basis, Debye-Ang):
   XX=             -7.8672   YY=              4.2595   ZZ=            -14.7094
   XY=             -0.2994   XZ=              0.0000   YZ=              0.0000

 81837\MP4DQ=-152.640601\MP4SDQ=-152.6436812\CCSD=-152.643084\CCSD(T)=-
 Normal termination of Gaussian 16 at Sat Aug 27 10:05:08 2022.
