 Gaussian 16, Revision A.03,
 Gaussian 16:  ES64L-G16RevA.03 25-Dec-2016

 ------------------
 #p CCSD(T)/cc-pVTZ
 ------------------

 ------------
 H2O_H2O_3642
 ------------
 Symbolic Z-matrix:
 Charge =  0 Multiplicity = 1

                         Standard orientation:
 ---------------------------------------------------------------------
 Center     Atomic      Atomic             Coordinates (Angstroms)
 Number     Number       Type             X           Y           Z
 ---------------------------------------------------------------------
      1          8           0        0.051275   -2.696998    0.000000
      2          1           0       -0.749218   -3.266837    0.000000
      3          1           0        0.849922   -3.269421    0.000000
      4          8           0        0.051275    2.760537    0.000000
      5          1           0       -0.105749    3.730511    0.000000
      6          1           0       -0.815349    2.297428    0.000000
 ---------------------------------------------------------------------

 SCF Done:  E(RHF) =  -152.107236554     A.U. after   10 cycles
 E2 =    -0.5259169356D+00 EUMP2 =    -0.15263315349001D+03
 CCSD(T)
 CCSD(T)= -0.15266037554D+03

 The electronic state is 1-A'.
 Alpha  occ. eigenvalues --  -20.55493 -20.54990  -1.32790  -1.32285  -0.70197
 Alpha  occ. eigenvalues --   -0.69681  -0.56230  -0.55722  -0.49901  -0.49398
 Alpha virt. eigenvalues --    0.14043   0.14765   0.20212   0.20808   0.54346
 Alpha virt. eigenvalues --    0.54890   0.57268   0.57760   0.67656   0.68849
 Alpha virt. eigenvalues --    0.78980   0.79473   0.80400   0.80850   0.82528

 Mulliken charges:
               1
     1  O   -0.507884
     2  H    0.252211
     3  H    0.255697
     4  O   -0.507470
     5  H    0.250686
     6  H    0.256760
 Sum of Mulliken charges =  -0.00000

 Dipole moment (field-independent basis, Debye):
    X=             -1.7575    Y=             -1.1176    Z=              0.0000  Tot=              2.0827
 Quadrupole moment (field-independent basis, Debye-Ang):
   XX=             -9.4576   YY=              5.2872   ZZ=            -14.7119
   XY=             -4.2343   XZ=              0.0000   YZ=              0.0000

 Normal termination of Gaussian 16 at Sat Aug 27 02:09:13 2022.
