 Gaussian 16, Revision A.03,
 Gaussian 16:  ES64L-G16RevA.03 25-Dec-2016

 ------------------
 #p CCSD(T)/cc-pVTZ
 ------------------

 ------------
 H2O_H2O_2838
 ------------
 Symbolic Z-matrix:
 Charge =  0 Multiplicity = 1

                         Standard orientation:
 ---------------------------------------------------------------------
 Center     Atomic      Atomic             Coordinates (Angstroms)
 Number     Number       Type             X           Y           Z
 ---------------------------------------------------------------------
      1          8           0        0.042971   -2.284978    0.000000
      2          1           0       -0.757515   -2.854827    0.000000
      3          1           0        0.841625   -2.857392    0.000000
      4          8           0        0.042971    2.323752    0.000000
      5          1           0        0.142333    3.301317    0.000000
      6          1           0       -0.913982    2.100711    0.000000
 ---------------------------------------------------------------------

 SCF Done:  E(RHF) =  -152.106603490     A.U. after   10 cycles
 E2 =    -0.5260347390D+00 EUMP2 =    -0.15263263822940D+03
 CCSD(T)
 CCSD(T)= -0.15265986816D+03

 The electronic state is 1-A'.
 Alpha  occ. eigenvalues --  -20.55198 -20.54761  -1.32491  -1.32050  -0.69901
 Alpha  occ. eigenvalues --   -0.69446  -0.55897  -0.55456  -0.49597  -0.49159
 Alpha virt. eigenvalues --    0.13961   0.15215   0.20338   0.21061   0.54393
 Alpha virt. eigenvalues --    0.55097   0.57518   0.57917   0.66412   0.71369
 Alpha virt. eigenvalues --    0.79272   0.79720   0.80556   0.81398   0.82886

 Mulliken charges:
               1
     1  O   -0.503813
     2  H    0.249619
     3  H    0.254341
     4  O   -0.503407
     5  H    0.248114
     6  H    0.255145
 Sum of Mulliken charges =   0.00000

 Dipole moment (field-independent basis, Debye):
    X=             -1.4641    Y=             -0.6904    Z=              0.0000  Tot=              1.6187
 Quadrupole moment (field-independent basis, Debye-Ang):
   XX=             -8.9702   YY=              4.3440   ZZ=            -14.7112
   XY=             -2.5971   XZ=              0.0000   YZ=              0.0000

 Normal termination of Gaussian 16 at Fri Aug 26 16:38:58 2022.
