 Gaussian 16, Revision A.03,
 Gaussian 16:  ES64L-G16RevA.03 25-Dec-2016

 ------------------
 #p CCSD(T)/cc-pVTZ
 ------------------

 ------------
 H2O_H2O_1088
 ------------
 Symbolic Z-matrix:
 Charge =  0 Multiplicity = 1

                         Standard orientation:
 ---------------------------------------------------------------------
 Center     Atomic      Atomic             Coordinates (Angstroms)
 Number     Number       Type             X           Y           Z
 ---------------------------------------------------------------------
      1          8           0        0.042992   -1.354313    0.000000
      2          1           0       -0.758113   -1.923291    0.000000
      3          1           0        0.841023   -1.927594    0.000000
      4          8           0        0.042992    1.392993    0.000000
      5          1           0        0.143417    2.370449    0.000000
      6          1           0       -0.914203    1.170992    0.000000
 ---------------------------------------------------------------------

 SCF Done:  E(RHF) =  -152.101642718     A.U. after   11 cycles
 E2 =    -0.5280946483D+00 EUMP2 =    -0.15262973736620D+03
 CCSD(T)
 CCSD(T)= -0.15265696464D+03

 The electronic state is 1-A'.
 Alpha  occ. eigenvalues --  -20.54564 -20.53399  -1.31988  -1.30637  -0.69402
 Alpha  occ. eigenvalues --   -0.68133  -0.56095  -0.52874  -0.49146  -0.47651
 Alpha virt. eigenvalues --    0.13965   0.17090   0.20215   0.22953   0.53485
 Alpha virt. eigenvalues --    0.57881   0.58195   0.58981   0.69227   0.76349
 Alpha virt. eigenvalues --    0.76498   0.76907   0.81950   0.83023   0.85502

 Mulliken charges:
               1
     1  O   -0.475738
     2  H    0.231750
     3  H    0.246915
     4  O   -0.470552
     5  H    0.222318
     6  H    0.245307
 Sum of Mulliken charges =  -0.00000

 Dipole moment (field-independent basis, Debye):
    X=             -1.3758    Y=             -0.7480    Z=              0.0000  Tot=              1.5660
 Quadrupole moment (field-independent basis, Debye-Ang):
   XX=             -9.0430   YY=             -2.2602   ZZ=            -14.7194
   XY=             -1.2708   XZ=              0.0000   YZ=              0.0000

 Normal termination of Gaussian 16 at Sat Aug 27 01:59:38 2022.
