 Gaussian 16, Revision A.03,
 Gaussian 16:  ES64L-G16RevA.03 25-Dec-2016

 ------------------
 #p CCSD(T)/cc-pVTZ
 ------------------

 ------------
 H2O_H2O_1519
 ------------
 Symbolic Z-matrix:
 Charge =  0 Multiplicity = 1

                         Standard orientation:
 ---------------------------------------------------------------------
 Center     Atomic      Atomic             Coordinates (Angstroms)
 Number     Number       Type             X           Y           Z
 ---------------------------------------------------------------------
      1          8           0        0.054195   -1.559427    0.000000
      2          1           0       -0.747037   -2.128227    0.000000
      3          1           0        0.852099   -2.132886    0.000000
      4          8           0        0.054195    1.636621    0.000000
      5          1           0       -0.226872    2.578167    0.000000
      6          1           0       -0.745309    1.065394    0.000000
 ---------------------------------------------------------------------

 SCF Done:  E(RHF) =  -152.107390756     A.U. after   10 cycles
 E2 =    -0.5269900484D+00 EUMP2 =    -0.15263438080413D+03
 CCSD(T)
 CCSD(T)= -0.15266152996D+03

 The electronic state is 1-A'.
 Alpha  occ. eigenvalues --  -20.55755 -20.53706  -1.33043  -1.30980  -0.70459
 Alpha  occ. eigenvalues --   -0.68383  -0.56433  -0.54382  -0.50159  -0.48102
 Alpha virt. eigenvalues --    0.13368   0.16827   0.19875   0.23666   0.53887
 Alpha virt. eigenvalues --    0.55142   0.57065   0.58296   0.66646   0.75944
 Alpha virt. eigenvalues --    0.76732   0.77012   0.79372   0.81653   0.84665

 Mulliken charges:
               1
     1  O   -0.490158
     2  H    0.241781
     3  H    0.255343
     4  O   -0.501719
     5  H    0.236418
     6  H    0.258336
 Sum of Mulliken charges =  -0.00000

 Dipole moment (field-independent basis, Debye):
    X=             -1.7849    Y=             -1.4794    Z=              0.0000  Tot=              2.3183
 Quadrupole moment (field-independent basis, Debye-Ang):
   XX=             -9.6616   YY=             -1.9875   ZZ=            -14.7201
   XY=             -2.6521   XZ=              0.0000   YZ=              0.0000

 Normal termination of Gaussian 16 at Sat Aug 27 05:14:38 2022.
