 Gaussian 16, Revision A.03,
 Gaussian 16:  ES64L-G16RevA.03 25-Dec-2016

 ------------------
 #p CCSD(T)/cc-pVTZ
 ------------------

 ------------
 H2O_H2O_2160
 ------------
 Symbolic Z-matrix:
 Charge =  0 Multiplicity = 1

                         Standard orientation:
 ---------------------------------------------------------------------
 Center     Atomic      Atomic             Coordinates (Angstroms)
 Number     Number       Type             X           Y           Z
 ---------------------------------------------------------------------
      1          8           0        0.034786   -1.934285    0.000000
      2          1           0       -0.765662   -2.504186    0.000000
      3          1           0        0.833478   -2.506646    0.000000
      4          8           0        0.034786    1.957782    0.000000
      5          1           0        0.322892    2.897198    0.000000
      6          1           0       -0.947290    1.925654    0.000000
 ---------------------------------------------------------------------

 SCF Done:  E(RHF) =  -152.105673845     A.U. after   10 cycles
 E2 =    -0.5263202828D+00 EUMP2 =    -0.15263199412816D+03
 CCSD(T)
 CCSD(T)= -0.15265922417D+03

 The electronic state is 1-A'.
 Alpha  occ. eigenvalues --  -20.54849 -20.54468  -1.32130  -1.31744  -0.69547
 Alpha  occ. eigenvalues --   -0.69145  -0.55547  -0.55016  -0.49233  -0.48847
 Alpha virt. eigenvalues --    0.13908   0.15798   0.20427   0.21400   0.53597
 Alpha virt. eigenvalues --    0.55577   0.57790   0.58215   0.63372   0.75269
 Alpha virt. eigenvalues --    0.79284   0.80016   0.80352   0.81083   0.82961

 Mulliken charges:
               1
     1  O   -0.495896
     2  H    0.245233
     3  H    0.251133
     4  O   -0.495957
     5  H    0.243815
     6  H    0.251672
 Sum of Mulliken charges =  -0.00000

 Dipole moment (field-independent basis, Debye):
    X=             -1.1728    Y=             -0.4283    Z=              0.0000  Tot=              1.2485
 Quadrupole moment (field-independent basis, Debye-Ang):
   XX=             -8.5867   YY=              2.5580   ZZ=            -14.7107
   XY=             -1.5173   XZ=              0.0000   YZ=              0.0000

 Normal termination of Gaussian 16 at Sat Aug 27 08:55:36 2022.
