 Gaussian 16, Revision A.03,
 Gaussian 16:  ES64L-G16RevA.03 25-Dec-2016

 ------------------
 #p CCSD(T)/cc-pVTZ
 ------------------

 ------------
 H2O_H2O_1984
 ------------
 Symbolic Z-matrix:
 Charge =  0 Multiplicity = 1

                         Standard orientation:
 ---------------------------------------------------------------------
 Center     Atomic      Atomic             Coordinates (Angstroms)
 Number     Number       Type             X           Y           Z
 ---------------------------------------------------------------------
      1          8           0        0.031745   -1.843570    0.000000
      2          1           0       -0.768667   -2.413523    0.000000
      3          1           0        0.830473   -2.415880    0.000000
      4          8           0        0.031745    1.862728    0.000000
      5          1           0        0.380614    2.781311    0.000000
      6          1           0       -0.950332    1.894836    0.000000
 ---------------------------------------------------------------------

 SCF Done:  E(RHF) =  -152.105245735     A.U. after   10 cycles
 E2 =    -0.5264571810D+00 EUMP2 =    -0.15263170291588D+03
 CCSD(T)
 CCSD(T)= -0.15265893529D+03

 The electronic state is 1-A'.
 Alpha  occ. eigenvalues --  -20.54713 -20.54371  -1.31992  -1.31643  -0.69412
 Alpha  occ. eigenvalues --   -0.69047  -0.55471  -0.54798  -0.49097  -0.48740
 Alpha virt. eigenvalues --    0.13963   0.15964   0.20455   0.21491   0.53340
 Alpha virt. eigenvalues --    0.55878   0.57882   0.58321   0.62783   0.75944
 Alpha virt. eigenvalues --    0.79140   0.79579   0.80698   0.80846   0.83281

 Mulliken charges:
               1
     1  O   -0.492151
     2  H    0.243306
     3  H    0.249388
     4  O   -0.492355
     5  H    0.241973
     6  H    0.249838
 Sum of Mulliken charges =  -0.00000

 Dipole moment (field-independent basis, Debye):
    X=             -1.0657    Y=             -0.3522    Z=              0.0000  Tot=              1.1223
 Quadrupole moment (field-independent basis, Debye-Ang):
   XX=             -8.4680   YY=              2.0188   ZZ=            -14.7104
   XY=             -1.2432   XZ=              0.0000   YZ=              0.0000

 Normal termination of Gaussian 16 at Sat Aug 27 07:55:35 2022.
