 Gaussian 16, Revision A.03,
 Gaussian 16:  ES64L-G16RevA.03 25-Dec-2016

 ------------------
 #p CCSD(T)/cc-pVTZ
 ------------------

 ------------
 H2O_H2O_4043
 ------------
 Symbolic Z-matrix:
 Charge =  0 Multiplicity = 1

                         Standard orientation:
 ---------------------------------------------------------------------
 Center     Atomic      Atomic             Coordinates (Angstroms)
 Number     Number       Type             X           Y           Z
 ---------------------------------------------------------------------
      1          8           0        0.052820   -2.906034    0.000000
      2          1           0       -0.747632   -3.475930    0.000000
      3          1           0        0.851508   -3.478400    0.000000
      4          8           0        0.052820    2.976384    0.000000
      5          1           0       -0.167375    3.933996    0.000000
      6          1           0       -0.781622    2.457528    0.000000
 ---------------------------------------------------------------------

 SCF Done:  E(RHF) =  -152.107347739     A.U. after   10 cycles
 E2 =    -0.5258937666D+00 EUMP2 =    -0.15263324150587D+03
 CCSD(T)
 CCSD(T)= -0.15266046224D+03

 The electronic state is 1-A'.
 Alpha  occ. eigenvalues --  -20.55553 -20.55078  -1.32851  -1.32375  -0.70258
 Alpha  occ. eigenvalues --   -0.69773  -0.56296  -0.55817  -0.49962  -0.49488
 Alpha virt. eigenvalues --    0.14073   0.14625   0.20182   0.20708   0.54300
 Alpha virt. eigenvalues --    0.54804   0.57217   0.57691   0.67801   0.68486
 Alpha virt. eigenvalues --    0.78918   0.79384   0.80348   0.80826   0.82334

 Mulliken charges:
               1
     1  O   -0.508550
     2  H    0.252843
     3  H    0.255712
     4  O   -0.508210
     5  H    0.251497
     6  H    0.256708
 Sum of Mulliken charges =  -0.00000

 Dipole moment (field-independent basis, Debye):
    X=             -1.8134    Y=             -1.2328    Z=              0.0000  Tot=              2.1927
 Quadrupole moment (field-independent basis, Debye-Ang):
   XX=             -9.5592   YY=              5.9088   ZZ=            -14.7120
   XY=             -4.8570   XZ=              0.0000   YZ=              0.0000

 Normal termination of Gaussian 16 at Sat Aug 27 05:04:05 2022.
