 Gaussian 16, Revision A.03,
 Gaussian 16:  ES64L-G16RevA.03 25-Dec-2016

 ------------------
 #p CCSD(T)/cc-pVTZ
 ------------------

 -----------
 H2O_H2O_397
 -----------
 Symbolic Z-matrix:
 Charge =  0 Multiplicity = 1

                         Standard orientation:
 ---------------------------------------------------------------------
 Center     Atomic      Atomic             Coordinates (Angstroms)
 Number     Number       Type             X           Y           Z
 ---------------------------------------------------------------------
      1          8           0        0.056866   -0.949393    0.000000
      2          1           0       -0.745483   -1.516616    0.000000
      3          1           0        0.853640   -1.524420    0.000000
      4          8           0        0.056866    1.048156    0.000000
      5          1           0       -0.400776    1.917679    0.000000
      6          1           0       -0.617242    0.333254    0.000000
 ---------------------------------------------------------------------

 SCF Done:  E(RHF) =  -152.045217276     A.U. after   11 cycles
 E2 =    -0.5381035695D+00 EUMP2 =    -0.15258332084535D+03
 CCSD(T)
 CCSD(T)= -0.15260944055D+03

 The electronic state is 1-A'.
 Alpha  occ. eigenvalues --  -20.56451 -20.49488  -1.36985  -1.27353  -0.74617
 Alpha  occ. eigenvalues --   -0.70658  -0.53038  -0.51793  -0.50455  -0.44285
 Alpha virt. eigenvalues --    0.12937   0.18729   0.19529   0.26707   0.49669
 Alpha virt. eigenvalues --    0.54797   0.62350   0.66613   0.72373   0.74908
 Alpha virt. eigenvalues --    0.78496   0.80384   0.83805   0.85308   0.87785

 Mulliken charges:
               1
     1  O   -0.375888
     2  H    0.199638
     3  H    0.235059
     4  O   -0.501828
     5  H    0.181405
     6  H    0.261615
 Sum of Mulliken charges =   0.00000

 Dipole moment (field-independent basis, Debye):
    X=             -1.6355    Y=             -2.3477    Z=              0.0000  Tot=              2.8613
 Quadrupole moment (field-independent basis, Debye-Ang):
   XX=             -9.8246   YY=             -6.9800   ZZ=            -14.6417
   XY=             -2.0205   XZ=              0.0000   YZ=              0.0000

 Normal termination of Gaussian 16 at Fri Aug 26 16:04:34 2022.
