 Gaussian 16, Revision A.03,
 Gaussian 16:  ES64L-G16RevA.03 25-Dec-2016

 ------------------
 #p CCSD(T)/cc-pVTZ
 ------------------

 -----------
 H2O_H2O_186
 -----------
 Symbolic Z-matrix:
 Charge =  0 Multiplicity = 1

                         Standard orientation:
 ---------------------------------------------------------------------
 Center     Atomic      Atomic             Coordinates (Angstroms)
 Number     Number       Type             X           Y           Z
 ---------------------------------------------------------------------
      1          8           0        0.037708   -0.881419    0.000000
      2          1           0       -0.763925   -1.449653    0.000000
      3          1           0        0.835207   -1.455442    0.000000
      4          8           0        0.037708    0.909493    0.000000
      5          1           0        0.265746    1.865267    0.000000
      6          1           0       -0.940363    0.815239    0.000000
 ---------------------------------------------------------------------

 SCF Done:  E(RHF) =  -152.004491564     A.U. after   11 cycles
 E2 =    -0.5415676163D+00 EUMP2 =    -0.15254605918041D+03
 CCSD(T)
 CCSD(T)= -0.15257210109D+03

 The electronic state is 1-A'.
 Alpha  occ. eigenvalues --  -20.52384 -20.51449  -1.34744  -1.27542  -0.71279
 Alpha  occ. eigenvalues --   -0.68163  -0.60206  -0.51285  -0.44096  -0.40834
 Alpha virt. eigenvalues --    0.14247   0.18707   0.19945   0.23617   0.53541
 Alpha virt. eigenvalues --    0.56508   0.58605   0.64966   0.72041   0.77655
 Alpha virt. eigenvalues --    0.79984   0.82324   0.83188   0.84984   0.88673

 Mulliken charges:
               1
     1  O   -0.396902
     2  H    0.187150
     3  H    0.209387
     4  O   -0.372124
     5  H    0.142574
     6  H    0.229914
 Sum of Mulliken charges =  -0.00000

 Dipole moment (field-independent basis, Debye):
    X=             -1.0454    Y=             -0.6240    Z=              0.0000  Tot=              1.2175
 Quadrupole moment (field-independent basis, Debye-Ang):
   XX=             -8.9921   YY=             -7.3446   ZZ=            -14.7043
   XY=             -0.5186   XZ=              0.0000   YZ=              0.0000

 Normal termination of Gaussian 16 at Fri Aug 26 13:46:36 2022.
