 Gaussian 16, Revision A.03,
 Gaussian 16:  ES64L-G16RevA.03 25-Dec-2016

 ------------------
 #p CCSD(T)/cc-pVTZ
 ------------------

 ------------
 H2O_H2O_3011
 ------------
 Symbolic Z-matrix:
 Charge =  0 Multiplicity = 1

                         Standard orientation:
 ---------------------------------------------------------------------
 Center     Atomic      Atomic             Coordinates (Angstroms)
 Number     Number       Type             X           Y           Z
 ---------------------------------------------------------------------
      1          8           0        0.037677   -2.383768    0.000000
      2          1           0       -0.762666   -2.953818    0.000000
      3          1           0        0.836475   -2.955980    0.000000
      4          8           0        0.037677    2.412013    0.000000
      5          1           0        0.263545    3.368302    0.000000
      6          1           0       -0.940179    2.315539    0.000000
 ---------------------------------------------------------------------

 SCF Done:  E(RHF) =  -152.106488742     A.U. after   10 cycles
 E2 =    -0.5260163490D+00 EUMP2 =    -0.15263250509057D+03
 CCSD(T)
 CCSD(T)= -0.15265974053D+03

 The electronic state is 1-A'.
 Alpha  occ. eigenvalues --  -20.55126 -20.54837  -1.32420  -1.32127  -0.69830
 Alpha  occ. eigenvalues --   -0.69528  -0.55822  -0.55530  -0.49525  -0.49234
 Alpha virt. eigenvalues --    0.14156   0.15037   0.20420   0.20902   0.54584
 Alpha virt. eigenvalues --    0.55091   0.57572   0.57862   0.66928   0.70477
 Alpha virt. eigenvalues --    0.79348   0.79642   0.80724   0.81204   0.82737

 Mulliken charges:
               1
     1  O   -0.503412
     2  H    0.249871
     3  H    0.253589
     4  O   -0.502998
     5  H    0.248805
     6  H    0.254145
 Sum of Mulliken charges =  -0.00000

 Dipole moment (field-independent basis, Debye):
    X=             -1.2858    Y=             -0.5004    Z=              0.0000  Tot=              1.3797
 Quadrupole moment (field-independent basis, Debye-Ang):
   XX=             -8.7026   YY=              5.5994   ZZ=            -14.7107
   XY=             -2.2711   XZ=              0.0000   YZ=              0.0000

 Normal termination of Gaussian 16 at Fri Aug 26 18:28:18 2022.
