 Gaussian 16, Revision A.03,
 Gaussian 16:  ES64L-G16RevA.03 25-Dec-2016

 ------------------
 #p CCSD(T)/cc-pVTZ
 ------------------

 ------------
 H2O_H2O_1112
 ------------
 Symbolic Z-matrix:
 Charge =  0 Multiplicity = 1

                         Standard orientation:
 ---------------------------------------------------------------------
 Center     Atomic      Atomic             Coordinates (Angstroms)
 Number     Number       Type             X           Y           Z
 ---------------------------------------------------------------------
      1          8           0        0.040427   -1.370557    0.000000
      2          1           0       -0.760573   -1.939683    0.000000
      3          1           0        0.838564   -1.943691    0.000000
      4          8           0        0.040427    1.403810    0.000000
      5          1           0        0.204386    2.372635    0.000000
      6          1           0       -0.929209    1.244709    0.000000
 ---------------------------------------------------------------------

 SCF Done:  E(RHF) =  -152.101526544     A.U. after   11 cycles
 E2 =    -0.5279986659D+00 EUMP2 =    -0.15262952520991D+03
 CCSD(T)
 CCSD(T)= -0.15265676484D+03

 The electronic state is 1-A'.
 Alpha  occ. eigenvalues --  -20.54434 -20.53463  -1.31846  -1.30703  -0.69261
 Alpha  occ. eigenvalues --   -0.68179  -0.56054  -0.52835  -0.49010  -0.47708
 Alpha virt. eigenvalues --    0.14030   0.17031   0.20275   0.22775   0.53306
 Alpha virt. eigenvalues --    0.57992   0.58267   0.59155   0.68862   0.76454
 Alpha virt. eigenvalues --    0.76565   0.76990   0.81705   0.83044   0.85614

 Mulliken charges:
               1
     1  O   -0.475588
     2  H    0.231697
     3  H    0.245888
     4  O   -0.469243
     5  H    0.223195
     6  H    0.244052
 Sum of Mulliken charges =  -0.00000

 Dipole moment (field-independent basis, Debye):
    X=             -1.2969    Y=             -0.6406    Z=              0.0000  Tot=              1.4465
 Quadrupole moment (field-independent basis, Debye-Ang):
   XX=             -8.9130   YY=             -2.0310   ZZ=            -14.7182
   XY=             -1.1444   XZ=              0.0000   YZ=              0.0000

 Normal termination of Gaussian 16 at Sat Aug 27 02:13:37 2022.
