 Gaussian 16, Revision A.03,
 Gaussian 16:  ES64L-G16RevA.03 25-Dec-2016

 ------------------
 #p CCSD(T)/cc-pVTZ
 ------------------

 -----------
 H2O_H2O_660
 -----------
 Symbolic Z-matrix:
 Charge =  0 Multiplicity = 1

                         Standard orientation:
 ---------------------------------------------------------------------
 Center     Atomic      Atomic             Coordinates (Angstroms)
 Number     Number       Type             X           Y           Z
 ---------------------------------------------------------------------
      1          8           0        0.034799   -1.136569    0.000000
      2          1           0       -0.766258   -1.705615    0.000000
      3          1           0        0.832879   -1.709783    0.000000
      4          8           0        0.034799    1.159992    0.000000
      5          1           0        0.323908    2.099100    0.000000
      6          1           0       -0.947311    1.128913    0.000000
 ---------------------------------------------------------------------

 SCF Done:  E(RHF) =  -152.086106912     A.U. after   11 cycles
 E2 =    -0.5307603750D+00 EUMP2 =    -0.15261686728704D+03
 CCSD(T)
 CCSD(T)= -0.15264404026D+03

 The electronic state is 1-A'.
 Alpha  occ. eigenvalues --  -20.53421 -20.52647  -1.31667  -1.29726  -0.68898
 Alpha  occ. eigenvalues --   -0.67589  -0.57601  -0.49235  -0.48926  -0.46465
 Alpha virt. eigenvalues --    0.14299   0.17645   0.20348   0.23067   0.52621
 Alpha virt. eigenvalues --    0.58189   0.58373   0.62503   0.70669   0.76215
 Alpha virt. eigenvalues --    0.77752   0.80759   0.83720   0.86023   0.87465

 Mulliken charges:
               1
     1  O   -0.461205
     2  H    0.221518
     3  H    0.238556
     4  O   -0.439693
     5  H    0.202092
     6  H    0.238731
 Sum of Mulliken charges =  -0.00000

 Dipole moment (field-independent basis, Debye):
    X=             -1.0600    Y=             -0.4626    Z=              0.0000  Tot=              1.1565
 Quadrupole moment (field-independent basis, Debye-Ang):
   XX=             -8.7376   YY=             -4.0576   ZZ=            -14.7298
   XY=             -0.6271   XZ=              0.0000   YZ=              0.0000

 Normal termination of Gaussian 16 at Fri Aug 26 18:46:52 2022.
