 Gaussian 16, Revision A.03,
 Gaussian 16:  ES64L-G16RevA.03 25-Dec-2016

 ------------------
 #p CCSD(T)/cc-pVTZ
 ------------------

 -----------
 H2O_H2O_478
 -----------
 Symbolic Z-matrix:
 Charge =  0 Multiplicity = 1

                         Standard orientation:
 ---------------------------------------------------------------------
 Center     Atomic      Atomic             Coordinates (Angstroms)
 Number     Number       Type             X           Y           Z
 ---------------------------------------------------------------------
      1          8           0        0.011143   -1.055040    0.000000
      2          1           0       -0.788946   -1.625445    0.000000
      3          1           0        0.810195   -1.626898    0.000000
      4          8           0        0.011143    1.057214    0.000000
      5          1           0        0.684578    1.772750    0.000000
      6          1           0       -0.884119    1.462197    0.000000
 ---------------------------------------------------------------------

 SCF Done:  E(RHF) =  -152.065945008     A.U. after   10 cycles
 E2 =    -0.5331890359D+00 EUMP2 =    -0.15259913404425D+03
 CCSD(T)
 CCSD(T)= -0.15262615441D+03

 The electronic state is 1-A'.
 Alpha  occ. eigenvalues --  -20.52170 -20.52103  -1.31517  -1.28948  -0.68371
 Alpha  occ. eigenvalues --   -0.66790  -0.59773  -0.48800  -0.45533  -0.45460
 Alpha virt. eigenvalues --    0.14618   0.18188   0.20515   0.22750   0.50441
 Alpha virt. eigenvalues --    0.59045   0.59141   0.65508   0.70615   0.77456
 Alpha virt. eigenvalues --    0.78503   0.82226   0.84374   0.86674   0.87150

 Mulliken charges:
               1
     1  O   -0.440818
     2  H    0.216910
     3  H    0.223242
     4  O   -0.435488
     5  H    0.209215
     6  H    0.226940
 Sum of Mulliken charges =  -0.00000

 Dipole moment (field-independent basis, Debye):
    X=             -0.3313    Y=             -0.0448    Z=              0.0000  Tot=              0.3343
 Quadrupole moment (field-independent basis, Debye-Ang):
   XX=             -8.1749   YY=             -5.0327   ZZ=            -14.7460
   XY=             -0.1132   XZ=              0.0000   YZ=              0.0000

 578\MP4DQ=-152.6068315\MP4SDQ=-152.6102726\CCSD=-152.6095376\CCSD(T)=-
 Normal termination of Gaussian 16 at Fri Aug 26 16:50:13 2022.
