 Gaussian 16, Revision A.03,
 Gaussian 16:  ES64L-G16RevA.03 25-Dec-2016

 ------------------
 #p CCSD(T)/cc-pVTZ
 ------------------

 ------------
 H2O_H2O_2692
 ------------
 Symbolic Z-matrix:
 Charge =  0 Multiplicity = 1

                         Standard orientation:
 ---------------------------------------------------------------------
 Center     Atomic      Atomic             Coordinates (Angstroms)
 Number     Number       Type             X           Y           Z
 ---------------------------------------------------------------------
      1          8           0        0.051286   -2.191772    0.000000
      2          1           0       -0.749416   -2.761318    0.000000
      3          1           0        0.849723   -2.764489    0.000000
      4          8           0        0.051286    2.255274    0.000000
      5          1           0       -0.105381    3.225306    0.000000
      6          1           0       -0.815507    1.792484    0.000000
 ---------------------------------------------------------------------

 SCF Done:  E(RHF) =  -152.107141731     A.U. after   10 cycles
 E2 =    -0.5260419820D+00 EUMP2 =    -0.15263318371346D+03
 CCSD(T)
 CCSD(T)= -0.15266039566D+03

 The electronic state is 1-A'.
 Alpha  occ. eigenvalues --  -20.55457 -20.54659  -1.32747  -1.31949  -0.70156
 Alpha  occ. eigenvalues --   -0.69335  -0.56173  -0.55376  -0.49856  -0.49063
 Alpha virt. eigenvalues --    0.13581   0.15450   0.20153   0.21404   0.54099
 Alpha virt. eigenvalues --    0.54891   0.57326   0.58025   0.66174   0.72280
 Alpha virt. eigenvalues --    0.79014   0.79813   0.80050   0.81607   0.82788

 Mulliken charges:
               1
     1  O   -0.505694
     2  H    0.250079
     3  H    0.256181
     4  O   -0.506106
     5  H    0.247691
     6  H    0.257849
 Sum of Mulliken charges =  -0.00000

 Dipole moment (field-independent basis, Debye):
    X=             -1.7446    Y=             -1.1390    Z=              0.0000  Tot=              2.0835
 Quadrupole moment (field-independent basis, Debye-Ang):
   XX=             -9.4591   YY=              2.3490   ZZ=            -14.7127
   XY=             -3.3585   XZ=              0.0000   YZ=              0.0000

 Normal termination of Gaussian 16 at Fri Aug 26 15:09:00 2022.
