 Gaussian 16, Revision A.03,
 Gaussian 16:  ES64L-G16RevA.03 25-Dec-2016

 ------------------
 #p CCSD(T)/cc-pVTZ
 ------------------

 ------------
 H2O_H2O_3688
 ------------
 Symbolic Z-matrix:
 Charge =  0 Multiplicity = 1

                         Standard orientation:
 ---------------------------------------------------------------------
 Center     Atomic      Atomic             Coordinates (Angstroms)
 Number     Number       Type             X           Y           Z
 ---------------------------------------------------------------------
      1          8           0        0.042966   -2.737027    0.000000
      2          1           0       -0.757370   -3.307086    0.000000
      3          1           0        0.841770   -3.309230    0.000000
      4          8           0        0.042966    2.775823    0.000000
      5          1           0        0.142071    3.753414    0.000000
      6          1           0       -0.913928    2.552530    0.000000
 ---------------------------------------------------------------------

 SCF Done:  E(RHF) =  -152.106936420     A.U. after   10 cycles
 E2 =    -0.5259380523D+00 EUMP2 =    -0.15263287447199D+03
 CCSD(T)
 CCSD(T)= -0.15266010350D+03

 The electronic state is 1-A'.
 Alpha  occ. eigenvalues --  -20.55319 -20.55021  -1.32616  -1.32316  -0.70024
 Alpha  occ. eigenvalues --   -0.69716  -0.56041  -0.55741  -0.49724  -0.49425
 Alpha virt. eigenvalues --    0.14238   0.14683   0.20349   0.20705   0.54529
 Alpha virt. eigenvalues --    0.54869   0.57418   0.57719   0.67931   0.68763
 Alpha virt. eigenvalues --    0.79155   0.79449   0.80591   0.80905   0.82568

 Mulliken charges:
               1
     1  O   -0.506122
     2  H    0.251630
     3  H    0.254498
     4  O   -0.505818
     5  H    0.250658
     6  H    0.255154
 Sum of Mulliken charges =  -0.00000

 Dipole moment (field-independent basis, Debye):
    X=             -1.4727    Y=             -0.6813    Z=              0.0000  Tot=              1.6227
 Quadrupole moment (field-independent basis, Debye-Ang):
   XX=             -8.9661   YY=              7.3748   ZZ=            -14.7112
   XY=             -3.2538   XZ=              0.0000   YZ=              0.0000

 Normal termination of Gaussian 16 at Sat Aug 27 02:29:48 2022.
