 Gaussian 16, Revision A.03,
 Gaussian 16:  ES64L-G16RevA.03 25-Dec-2016

 ------------------
 #p CCSD(T)/cc-pVTZ
 ------------------

 ------------
 H2O_H2O_2787
 ------------
 Symbolic Z-matrix:
 Charge =  0 Multiplicity = 1

                         Standard orientation:
 ---------------------------------------------------------------------
 Center     Atomic      Atomic             Coordinates (Angstroms)
 Number     Number       Type             X           Y           Z
 ---------------------------------------------------------------------
      1          8           0        0.040411   -2.261341    0.000000
      2          1           0       -0.760031   -2.831252    0.000000
      3          1           0        0.839109   -2.833693    0.000000
      4          8           0        0.040411    2.294674    0.000000
      5          1           0        0.203421    3.263659    0.000000
      6          1           0       -0.929069    2.134622    0.000000
 ---------------------------------------------------------------------

 SCF Done:  E(RHF) =  -152.106460237     A.U. after   10 cycles
 E2 =    -0.5260520793D+00 EUMP2 =    -0.15263251231655D+03
 CCSD(T)
 CCSD(T)= -0.15265974492D+03

 The electronic state is 1-A'.
 Alpha  occ. eigenvalues --  -20.55132 -20.54748  -1.32424  -1.32036  -0.69835
 Alpha  occ. eigenvalues --   -0.69434  -0.55824  -0.55435  -0.49529  -0.49144
 Alpha virt. eigenvalues --    0.14002   0.15237   0.20376   0.21052   0.54413
 Alpha virt. eigenvalues --    0.55148   0.57570   0.57930   0.66204   0.71638
 Alpha virt. eigenvalues --    0.79332   0.79741   0.80633   0.81407   0.82769

 Mulliken charges:
               1
     1  O   -0.502981
     2  H    0.249267
     3  H    0.253847
     4  O   -0.502558
     5  H    0.247903
     6  H    0.254522
 Sum of Mulliken charges =  -0.00000

 Dipole moment (field-independent basis, Debye):
    X=             -1.3761    Y=             -0.5939    Z=              0.0000  Tot=              1.4988
 Quadrupole moment (field-independent basis, Debye-Ang):
   XX=             -8.8377   YY=              4.4705   ZZ=            -14.7110
   XY=             -2.3374   XZ=              0.0000   YZ=              0.0000

 Normal termination of Gaussian 16 at Fri Aug 26 16:10:21 2022.
