 Gaussian 16, Revision A.03,
 Gaussian 16:  ES64L-G16RevA.03 25-Dec-2016

 ------------------
 #p CCSD(T)/cc-pVTZ
 ------------------

 ------------
 H2O_H2O_2034
 ------------
 Symbolic Z-matrix:
 Charge =  0 Multiplicity = 1

                         Standard orientation:
 ---------------------------------------------------------------------
 Center     Atomic      Atomic             Coordinates (Angstroms)
 Number     Number       Type             X           Y           Z
 ---------------------------------------------------------------------
      1          8           0        0.031744   -1.870162    0.000000
      2          1           0       -0.768656   -2.440131    0.000000
      3          1           0        0.830485   -2.442455    0.000000
      4          8           0        0.031744    1.889320    0.000000
      5          1           0        0.380595    2.807911    0.000000
      6          1           0       -0.950333    1.921408    0.000000
 ---------------------------------------------------------------------

 SCF Done:  E(RHF) =  -152.105336279     A.U. after   10 cycles
 E2 =    -0.5264165771D+00 EUMP2 =    -0.15263175285608D+03
 CCSD(T)
 CCSD(T)= -0.15265898538D+03

 The electronic state is 1-A'.
 Alpha  occ. eigenvalues --  -20.54735 -20.54402  -1.32015  -1.31676  -0.69434
 Alpha  occ. eigenvalues --   -0.69080  -0.55476  -0.54860  -0.49119  -0.48774
 Alpha virt. eigenvalues --    0.13960   0.15911   0.20458   0.21449   0.53428
 Alpha virt. eigenvalues --    0.55823   0.57866   0.58285   0.62835   0.75746
 Alpha virt. eigenvalues --    0.79202   0.79732   0.80595   0.80936   0.83116

 Mulliken charges:
               1
     1  O   -0.493117
     2  H    0.243869
     3  H    0.249739
     4  O   -0.493253
     5  H    0.242574
     6  H    0.250187
 Sum of Mulliken charges =  -0.00000

 Dipole moment (field-independent basis, Debye):
    X=             -1.0671    Y=             -0.3513    Z=              0.0000  Tot=              1.1234
 Quadrupole moment (field-independent basis, Debye-Ang):
   XX=             -8.4660   YY=              2.2227   ZZ=            -14.7104
   XY=             -1.2713   XZ=              0.0000   YZ=              0.0000

 Normal termination of Gaussian 16 at Sat Aug 27 08:13:04 2022.
