 Gaussian 16, Revision A.03,
 Gaussian 16:  ES64L-G16RevA.03 25-Dec-2016

 ------------------
 #p CCSD(T)/cc-pVTZ
 ------------------

 ------------
 H2O_H2O_3364
 ------------
 Symbolic Z-matrix:
 Charge =  0 Multiplicity = 1

                         Standard orientation:
 ---------------------------------------------------------------------
 Center     Atomic      Atomic             Coordinates (Angstroms)
 Number     Number       Type             X           Y           Z
 ---------------------------------------------------------------------
      1          8           0        0.045345   -2.561054    0.000000
      2          1           0       -0.755088   -3.130978    0.000000
      3          1           0        0.844052   -3.133393    0.000000
      4          8           0        0.045345    2.605607    0.000000
      5          1           0        0.080466    3.587580    0.000000
      6          1           0       -0.894945    2.320366    0.000000
 ---------------------------------------------------------------------

 SCF Done:  E(RHF) =  -152.106913547     A.U. after   10 cycles
 E2 =    -0.5259561836D+00 EUMP2 =    -0.15263286973059D+03
 CCSD(T)
 CCSD(T)= -0.15266009793D+03

 The electronic state is 1-A'.
 Alpha  occ. eigenvalues --  -20.55325 -20.54931  -1.32621  -1.32224  -0.70029
 Alpha  occ. eigenvalues --   -0.69622  -0.56044  -0.55648  -0.49729  -0.49334
 Alpha virt. eigenvalues --    0.14121   0.14857   0.20317   0.20833   0.54490
 Alpha virt. eigenvalues --    0.54957   0.57410   0.57795   0.67556   0.69326
 Alpha virt. eigenvalues --    0.79151   0.79537   0.80557   0.80977   0.82684

 Mulliken charges:
               1
     1  O   -0.505965
     2  H    0.251180
     3  H    0.254816
     4  O   -0.505555
     5  H    0.249885
     6  H    0.255639
 Sum of Mulliken charges =  -0.00000

 Dipole moment (field-independent basis, Debye):
    X=             -1.5517    Y=             -0.7857    Z=              0.0000  Tot=              1.7392
 Quadrupole moment (field-independent basis, Debye-Ang):
   XX=             -9.0985   YY=              5.8213   ZZ=            -14.7113
   XY=             -3.2500   XZ=              0.0000   YZ=              0.0000

 Normal termination of Gaussian 16 at Fri Aug 26 21:43:18 2022.
