 Gaussian 16, Revision A.03,
 Gaussian 16:  ES64L-G16RevA.03 25-Dec-2016

 ------------------
 #p CCSD(T)/cc-pVTZ
 ------------------

 -----------
 H2O_H2O_428
 -----------
 Symbolic Z-matrix:
 Charge =  0 Multiplicity = 1

                         Standard orientation:
 ---------------------------------------------------------------------
 Center     Atomic      Atomic             Coordinates (Angstroms)
 Number     Number       Type             X           Y           Z
 ---------------------------------------------------------------------
      1          8           0        0.011143   -1.028448    0.000000
      2          1           0       -0.788959   -1.598835    0.000000
      3          1           0        0.810182   -1.600325    0.000000
      4          8           0        0.011143    1.030623    0.000000
      5          1           0        0.684595    1.746142    0.000000
      6          1           0       -0.884110    1.435626    0.000000
 ---------------------------------------------------------------------

 SCF Done:  E(RHF) =  -152.058891979     A.U. after   11 cycles
 E2 =    -0.5341414755D+00 EUMP2 =    -0.15259303345443D+03
 CCSD(T)
 CCSD(T)= -0.15261996146D+03

 The electronic state is 1-A'.
 Alpha  occ. eigenvalues --  -20.52013 -20.51946  -1.31708  -1.28735  -0.68446
 Alpha  occ. eigenvalues --   -0.66642  -0.60355  -0.48963  -0.45208  -0.44622
 Alpha virt. eigenvalues --    0.14634   0.18302   0.20489   0.22803   0.50469
 Alpha virt. eigenvalues --    0.59067   0.59159   0.65823   0.70202   0.77705
 Alpha virt. eigenvalues --    0.78778   0.82569   0.84391   0.86671   0.87245

 Mulliken charges:
               1
     1  O   -0.436009
     2  H    0.214380
     3  H    0.220976
     4  O   -0.430260
     5  H    0.205502
     6  H    0.225410
 Sum of Mulliken charges =  -0.00000

 Dipole moment (field-independent basis, Debye):
    X=             -0.3286    Y=             -0.0456    Z=              0.0000  Tot=              0.3317
 Quadrupole moment (field-independent basis, Debye-Ang):
   XX=             -8.1981   YY=             -5.3733   ZZ=            -14.7485
   XY=             -0.1091   XZ=              0.0000   YZ=              0.0000

 Normal termination of Gaussian 16 at Fri Aug 26 16:22:26 2022.
