 Gaussian 16, Revision A.03,
 Gaussian 16:  ES64L-G16RevA.03 25-Dec-2016

 ------------------
 #p CCSD(T)/cc-pVTZ
 ------------------

 ------------
 H2O_H2O_3534
 ------------
 Symbolic Z-matrix:
 Charge =  0 Multiplicity = 1

                         Standard orientation:
 ---------------------------------------------------------------------
 Center     Atomic      Atomic             Coordinates (Angstroms)
 Number     Number       Type             X           Y           Z
 ---------------------------------------------------------------------
      1          8           0        0.031740   -2.667902    0.000000
      2          1           0       -0.768413   -3.238218    0.000000
      3          1           0        0.830728   -3.239849    0.000000
      4          8           0        0.031740    2.687088    0.000000
      5          1           0        0.380193    3.605830    0.000000
      6          1           0       -0.950351    2.718751    0.000000
 ---------------------------------------------------------------------

 SCF Done:  E(RHF) =  -152.106633168     A.U. after   10 cycles
 E2 =    -0.5259677552D+00 EUMP2 =    -0.15263260092273D+03
 CCSD(T)
 CCSD(T)= -0.15265983628D+03

 The electronic state is 1-A'.
 Alpha  occ. eigenvalues --  -20.55153 -20.54998  -1.32449  -1.32292  -0.69857
 Alpha  occ. eigenvalues --   -0.69696  -0.55859  -0.55703  -0.49554  -0.49399
 Alpha virt. eigenvalues --    0.14360   0.14705   0.20468   0.20683   0.54690
 Alpha virt. eigenvalues --    0.54899   0.57559   0.57724   0.67970   0.68988
 Alpha virt. eigenvalues --    0.79323   0.79477   0.80763   0.80946   0.82717

 Mulliken charges:
               1
     1  O   -0.504325
     2  H    0.251014
     3  H    0.253315
     4  O   -0.504110
     5  H    0.250406
     6  H    0.253701
 Sum of Mulliken charges =  -0.00000

 Dipole moment (field-independent basis, Debye):
    X=             -1.0869    Y=             -0.3372    Z=              0.0000  Tot=              1.1380
 Quadrupole moment (field-independent basis, Debye-Ang):
   XX=             -8.4411   YY=              8.1817   ZZ=            -14.7106
   XY=             -2.1227   XZ=              0.0000   YZ=              0.0000

 Normal termination of Gaussian 16 at Sat Aug 27 01:17:41 2022.
