 Gaussian 16, Revision A.03,
 Gaussian 16:  ES64L-G16RevA.03 25-Dec-2016

 ------------------
 #p CCSD(T)/cc-pVTZ
 ------------------

 ------------
 H2O_H2O_4795
 ------------
 Symbolic Z-matrix:
 Charge =  0 Multiplicity = 1

                         Standard orientation:
 ---------------------------------------------------------------------
 Center     Atomic      Atomic             Coordinates (Angstroms)
 Number     Number       Type             X           Y           Z
 ---------------------------------------------------------------------
      1          8           0        0.055227   -3.297224    0.000000
      2          1           0       -0.745155   -3.867219    0.000000
      3          1           0        0.853985   -3.869493    0.000000
      4          8           0        0.055227    3.381730    0.000000
      5          1           0       -0.288191    4.302366    0.000000
      6          1           0       -0.704275    2.758302    0.000000
 ---------------------------------------------------------------------

 SCF Done:  E(RHF) =  -152.107479915     A.U. after   10 cycles
 E2 =    -0.5258693380D+00 EUMP2 =    -0.15263334925330D+03
 CCSD(T)
 CCSD(T)= -0.15266056805D+03

 The electronic state is 1-A'.
 Alpha  occ. eigenvalues --  -20.55638 -20.55203  -1.32937  -1.32502  -0.70343
 Alpha  occ. eigenvalues --   -0.69902  -0.56387  -0.55950  -0.50049  -0.49615
 Alpha virt. eigenvalues --    0.14043   0.14480   0.20123   0.20583   0.54218
 Alpha virt. eigenvalues --    0.54670   0.57143   0.57577   0.67792   0.68247
 Alpha virt. eigenvalues --    0.78831   0.79258   0.80260   0.80720   0.82185

 Mulliken charges:
               1
     1  O   -0.509310
     2  H    0.253642
     3  H    0.255669
     4  O   -0.509072
     5  H    0.252555
     6  H    0.256516
 Sum of Mulliken charges =  -0.00000

 Dipole moment (field-independent basis, Debye):
    X=             -1.8996    Y=             -1.4740    Z=              0.0000  Tot=              2.4044
 Quadrupole moment (field-independent basis, Debye-Ang):
   XX=             -9.7244   YY=              6.6009   ZZ=            -14.7122
   XY=             -6.0759   XZ=              0.0000   YZ=              0.0000

 Normal termination of Gaussian 16 at Sat Aug 27 09:22:41 2022.
