 Gaussian 16, Revision A.03,
 Gaussian 16:  ES64L-G16RevA.03 25-Dec-2016

 ------------------
 #p CCSD(T)/cc-pVTZ
 ------------------

 ------------
 H2O_H2O_1154
 ------------
 Symbolic Z-matrix:
 Charge =  0 Multiplicity = 1

                         Standard orientation:
 ---------------------------------------------------------------------
 Center     Atomic      Atomic             Coordinates (Angstroms)
 Number     Number       Type             X           Y           Z
 ---------------------------------------------------------------------
      1          8           0        0.014784   -1.413111    0.000000
      2          1           0       -0.785301   -1.983524    0.000000
      3          1           0        0.813841   -1.984962    0.000000
      4          8           0        0.014784    1.416976    0.000000
      5          1           0        0.639973    2.175030    0.000000
      6          1           0       -0.905053    1.762531    0.000000
 ---------------------------------------------------------------------

 SCF Done:  E(RHF) =  -152.099659817     A.U. after   11 cycles
 E2 =    -0.5278226741D+00 EUMP2 =    -0.15262748249153D+03
 CCSD(T)
 CCSD(T)= -0.15265478922D+03

 The electronic state is 1-A'.
 Alpha  occ. eigenvalues --  -20.53701 -20.53602  -1.31185  -1.30800  -0.68575
 Alpha  occ. eigenvalues --   -0.68284  -0.55929  -0.52255  -0.48415  -0.47706
 Alpha virt. eigenvalues --    0.14391   0.16958   0.20545   0.22066   0.51374
 Alpha virt. eigenvalues --    0.58472   0.58734   0.60754   0.69153   0.76432
 Alpha virt. eigenvalues --    0.77224   0.78429   0.79288   0.83207   0.86195

 Mulliken charges:
               1
     1  O   -0.469382
     2  H    0.231763
     3  H    0.237496
     4  O   -0.466776
     5  H    0.230804
     6  H    0.236094
 Sum of Mulliken charges =  -0.00000

 Dipole moment (field-independent basis, Debye):
    X=             -0.4779    Y=             -0.0734    Z=              0.0000  Tot=              0.4835
 Quadrupole moment (field-independent basis, Debye-Ang):
   XX=             -8.0541   YY=             -1.2766   ZZ=            -14.7135
   XY=             -0.2989   XZ=              0.0000   YZ=              0.0000

 Normal termination of Gaussian 16 at Sat Aug 27 02:33:35 2022.
