 Gaussian 16, Revision A.03,
 Gaussian 16:  ES64L-G16RevA.03 25-Dec-2016

 ------------------
 #p CCSD(T)/cc-pVTZ
 ------------------

 ------------
 H2O_H2O_1913
 ------------
 Symbolic Z-matrix:
 Charge =  0 Multiplicity = 1

                         Standard orientation:
 ---------------------------------------------------------------------
 Center     Atomic      Atomic             Coordinates (Angstroms)
 Number     Number       Type             X           Y           Z
 ---------------------------------------------------------------------
      1          8           0        0.042980   -1.793049    0.000000
      2          1           0       -0.757755   -2.362549    0.000000
      3          1           0        0.841384   -2.365810    0.000000
      4          8           0        0.042980    1.831785    0.000000
      5          1           0        0.142767    2.809307    0.000000
      6          1           0       -0.914070    1.609160    0.000000
 ---------------------------------------------------------------------

 SCF Done:  E(RHF) =  -152.105902061     A.U. after   10 cycles
 E2 =    -0.5264935003D+00 EUMP2 =    -0.15263239556151D+03
 CCSD(T)
 CCSD(T)= -0.15265960688D+03

 The electronic state is 1-A'.
 Alpha  occ. eigenvalues --  -20.55012 -20.54270  -1.32289  -1.31538  -0.69708
 Alpha  occ. eigenvalues --   -0.68927  -0.55716  -0.54807  -0.49396  -0.48645
 Alpha virt. eigenvalues --    0.13727   0.16131   0.20279   0.21895   0.53313
 Alpha virt. eigenvalues --    0.55235   0.57676   0.58484   0.63780   0.76468
 Alpha virt. eigenvalues --    0.78822   0.78887   0.80505   0.80791   0.84549

 Mulliken charges:
               1
     1  O   -0.493538
     2  H    0.243179
     3  H    0.251782
     4  O   -0.495220
     5  H    0.240760
     6  H    0.253037
 Sum of Mulliken charges =  -0.00000

 Dipole moment (field-independent basis, Debye):
    X=             -1.4388    Y=             -0.7161    Z=              0.0000  Tot=              1.6071
 Quadrupole moment (field-independent basis, Debye-Ang):
   XX=             -8.9869   YY=              0.9885   ZZ=            -14.7123
   XY=             -1.8878   XZ=              0.0000   YZ=              0.0000

 Normal termination of Gaussian 16 at Sat Aug 27 07:30:43 2022.
