 Gaussian 16, Revision A.03,
 Gaussian 16:  ES64L-G16RevA.03 25-Dec-2016

 ------------------
 #p CCSD(T)/cc-pVTZ
 ------------------

 ------------
 H2O_H2O_4203
 ------------
 Symbolic Z-matrix:
 Charge =  0 Multiplicity = 1

                         Standard orientation:
 ---------------------------------------------------------------------
 Center     Atomic      Atomic             Coordinates (Angstroms)
 Number     Number       Type             X           Y           Z
 ---------------------------------------------------------------------
      1          8           0        0.011143   -3.036124    0.000000
      2          1           0       -0.788609   -3.607003    0.000000
      3          1           0        0.810533   -3.607508    0.000000
      4          8           0        0.011143    3.038312    0.000000
      5          1           0        0.684154    3.754245    0.000000
      6          1           0       -0.884360    3.442763    0.000000
 ---------------------------------------------------------------------

 SCF Done:  E(RHF) =  -152.106748929     A.U. after   10 cycles
 E2 =    -0.5259395144D+00 EUMP2 =    -0.15263268844363D+03
 CCSD(T)
 CCSD(T)= -0.15265992243D+03

 The electronic state is 1-A'.
 Alpha  occ. eigenvalues --  -20.55162 -20.55149  -1.32458  -1.32444  -0.69865
 Alpha  occ. eigenvalues --   -0.69851  -0.55875  -0.55861  -0.49564  -0.49551
 Alpha virt. eigenvalues --    0.14442   0.14492   0.20495   0.20521   0.54702
 Alpha virt. eigenvalues --    0.54722   0.57563   0.57580   0.68314   0.68434
 Alpha virt. eigenvalues --    0.79314   0.79328   0.80759   0.80774   0.82689

 Mulliken charges:
               1
     1  O   -0.504978
     2  H    0.252207
     3  H    0.252772
     4  O   -0.504962
     5  H    0.252089
     6  H    0.252873
 Sum of Mulliken charges =  -0.00000

 Dipole moment (field-independent basis, Debye):
    X=             -0.3826    Y=             -0.0382    Z=              0.0000  Tot=              0.3845
 Quadrupole moment (field-independent basis, Debye-Ang):
   XX=             -7.8824   YY=             12.1048   ZZ=            -14.7106
   XY=             -0.8216   XZ=              0.0000   YZ=              0.0000

 Normal termination of Gaussian 16 at Sat Aug 27 05:58:16 2022.
