 Gaussian 16, Revision A.03,
 Gaussian 16:  ES64L-G16RevA.03 25-Dec-2016

 ------------------
 #p CCSD(T)/cc-pVTZ
 ------------------

 ------------
 H2O_H2O_2812
 ------------
 Symbolic Z-matrix:
 Charge =  0 Multiplicity = 1

                         Standard orientation:
 ---------------------------------------------------------------------
 Center     Atomic      Atomic             Coordinates (Angstroms)
 Number     Number       Type             X           Y           Z
 ---------------------------------------------------------------------
      1          8           0        0.040410   -2.274636    0.000000
      2          1           0       -0.760026   -2.844555    0.000000
      3          1           0        0.839114   -2.846981    0.000000
      4          8           0        0.040410    2.307970    0.000000
      5          1           0        0.203412    3.276958    0.000000
      6          1           0       -0.929067    2.147910    0.000000
 ---------------------------------------------------------------------

 SCF Done:  E(RHF) =  -152.106474408     A.U. after   10 cycles
 E2 =    -0.5260466353D+00 EUMP2 =    -0.15263252104301D+03
 CCSD(T)
 CCSD(T)= -0.15265975379D+03

 The electronic state is 1-A'.
 Alpha  occ. eigenvalues --  -20.55137 -20.54758  -1.32429  -1.32046  -0.69840
 Alpha  occ. eigenvalues --   -0.69444  -0.55830  -0.55446  -0.49534  -0.49154
 Alpha virt. eigenvalues --    0.14014   0.15215   0.20377   0.21037   0.54432
 Alpha virt. eigenvalues --    0.55140   0.57566   0.57922   0.66294   0.71494
 Alpha virt. eigenvalues --    0.79330   0.79729   0.80638   0.81388   0.82771

 Mulliken charges:
               1
     1  O   -0.503102
     2  H    0.249358
     3  H    0.253868
     4  O   -0.502674
     5  H    0.248010
     6  H    0.254540
 Sum of Mulliken charges =  -0.00000

 Dipole moment (field-independent basis, Debye):
    X=             -1.3765    Y=             -0.5935    Z=              0.0000  Tot=              1.4990
 Quadrupole moment (field-independent basis, Debye-Ang):
   XX=             -8.8374   YY=              4.5627   ZZ=            -14.7109
   XY=             -2.3555   XZ=              0.0000   YZ=              0.0000

 Normal termination of Gaussian 16 at Fri Aug 26 16:24:34 2022.
