 Gaussian 16, Revision A.03,
 Gaussian 16:  ES64L-G16RevA.03 25-Dec-2016

 ------------------
 #p CCSD(T)/cc-pVTZ
 ------------------

 ------------
 H2O_H2O_2484
 ------------
 Symbolic Z-matrix:
 Charge =  0 Multiplicity = 1

                         Standard orientation:
 ---------------------------------------------------------------------
 Center     Atomic      Atomic             Coordinates (Angstroms)
 Number     Number       Type             X           Y           Z
 ---------------------------------------------------------------------
      1          8           0        0.031743   -2.109483    0.000000
      2          1           0       -0.768564   -2.679584    0.000000
      3          1           0        0.830577   -2.681645    0.000000
      4          8           0        0.031743    2.128652    0.000000
      5          1           0        0.380442    3.047300    0.000000
      6          1           0       -0.950340    2.160579    0.000000
 ---------------------------------------------------------------------

 SCF Done:  E(RHF) =  -152.105902350     A.U. after   10 cycles
 E2 =    -0.5261602057D+00 EUMP2 =    -0.15263206255548D+03
 CCSD(T)
 CCSD(T)= -0.15265930104D+03

 The electronic state is 1-A'.
 Alpha  occ. eigenvalues --  -20.54896 -20.54640  -1.32184  -1.31925  -0.69597
 Alpha  occ. eigenvalues --   -0.69328  -0.55576  -0.55264  -0.49285  -0.49028
 Alpha virt. eigenvalues --    0.14048   0.15455   0.20479   0.21122   0.54264
 Alpha virt. eigenvalues --    0.55457   0.57744   0.58034   0.64574   0.73421
 Alpha virt. eigenvalues --    0.79472   0.79955   0.80794   0.81194   0.82476

 Mulliken charges:
               1
     1  O   -0.499251
     2  H    0.247530
     3  H    0.251876
     4  O   -0.498884
     5  H    0.246498
     6  H    0.252230
 Sum of Mulliken charges =  -0.00000

 Dipole moment (field-independent basis, Debye):
    X=             -1.0767    Y=             -0.3443    Z=              0.0000  Tot=              1.1304
 Quadrupole moment (field-independent basis, Debye-Ang):
   XX=             -8.4536   YY=              4.0316   ZZ=            -14.7104
   XY=             -1.5255   XZ=              0.0000   YZ=              0.0000

 Normal termination of Gaussian 16 at Sat Aug 27 10:48:45 2022.
