 Gaussian 16, Revision A.03,
 Gaussian 16:  ES64L-G16RevA.03 25-Dec-2016

 ------------------
 #p CCSD(T)/cc-pVTZ
 ------------------

 ------------
 H2O_H2O_4869
 ------------
 Symbolic Z-matrix:
 Charge =  0 Multiplicity = 1

                         Standard orientation:
 ---------------------------------------------------------------------
 Center     Atomic      Atomic             Coordinates (Angstroms)
 Number     Number       Type             X           Y           Z
 ---------------------------------------------------------------------
      1          8           0        0.054136   -3.340992    0.000000
      2          1           0       -0.746221   -3.911022    0.000000
      3          1           0        0.852919   -3.913225    0.000000
      4          8           0        0.054136    3.418353    0.000000
      5          1           0       -0.228377    4.359465    0.000000
      6          1           0       -0.744490    2.845899    0.000000
 ---------------------------------------------------------------------

 SCF Done:  E(RHF) =  -152.107433712     A.U. after   10 cycles
 E2 =    -0.5258727134D+00 EUMP2 =    -0.15263330642561D+03
 CCSD(T)
 CCSD(T)= -0.15266052625D+03

 The electronic state is 1-A'.
 Alpha  occ. eigenvalues --  -20.55606 -20.55217  -1.32905  -1.32516  -0.70311
 Alpha  occ. eigenvalues --   -0.69917  -0.56353  -0.55962  -0.50017  -0.49629
 Alpha virt. eigenvalues --    0.14072   0.14462   0.20149   0.20559   0.54251
 Alpha virt. eigenvalues --    0.54656   0.57171   0.57560   0.67833   0.68235
 Alpha virt. eigenvalues --    0.78863   0.79246   0.80294   0.80706   0.82218

 Mulliken charges:
               1
     1  O   -0.509034
     2  H    0.253548
     3  H    0.255487
     4  O   -0.508823
     5  H    0.252574
     6  H    0.256249
 Sum of Mulliken charges =  -0.00000

 Dipole moment (field-independent basis, Debye):
    X=             -1.8623    Y=             -1.3488    Z=              0.0000  Tot=              2.2994
 Quadrupole moment (field-independent basis, Debye-Ang):
   XX=             -9.6490   YY=              7.5840   ZZ=            -14.7120
   XY=             -5.9084   XZ=              0.0000   YZ=              0.0000

 Normal termination of Gaussian 16 at Sat Aug 27 09:47:42 2022.
