 Gaussian 16, Revision A.03,
 Gaussian 16:  ES64L-G16RevA.03 25-Dec-2016

 ------------------
 #p CCSD(T)/cc-pVTZ
 ------------------

 ------------
 H2O_H2O_1584
 ------------
 Symbolic Z-matrix:
 Charge =  0 Multiplicity = 1

                         Standard orientation:
 ---------------------------------------------------------------------
 Center     Atomic      Atomic             Coordinates (Angstroms)
 Number     Number       Type             X           Y           Z
 ---------------------------------------------------------------------
      1          8           0        0.031746   -1.630842    0.000000
      2          1           0       -0.768775   -2.200642    0.000000
      3          1           0        0.830365   -2.203305    0.000000
      4          8           0        0.031746    1.649987    0.000000
      5          1           0        0.380791    2.568504    0.000000
      6          1           0       -0.950324    1.682284    0.000000
 ---------------------------------------------------------------------

 SCF Done:  E(RHF) =  -152.104101229     A.U. after   10 cycles
 E2 =    -0.5269051849D+00 EUMP2 =    -0.15263100641380D+03
 CCSD(T)
 CCSD(T)= -0.15265824971D+03

 The electronic state is 1-A'.
 Alpha  occ. eigenvalues --  -20.54488 -20.54065  -1.31778  -1.31326  -0.69204
 Alpha  occ. eigenvalues --   -0.68737  -0.55520  -0.54094  -0.48900  -0.48396
 Alpha virt. eigenvalues --    0.14058   0.16408   0.20432   0.21879   0.52928
 Alpha virt. eigenvalues --    0.56872   0.58034   0.58653   0.63915   0.77005
 Alpha virt. eigenvalues --    0.78333   0.78709   0.79482   0.81770   0.85563

 Mulliken charges:
               1
     1  O   -0.483305
     2  H    0.237980
     3  H    0.246231
     4  O   -0.482688
     5  H    0.235832
     6  H    0.245951
 Sum of Mulliken charges =   0.00000

 Dipole moment (field-independent basis, Debye):
    X=             -1.0508    Y=             -0.3588    Z=              0.0000  Tot=              1.1104
 Quadrupole moment (field-independent basis, Debye-Ang):
   XX=             -8.4897   YY=              0.3517   ZZ=            -14.7109
   XY=             -1.0200   XZ=              0.0000   YZ=              0.0000

 Normal termination of Gaussian 16 at Sat Aug 27 05:36:42 2022.
