 Gaussian 16, Revision A.03,
 Gaussian 16:  ES64L-G16RevA.03 25-Dec-2016

 ------------------
 #p CCSD(T)/cc-pVTZ
 ------------------

 ------------
 H2O_H2O_3376
 ------------
 Symbolic Z-matrix:
 Charge =  0 Multiplicity = 1

                         Standard orientation:
 ---------------------------------------------------------------------
 Center     Atomic      Atomic             Coordinates (Angstroms)
 Number     Number       Type             X           Y           Z
 ---------------------------------------------------------------------
      1          8           0        0.003735   -2.598414    0.000000
      2          1           0       -0.795906   -3.169447    0.000000
      3          1           0        0.803236   -3.169645    0.000000
      4          8           0        0.003735    2.598658    0.000000
      5          1           0        0.764318    3.220768    0.000000
      6          1           0       -0.831414    3.116376    0.000000
 ---------------------------------------------------------------------

 SCF Done:  E(RHF) =  -152.106295405     A.U. after   10 cycles
 E2 =    -0.5260009219D+00 EUMP2 =    -0.15263229632639D+03
 CCSD(T)
 CCSD(T)= -0.15265953866D+03

 The electronic state is 1-A'.
 Alpha  occ. eigenvalues --  -20.54974 -20.54972  -1.32268  -1.32265  -0.69677
 Alpha  occ. eigenvalues --   -0.69675  -0.55668  -0.55653  -0.49371  -0.49369
 Alpha virt. eigenvalues --    0.14470   0.14751   0.20582   0.20675   0.54835
 Alpha virt. eigenvalues --    0.54959   0.57698   0.57742   0.67896   0.69336
 Alpha virt. eigenvalues --    0.79497   0.79516   0.80927   0.80994   0.82770

 Mulliken charges:
               1
     1  O   -0.502319
     2  H    0.251013
     3  H    0.251306
     4  O   -0.502315
     5  H    0.250966
     6  H    0.251349
 Sum of Mulliken charges =  -0.00000

 Dipole moment (field-independent basis, Debye):
    X=             -0.1278    Y=             -0.0043    Z=              0.0000  Tot=              0.1279
 Quadrupole moment (field-independent basis, Debye-Ang):
   XX=             -7.8208   YY=              8.7186   ZZ=            -14.7100
   XY=             -0.2176   XZ=              0.0000   YZ=              0.0000

 Normal termination of Gaussian 16 at Fri Aug 26 21:49:22 2022.
