 Gaussian 16, Revision A.03,
 Gaussian 16:  ES64L-G16RevA.03 25-Dec-2016

 ------------------
 #p CCSD(T)/cc-pVTZ
 ------------------

 -----------
 H2O_H2O_462
 -----------
 Symbolic Z-matrix:
 Charge =  0 Multiplicity = 1

                         Standard orientation:
 ---------------------------------------------------------------------
 Center     Atomic      Atomic             Coordinates (Angstroms)
 Number     Number       Type             X           Y           Z
 ---------------------------------------------------------------------
      1          8           0        0.040441   -1.024898    0.000000
      2          1           0       -0.761032   -1.593358    0.000000
      3          1           0        0.838101   -1.598696    0.000000
      4          8           0        0.040441    1.058085    0.000000
      5          1           0        0.205206    2.026773    0.000000
      6          1           0       -0.929327    0.899790    0.000000
 ---------------------------------------------------------------------

 SCF Done:  E(RHF) =  -152.068419853     A.U. after   11 cycles
 E2 =    -0.5336282965D+00 EUMP2 =    -0.15260204814946D+03
 CCSD(T)
 CCSD(T)= -0.15262899448D+03

 The electronic state is 1-A'.
 Alpha  occ. eigenvalues --  -20.53285 -20.52106  -1.32527  -1.28983  -0.69646
 Alpha  occ. eigenvalues --   -0.67658  -0.58214  -0.49645  -0.47218  -0.45666
 Alpha virt. eigenvalues --    0.14213   0.18016   0.20166   0.23514   0.53194
 Alpha virt. eigenvalues --    0.57554   0.58343   0.63176   0.71311   0.76319
 Alpha virt. eigenvalues --    0.79369   0.81680   0.83444   0.85534   0.88060

 Mulliken charges:
               1
     1  O   -0.445768
     2  H    0.212773
     3  H    0.232197
     4  O   -0.419157
     5  H    0.181602
     6  H    0.238352
 Sum of Mulliken charges =  -0.00000

 Dipole moment (field-independent basis, Debye):
    X=             -1.1879    Y=             -0.6720    Z=              0.0000  Tot=              1.3648
 Quadrupole moment (field-independent basis, Debye-Ang):
   XX=             -9.0208   YY=             -5.3039   ZZ=            -14.7252
   XY=             -0.7215   XZ=              0.0000   YZ=              0.0000

 Normal termination of Gaussian 16 at Fri Aug 26 16:41:21 2022.
