 Gaussian 16, Revision A.03,
 Gaussian 16:  ES64L-G16RevA.03 25-Dec-2016

 ------------------
 #p CCSD(T)/cc-pVTZ
 ------------------

 ------------
 H2O_H2O_3855
 ------------
 Symbolic Z-matrix:
 Charge =  0 Multiplicity = 1

                         Standard orientation:
 ---------------------------------------------------------------------
 Center     Atomic      Atomic             Coordinates (Angstroms)
 Number     Number       Type             X           Y           Z
 ---------------------------------------------------------------------
      1          8           0        0.018360   -2.847888    0.000000
      2          1           0       -0.781527   -3.418576    0.000000
      3          1           0        0.817614   -3.419463    0.000000
      4          8           0        0.018360    2.853929    0.000000
      5          1           0        0.592356    3.651447    0.000000
      6          1           0       -0.922204    3.138259    0.000000
 ---------------------------------------------------------------------

 SCF Done:  E(RHF) =  -152.106637313     A.U. after   10 cycles
 E2 =    -0.5259562830D+00 EUMP2 =    -0.15263259359573D+03
 CCSD(T)
 CCSD(T)= -0.15265982955D+03

 The electronic state is 1-A'.
 Alpha  occ. eigenvalues --  -20.55123 -20.55080  -1.32418  -1.32375  -0.69826
 Alpha  occ. eigenvalues --   -0.69782  -0.55829  -0.55786  -0.49524  -0.49481
 Alpha virt. eigenvalues --    0.14447   0.14575   0.20513   0.20581   0.54737
 Alpha virt. eigenvalues --    0.54799   0.57593   0.57642   0.68255   0.68632
 Alpha virt. eigenvalues --    0.79354   0.79397   0.80800   0.80850   0.82733

 Mulliken charges:
               1
     1  O   -0.504328
     2  H    0.251607
     3  H    0.252721
     4  O   -0.504270
     5  H    0.251365
     6  H    0.252905
 Sum of Mulliken charges =  -0.00000

 Dipole moment (field-independent basis, Debye):
    X=             -0.6296    Y=             -0.1058    Z=              0.0000  Tot=              0.6384
 Quadrupole moment (field-independent basis, Debye-Ang):
   XX=             -8.0186   YY=             10.3679   ZZ=            -14.7104
   XY=             -1.2598   XZ=              0.0000   YZ=              0.0000

 Normal termination of Gaussian 16 at Sat Aug 27 03:49:17 2022.
