 Gaussian 16, Revision A.03,
 Gaussian 16:  ES64L-G16RevA.03 25-Dec-2016

 ------------------
 #p CCSD(T)/cc-pVTZ
 ------------------

 ------------
 H2O_H2O_3322
 ------------
 Symbolic Z-matrix:
 Charge =  0 Multiplicity = 1

                         Standard orientation:
 ---------------------------------------------------------------------
 Center     Atomic      Atomic             Coordinates (Angstroms)
 Number     Number       Type             X           Y           Z
 ---------------------------------------------------------------------
      1          8           0        0.056719   -2.504838    0.000000
      2          1           0       -0.743940   -3.074444    0.000000
      3          1           0        0.855199   -3.077495    0.000000
      4          8           0        0.056719    2.603939    0.000000
      5          1           0       -0.403506    3.472098    0.000000
      6          1           0       -0.615261    1.887037    0.000000
 ---------------------------------------------------------------------

 SCF Done:  E(RHF) =  -152.107792115     A.U. after   10 cycles
 E2 =    -0.5259040615D+00 EUMP2 =    -0.15263369617640D+03
 CCSD(T)
 CCSD(T)= -0.15266090199D+03

 The electronic state is 1-A'.
 Alpha  occ. eigenvalues --  -20.55775 -20.54856  -1.33071  -1.32155  -0.70477
 Alpha  occ. eigenvalues --   -0.69545  -0.56534  -0.55609  -0.50185  -0.49273
 Alpha virt. eigenvalues --    0.13578   0.15065   0.19999   0.21138   0.54040
 Alpha virt. eigenvalues --    0.54903   0.57038   0.57846   0.66971   0.69493
 Alpha virt. eigenvalues --    0.78701   0.79588   0.79958   0.80417   0.82771

 Mulliken charges:
               1
     1  O   -0.510614
     2  H    0.253213
     3  H    0.257642
     4  O   -0.510214
     5  H    0.250458
     6  H    0.259516
 Sum of Mulliken charges =  -0.00000

 Dipole moment (field-independent basis, Debye):
    X=             -1.9411    Y=             -1.7551    Z=              0.0000  Tot=              2.6169
 Quadrupole moment (field-independent basis, Debye-Ang):
   XX=             -9.8265   YY=              1.4228   ZZ=            -14.7135
   XY=             -4.9815   XZ=              0.0000   YZ=              0.0000

 Normal termination of Gaussian 16 at Fri Aug 26 21:21:30 2022.
