 Gaussian 16, Revision A.03,
 Gaussian 16:  ES64L-G16RevA.03 25-Dec-2016

 ------------------
 #p CCSD(T)/cc-pVTZ
 ------------------

 ------------
 H2O_H2O_1210
 ------------
 Symbolic Z-matrix:
 Charge =  0 Multiplicity = 1

                         Standard orientation:
 ---------------------------------------------------------------------
 Center     Atomic      Atomic             Coordinates (Angstroms)
 Number     Number       Type             X           Y           Z
 ---------------------------------------------------------------------
      1          8           0        0.034793   -1.429060    0.000000
      2          1           0       -0.765963   -1.998529    0.000000
      3          1           0        0.833176   -2.001851    0.000000
      4          8           0        0.034793    1.452520    0.000000
      5          1           0        0.323405    2.391780    0.000000
      6          1           0       -0.947301    1.420921    0.000000
 ---------------------------------------------------------------------

 SCF Done:  E(RHF) =  -152.101895240     A.U. after   11 cycles
 E2 =    -0.5276782792D+00 EUMP2 =    -0.15262957351955D+03
 CCSD(T)
 CCSD(T)= -0.15265683186D+03

 The electronic state is 1-A'.
 Alpha  occ. eigenvalues --  -20.54271 -20.53639  -1.31641  -1.30886  -0.69060
 Alpha  occ. eigenvalues --   -0.68329  -0.55880  -0.53006  -0.48808  -0.47890
 Alpha virt. eigenvalues --    0.14124   0.16874   0.20380   0.22405   0.52850
 Alpha virt. eigenvalues --    0.58149   0.58354   0.59252   0.67730   0.76409
 Alpha virt. eigenvalues --    0.77088   0.77603   0.80624   0.82906   0.85771

 Mulliken charges:
               1
     1  O   -0.476137
     2  H    0.232635
     3  H    0.244398
     4  O   -0.470192
     5  H    0.226903
     6  H    0.242393
 Sum of Mulliken charges =  -0.00000

 Dipole moment (field-independent basis, Debye):
    X=             -1.1260    Y=             -0.4478    Z=              0.0000  Tot=              1.2118
 Quadrupole moment (field-independent basis, Debye-Ang):
   XX=             -8.6473   YY=             -1.3820   ZZ=            -14.7150
   XY=             -0.9393   XZ=              0.0000   YZ=              0.0000

 Normal termination of Gaussian 16 at Sat Aug 27 03:00:27 2022.
