 Gaussian 16, Revision A.03,
 Gaussian 16:  ES64L-G16RevA.03 25-Dec-2016

 ------------------
 #p CCSD(T)/cc-pVTZ
 ------------------

 ------------
 H2O_H2O_3459
 ------------
 Symbolic Z-matrix:
 Charge =  0 Multiplicity = 1

                         Standard orientation:
 ---------------------------------------------------------------------
 Center     Atomic      Atomic             Coordinates (Angstroms)
 Number     Number       Type             X           Y           Z
 ---------------------------------------------------------------------
      1          8           0        0.031740   -2.628015    0.000000
      2          1           0       -0.768422   -3.198319    0.000000
      3          1           0        0.830719   -3.199975    0.000000
      4          8           0        0.031740    2.647200    0.000000
      5          1           0        0.380207    3.565937    0.000000
      6          1           0       -0.950350    2.678877    0.000000
 ---------------------------------------------------------------------

 SCF Done:  E(RHF) =  -152.106595492     A.U. after   10 cycles
 E2 =    -0.5259741064D+00 EUMP2 =    -0.15263256959802D+03
 CCSD(T)
 CCSD(T)= -0.15265980556D+03

 The electronic state is 1-A'.
 Alpha  occ. eigenvalues --  -20.55139 -20.54979  -1.32434  -1.32272  -0.69843
 Alpha  occ. eigenvalues --   -0.69676  -0.55843  -0.55682  -0.49540  -0.49379
 Alpha virt. eigenvalues --    0.14352   0.14739   0.20472   0.20703   0.54697
 Alpha virt. eigenvalues --    0.54924   0.57570   0.57741   0.67888   0.69120
 Alpha virt. eigenvalues --    0.79338   0.79496   0.80775   0.80970   0.82730

 Mulliken charges:
               1
     1  O   -0.504105
     2  H    0.250855
     3  H    0.253255
     4  O   -0.503875
     5  H    0.250225
     6  H    0.253646
 Sum of Mulliken charges =  -0.00000

 Dipole moment (field-independent basis, Debye):
    X=             -1.0865    Y=             -0.3374    Z=              0.0000  Tot=              1.1377
 Quadrupole moment (field-independent basis, Debye-Ang):
   XX=             -8.4416   YY=              7.8870   ZZ=            -14.7106
   XY=             -2.0798   XZ=              0.0000   YZ=              0.0000

 Normal termination of Gaussian 16 at Fri Aug 26 22:31:25 2022.
