 Gaussian 16, Revision A.03,
 Gaussian 16:  ES64L-G16RevA.03 25-Dec-2016

 ------------------
 #p CCSD(T)/cc-pVTZ
 ------------------

 ------------
 H2O_H2O_3070
 ------------
 Symbolic Z-matrix:
 Charge =  0 Multiplicity = 1

                         Standard orientation:
 ---------------------------------------------------------------------
 Center     Atomic      Atomic             Coordinates (Angstroms)
 Number     Number       Type             X           Y           Z
 ---------------------------------------------------------------------
      1          8           0        0.055250   -2.379838    0.000000
      2          1           0       -0.745439   -2.949401    0.000000
      3          1           0        0.853700   -2.952536    0.000000
      4          8           0        0.055250    2.464284    0.000000
      5          1           0       -0.287672    3.385104    0.000000
      6          1           0       -0.704588    1.841265    0.000000
 ---------------------------------------------------------------------

 SCF Done:  E(RHF) =  -152.107590975     A.U. after   10 cycles
 E2 =    -0.5259474989D+00 EUMP2 =    -0.15263353847431D+03
 CCSD(T)
 CCSD(T)= -0.15266074597D+03

 The electronic state is 1-A'.
 Alpha  occ. eigenvalues --  -20.55667 -20.54784  -1.32961  -1.32080  -0.70368
 Alpha  occ. eigenvalues --   -0.69468  -0.56413  -0.55526  -0.50074  -0.49197
 Alpha virt. eigenvalues --    0.13564   0.15204   0.20056   0.21241   0.54101
 Alpha virt. eigenvalues --    0.54905   0.57139   0.57898   0.66815   0.70262
 Alpha virt. eigenvalues --    0.78813   0.79665   0.79958   0.80660   0.82791

 Mulliken charges:
               1
     1  O   -0.509053
     2  H    0.252143
     3  H    0.257273
     4  O   -0.508967
     5  H    0.249485
     6  H    0.259119
 Sum of Mulliken charges =  -0.00000

 Dipole moment (field-independent basis, Debye):
    X=             -1.8871    Y=             -1.5023    Z=              0.0000  Tot=              2.4121
 Quadrupole moment (field-independent basis, Debye-Ang):
   XX=             -9.7226   YY=              1.9771   ZZ=            -14.7132
   XY=             -4.3512   XZ=              0.0000   YZ=              0.0000

 Normal termination of Gaussian 16 at Fri Aug 26 19:07:56 2022.
