 Gaussian 16, Revision A.03,
 Gaussian 16:  ES64L-G16RevA.03 25-Dec-2016

 ------------------
 #p CCSD(T)/cc-pVTZ
 ------------------

 ------------
 H2O_H2O_3653
 ------------
 Symbolic Z-matrix:
 Charge =  0 Multiplicity = 1

                         Standard orientation:
 ---------------------------------------------------------------------
 Center     Atomic      Atomic             Coordinates (Angstroms)
 Number     Number       Type             X           Y           Z
 ---------------------------------------------------------------------
      1          8           0        0.011143   -2.743614    0.000000
      2          1           0       -0.788628   -3.314466    0.000000
      3          1           0        0.810514   -3.315025    0.000000
      4          8           0        0.011143    2.745801    0.000000
      5          1           0        0.684178    3.461713    0.000000
      6          1           0       -0.884346    3.150284    0.000000
 ---------------------------------------------------------------------

 SCF Done:  E(RHF) =  -152.106492536     A.U. after   10 cycles
 E2 =    -0.5259739307D+00 EUMP2 =    -0.15263246646665D+03
 CCSD(T)
 CCSD(T)= -0.15265970521D+03

 The electronic state is 1-A'.
 Alpha  occ. eigenvalues --  -20.55055 -20.55039  -1.32350  -1.32333  -0.69758
 Alpha  occ. eigenvalues --   -0.69741  -0.55754  -0.55737  -0.49455  -0.49438
 Alpha virt. eigenvalues --    0.14469   0.14638   0.20549   0.20615   0.54790
 Alpha virt. eigenvalues --    0.54855   0.57644   0.57678   0.68184   0.68852
 Alpha virt. eigenvalues --    0.79422   0.79440   0.80863   0.80901   0.82778

 Mulliken charges:
               1
     1  O   -0.503476
     2  H    0.251362
     3  H    0.252114
     4  O   -0.503449
     5  H    0.251219
     6  H    0.252230
 Sum of Mulliken charges =  -0.00000

 Dipole moment (field-independent basis, Debye):
    X=             -0.3817    Y=             -0.0384    Z=              0.0000  Tot=              0.3837
 Quadrupole moment (field-independent basis, Debye-Ang):
   XX=             -7.8868   YY=              9.7770   ZZ=            -14.7102
   XY=             -0.7109   XZ=              0.0000   YZ=              0.0000

 Normal termination of Gaussian 16 at Sat Aug 27 02:14:05 2022.
