 Gaussian 16, Revision A.03,
 Gaussian 16:  ES64L-G16RevA.03 25-Dec-2016

 ------------------
 #p CCSD(T)/cc-pVTZ
 ------------------

 ------------
 H2O_H2O_1106
 ------------
 Symbolic Z-matrix:
 Charge =  0 Multiplicity = 1

                         Standard orientation:
 ---------------------------------------------------------------------
 Center     Atomic      Atomic             Coordinates (Angstroms)
 Number     Number       Type             X           Y           Z
 ---------------------------------------------------------------------
      1          8           0        0.021862   -1.383928    0.000000
      2          1           0       -0.778482   -1.953976    0.000000
      3          1           0        0.820658   -1.956143    0.000000
      4          8           0        0.021862    1.392564    0.000000
      5          1           0        0.543136    2.225498    0.000000
      6          1           0       -0.935107    1.615536    0.000000
 ---------------------------------------------------------------------

 SCF Done:  E(RHF) =  -152.099364113     A.U. after   11 cycles
 E2 =    -0.5279884197D+00 EUMP2 =    -0.15262735253320D+03
 CCSD(T)
 CCSD(T)= -0.15265465020D+03

 The electronic state is 1-A'.
 Alpha  occ. eigenvalues --  -20.53757 -20.53526  -1.31243  -1.30739  -0.68632
 Alpha  occ. eigenvalues --   -0.68224  -0.56048  -0.52129  -0.48473  -0.47643
 Alpha virt. eigenvalues --    0.14341   0.17015   0.20512   0.22206   0.51659
 Alpha virt. eigenvalues --    0.58465   0.58740   0.60723   0.69634   0.76526
 Alpha virt. eigenvalues --    0.77018   0.78332   0.80275   0.83312   0.86136

 Mulliken charges:
               1
     1  O   -0.470144
     2  H    0.230665
     3  H    0.239197
     4  O   -0.464443
     5  H    0.227757
     6  H    0.236968
 Sum of Mulliken charges =  -0.00000

 Dipole moment (field-independent basis, Debye):
    X=             -0.7033    Y=             -0.1647    Z=              0.0000  Tot=              0.7223
 Quadrupole moment (field-independent basis, Debye-Ang):
   XX=             -8.2185   YY=             -1.5883   ZZ=            -14.7152
   XY=             -0.4552   XZ=              0.0000   YZ=              0.0000

 Normal termination of Gaussian 16 at Sat Aug 27 02:10:46 2022.
