 Gaussian 16, Revision A.03,
 Gaussian 16:  ES64L-G16RevA.03 25-Dec-2016

 ------------------
 #p CCSD(T)/cc-pVTZ
 ------------------

 -----------
 H2O_H2O_376
 -----------
 Symbolic Z-matrix:
 Charge =  0 Multiplicity = 1

                         Standard orientation:
 ---------------------------------------------------------------------
 Center     Atomic      Atomic             Coordinates (Angstroms)
 Number     Number       Type             X           Y           Z
 ---------------------------------------------------------------------
      1          8           0        0.003735   -1.002906    0.000000
      2          1           0       -0.796019   -1.573782    0.000000
      3          1           0        0.803123   -1.574294    0.000000
      4          8           0        0.003735    1.003148    0.000000
      5          1           0        0.764441    1.625108    0.000000
      6          1           0       -0.831312    1.521031    0.000000
 ---------------------------------------------------------------------

 SCF Done:  E(RHF) =  -152.049809362     A.U. after   10 cycles
 E2 =    -0.5352810076D+00 EUMP2 =    -0.15258509036983D+03
 CCSD(T)
 CCSD(T)= -0.15261190348D+03

 The electronic state is 1-A'.
 Alpha  occ. eigenvalues --  -20.51771 -20.51764  -1.31901  -1.28489  -0.68468
 Alpha  occ. eigenvalues --   -0.66407  -0.61141  -0.49122  -0.44910  -0.43467
 Alpha virt. eigenvalues --    0.14667   0.18477   0.20472   0.22805   0.50216
 Alpha virt. eigenvalues --    0.59164   0.59275   0.66331   0.69910   0.78056
 Alpha virt. eigenvalues --    0.79287   0.82873   0.84496   0.86681   0.87258

 Mulliken charges:
               1
     1  O   -0.428283
     2  H    0.212966
     3  H    0.215242
     4  O   -0.427556
     5  H    0.210025
     6  H    0.217607
 Sum of Mulliken charges =  -0.00000

 Dipole moment (field-independent basis, Debye):
    X=             -0.1094    Y=             -0.0052    Z=              0.0000  Tot=              0.1095
 Quadrupole moment (field-independent basis, Debye-Ang):
   XX=             -8.1649   YY=             -5.7348   ZZ=            -14.7528
   XY=             -0.0341   XZ=              0.0000   YZ=              0.0000

 Normal termination of Gaussian 16 at Fri Aug 26 15:48:41 2022.
