 Gaussian 16, Revision A.03,
 Gaussian 16:  ES64L-G16RevA.03 25-Dec-2016

 ------------------
 #p CCSD(T)/cc-pVTZ
 ------------------

 ------------
 H2O_H2O_4081
 ------------
 Symbolic Z-matrix:
 Charge =  0 Multiplicity = 1

                         Standard orientation:
 ---------------------------------------------------------------------
 Center     Atomic      Atomic             Coordinates (Angstroms)
 Number     Number       Type             X           Y           Z
 ---------------------------------------------------------------------
      1          8           0        0.021859   -2.966125    0.000000
      2          1           0       -0.778074   -3.536750    0.000000
      3          1           0        0.821068   -3.537763    0.000000
      4          8           0        0.021859    2.974792    0.000000
      5          1           0        0.542532    3.808103    0.000000
      6          1           0       -0.935270    3.197073    0.000000
 ---------------------------------------------------------------------

 SCF Done:  E(RHF) =  -152.106758539     A.U. after   10 cycles
 E2 =    -0.5259411908D+00 EUMP2 =    -0.15263269972956D+03
 CCSD(T)
 CCSD(T)= -0.15265993337D+03

 The electronic state is 1-A'.
 Alpha  occ. eigenvalues --  -20.55180 -20.55123  -1.32475  -1.32418  -0.69883
 Alpha  occ. eigenvalues --   -0.69824  -0.55892  -0.55836  -0.49582  -0.49525
 Alpha virt. eigenvalues --    0.14424   0.14519   0.20479   0.20548   0.54684
 Alpha virt. eigenvalues --    0.54751   0.57547   0.57606   0.68277   0.68477
 Alpha virt. eigenvalues --    0.79296   0.79352   0.80741   0.80804   0.82672

 Mulliken charges:
               1
     1  O   -0.505041
     2  H    0.251930
     3  H    0.253111
     4  O   -0.504974
     5  H    0.251652
     6  H    0.253322
 Sum of Mulliken charges =  -0.00000

 Dipole moment (field-independent basis, Debye):
    X=             -0.7502    Y=             -0.1516    Z=              0.0000  Tot=              0.7654
 Quadrupole moment (field-independent basis, Debye-Ang):
   XX=             -8.1054   YY=             11.1148   ZZ=            -14.7106
   XY=             -1.6068   XZ=              0.0000   YZ=              0.0000

 Normal termination of Gaussian 16 at Sat Aug 27 05:16:46 2022.
