 Gaussian 16, Revision A.03,
 Gaussian 16:  ES64L-G16RevA.03 25-Dec-2016

 ------------------
 #p CCSD(T)/cc-pVTZ
 ------------------

 ------------
 H2O_H2O_1631
 ------------
 Symbolic Z-matrix:
 Charge =  0 Multiplicity = 1

                         Standard orientation:
 ---------------------------------------------------------------------
 Center     Atomic      Atomic             Coordinates (Angstroms)
 Number     Number       Type             X           Y           Z
 ---------------------------------------------------------------------
      1          8           0        0.021861   -1.663137    0.000000
      2          1           0       -0.778354   -2.233367    0.000000
      3          1           0        0.820787   -2.235171    0.000000
      4          8           0        0.021861    1.671783    0.000000
      5          1           0        0.542946    2.504835    0.000000
      6          1           0       -0.935158    1.894537    0.000000
 ---------------------------------------------------------------------

 SCF Done:  E(RHF) =  -152.103758301     A.U. after   10 cycles
 E2 =    -0.5268467416D+00 EUMP2 =    -0.15263060504299D+03
 CCSD(T)
 CCSD(T)= -0.15265786118D+03

 The electronic state is 1-A'.
 Alpha  occ. eigenvalues --  -20.54316 -20.54133  -1.31609  -1.31397  -0.69034
 Alpha  occ. eigenvalues --   -0.68819  -0.55418  -0.54058  -0.48743  -0.48446
 Alpha virt. eigenvalues --    0.14181   0.16318   0.20526   0.21662   0.52815
 Alpha virt. eigenvalues --    0.57416   0.58109   0.58551   0.62917   0.76573
 Alpha virt. eigenvalues --    0.78578   0.78742   0.79900   0.81673   0.84883

 Mulliken charges:
               1
     1  O   -0.482411
     2  H    0.238637
     3  H    0.244146
     4  O   -0.482036
     5  H    0.237755
     6  H    0.243909
 Sum of Mulliken charges =  -0.00000

 Dipole moment (field-independent basis, Debye):
    X=             -0.7258    Y=             -0.1616    Z=              0.0000  Tot=              0.7435
 Quadrupole moment (field-independent basis, Debye-Ang):
   XX=             -8.1619   YY=              0.8458   ZZ=            -14.7096
   XY=             -0.6508   XZ=              0.0000   YZ=              0.0000

 Normal termination of Gaussian 16 at Sat Aug 27 05:53:09 2022.
