 Gaussian 16, Revision A.03,
 Gaussian 16:  ES64L-G16RevA.03 25-Dec-2016

 ------------------
 #p CCSD(T)/cc-pVTZ
 ------------------

 ------------
 H2O_H2O_1483
 ------------
 Symbolic Z-matrix:
 Charge =  0 Multiplicity = 1

                         Standard orientation:
 ---------------------------------------------------------------------
 Center     Atomic      Atomic             Coordinates (Angstroms)
 Number     Number       Type             X           Y           Z
 ---------------------------------------------------------------------
      1          8           0        0.028568   -1.579793    0.000000
      2          1           0       -0.771886   -2.149686    0.000000
      3          1           0        0.827254   -2.152163    0.000000
      4          8           0        0.028568    1.595008    0.000000
      5          1           0        0.436837    2.488777    0.000000
      6          1           0       -0.949299    1.691352    0.000000
 ---------------------------------------------------------------------

 SCF Done:  E(RHF) =  -152.103394788     A.U. after   10 cycles
 E2 =    -0.5270685214D+00 EUMP2 =    -0.15263046330966D+03
 CCSD(T)
 CCSD(T)= -0.15265771961D+03

 The electronic state is 1-A'.
 Alpha  occ. eigenvalues --  -20.54329 -20.53978  -1.31633  -1.31238  -0.69059
 Alpha  occ. eigenvalues --   -0.68658  -0.55545  -0.53774  -0.48772  -0.48282
 Alpha virt. eigenvalues --    0.14142   0.16516   0.20463   0.21916   0.52707
 Alpha virt. eigenvalues --    0.57605   0.58132   0.58747   0.64548   0.76917
 Alpha virt. eigenvalues --    0.78092   0.78757   0.79160   0.82111   0.85776

 Mulliken charges:
               1
     1  O   -0.480253
     2  H    0.236409
     3  H    0.244525
     4  O   -0.478659
     5  H    0.234296
     6  H    0.243682
 Sum of Mulliken charges =  -0.00000

 Dipole moment (field-independent basis, Debye):
    X=             -0.9414    Y=             -0.2862    Z=              0.0000  Tot=              0.9840
 Quadrupole moment (field-independent basis, Debye-Ang):
   XX=             -8.3804   YY=              0.0196   ZZ=            -14.7109
   XY=             -0.8338   XZ=              0.0000   YZ=              0.0000

 Normal termination of Gaussian 16 at Sat Aug 27 05:01:39 2022.
