 Gaussian 16, Revision A.03,
 Gaussian 16:  ES64L-G16RevA.03 25-Dec-2016

 ------------------
 #p CCSD(T)/cc-pVTZ
 ------------------

 ------------
 H2O_H2O_1089
 ------------
 Symbolic Z-matrix:
 Charge =  0 Multiplicity = 1

                         Standard orientation:
 ---------------------------------------------------------------------
 Center     Atomic      Atomic             Coordinates (Angstroms)
 Number     Number       Type             X           Y           Z
 ---------------------------------------------------------------------
      1          8           0        0.045374   -1.351189    0.000000
      2          1           0       -0.755816   -1.920048    0.000000
      3          1           0        0.843320   -1.924589    0.000000
      4          8           0        0.045374    1.395621    0.000000
      5          1           0        0.081802    2.377548    0.000000
      6          1           0       -0.895294    1.111632    0.000000
 ---------------------------------------------------------------------

 SCF Done:  E(RHF) =  -152.102123877     A.U. after   11 cycles
 E2 =    -0.5281038237D+00 EUMP2 =    -0.15263022770058D+03
 CCSD(T)
 CCSD(T)= -0.15265744137D+03

 The electronic state is 1-A'.
 Alpha  occ. eigenvalues --  -20.54731 -20.53365  -1.32152  -1.30604  -0.69569
 Alpha  occ. eigenvalues --   -0.68115  -0.56098  -0.53027  -0.49301  -0.47633
 Alpha virt. eigenvalues --    0.13887   0.17125   0.20153   0.23117   0.53598
 Alpha virt. eigenvalues --    0.57755   0.58154   0.58696   0.69401   0.76190
 Alpha virt. eigenvalues --    0.76371   0.76979   0.81910   0.82945   0.85370

 Mulliken charges:
               1
     1  O   -0.476400
     2  H    0.232309
     3  H    0.248126
     4  O   -0.473407
     5  H    0.222503
     6  H    0.246869
 Sum of Mulliken charges =  -0.00000

 Dipole moment (field-independent basis, Debye):
    X=             -1.4517    Y=             -0.8617    Z=              0.0000  Tot=              1.6882
 Quadrupole moment (field-independent basis, Debye-Ang):
   XX=             -9.1674   YY=             -2.3976   ZZ=            -14.7202
   XY=             -1.4223   XZ=              0.0000   YZ=              0.0000

 Normal termination of Gaussian 16 at Sat Aug 27 02:00:50 2022.
