 Gaussian 16, Revision A.03,
 Gaussian 16:  ES64L-G16RevA.03 25-Dec-2016

 ------------------
 #p CCSD(T)/cc-pVTZ
 ------------------

 -----------
 H2O_H2O_657
 -----------
 Symbolic Z-matrix:
 Charge =  0 Multiplicity = 1

                         Standard orientation:
 ---------------------------------------------------------------------
 Center     Atomic      Atomic             Coordinates (Angstroms)
 Number     Number       Type             X           Y           Z
 ---------------------------------------------------------------------
      1          8           0        0.025272   -1.142945    0.000000
      2          1           0       -0.775379   -1.712563    0.000000
      3          1           0        0.823760   -1.715590    0.000000
      4          8           0        0.025272    1.154630    0.000000
      5          1           0        0.491418    2.019623    0.000000
      6          1           0       -0.944145    1.315056    0.000000
 ---------------------------------------------------------------------

 SCF Done:  E(RHF) =  -152.084379972     A.U. after   11 cycles
 E2 =    -0.5307603721D+00 EUMP2 =    -0.15261514034415D+03
 CCSD(T)
 CCSD(T)= -0.15264233570D+03

 The electronic state is 1-A'.
 Alpha  occ. eigenvalues --  -20.53010 -20.52641  -1.31356  -1.29680  -0.68533
 Alpha  occ. eigenvalues --   -0.67428  -0.57927  -0.48655  -0.48609  -0.46360
 Alpha virt. eigenvalues --    0.14451   0.17701   0.20473   0.22783   0.51555
 Alpha virt. eigenvalues --    0.58688   0.58725   0.63456   0.70864   0.76588
 Alpha virt. eigenvalues --    0.77389   0.80980   0.84003   0.86370   0.87160

 Mulliken charges:
               1
     1  O   -0.457828
     2  H    0.221484
     3  H    0.234487
     4  O   -0.441479
     5  H    0.208225
     6  H    0.235111
 Sum of Mulliken charges =  -0.00000

 Dipole moment (field-independent basis, Debye):
    X=             -0.7709    Y=             -0.2310    Z=              0.0000  Tot=              0.8048
 Quadrupole moment (field-independent basis, Debye-Ang):
   XX=             -8.4076   YY=             -3.9729   ZZ=            -14.7327
   XY=             -0.3712   XZ=              0.0000   YZ=              0.0000

 Normal termination of Gaussian 16 at Fri Aug 26 18:45:01 2022.
