 Gaussian 16, Revision A.03,
 Gaussian 16:  ES64L-G16RevA.03 25-Dec-2016

 ------------------
 #p CCSD(T)/cc-pVTZ
 ------------------

 ------------
 H2O_H2O_1226
 ------------
 Symbolic Z-matrix:
 Charge =  0 Multiplicity = 1

                         Standard orientation:
 ---------------------------------------------------------------------
 Center     Atomic      Atomic             Coordinates (Angstroms)
 Number     Number       Type             X           Y           Z
 ---------------------------------------------------------------------
      1          8           0        0.003735   -1.454967    0.000000
      2          1           0       -0.795962   -2.025922    0.000000
      3          1           0        0.803180   -2.026275    0.000000
      4          8           0        0.003735    1.455209    0.000000
      5          1           0        0.764379    2.077245    0.000000
      6          1           0       -0.831363    1.973009    0.000000
 ---------------------------------------------------------------------

 SCF Done:  E(RHF) =  -152.100304540     A.U. after   10 cycles
 E2 =    -0.5276080387D+00 EUMP2 =    -0.15262791257843D+03
 CCSD(T)
 CCSD(T)= -0.15265522159D+03

 The electronic state is 1-A'.
 Alpha  occ. eigenvalues --  -20.53713 -20.53707  -1.31184  -1.30892  -0.68582
 Alpha  occ. eigenvalues --   -0.68368  -0.55771  -0.52527  -0.48401  -0.47816
 Alpha virt. eigenvalues --    0.14423   0.16857   0.20567   0.21934   0.51314
 Alpha virt. eigenvalues --    0.58400   0.58711   0.60604   0.67787   0.76225
 Alpha virt. eigenvalues --    0.77493   0.77919   0.79180   0.83003   0.86205

 Mulliken charges:
               1
     1  O   -0.469684
     2  H    0.234146
     3  H    0.235535
     4  O   -0.469542
     5  H    0.234208
     6  H    0.235337
 Sum of Mulliken charges =  -0.00000

 Dipole moment (field-independent basis, Debye):
    X=             -0.1215    Y=             -0.0046    Z=              0.0000  Tot=              0.1216
 Quadrupole moment (field-independent basis, Debye-Ang):
   XX=             -7.9192   YY=             -0.8566   ZZ=            -14.7117
   XY=             -0.0761   XZ=              0.0000   YZ=              0.0000

 Normal termination of Gaussian 16 at Sat Aug 27 03:10:08 2022.
