 Gaussian 16, Revision A.03,
 Gaussian 16:  ES64L-G16RevA.03 25-Dec-2016

 ------------------
 #p CCSD(T)/cc-pVTZ
 ------------------

 ------------
 H2O_H2O_3867
 ------------
 Symbolic Z-matrix:
 Charge =  0 Multiplicity = 1

                         Standard orientation:
 ---------------------------------------------------------------------
 Center     Atomic      Atomic             Coordinates (Angstroms)
 Number     Number       Type             X           Y           Z
 ---------------------------------------------------------------------
      1          8           0        0.051272   -2.816657    0.000000
      2          1           0       -0.749182   -3.386551    0.000000
      3          1           0        0.849958   -3.389026    0.000000
      4          8           0        0.051272    2.880204    0.000000
      5          1           0       -0.105817    3.850167    0.000000
      6          1           0       -0.815320    2.417036    0.000000
 ---------------------------------------------------------------------

 SCF Done:  E(RHF) =  -152.107261018     A.U. after   10 cycles
 E2 =    -0.5259060680D+00 EUMP2 =    -0.15263316708610D+03
 CCSD(T)
 CCSD(T)= -0.15266038934D+03

 The electronic state is 1-A'.
 Alpha  occ. eigenvalues --  -20.55503 -20.55044  -1.32801  -1.32340  -0.70208
 Alpha  occ. eigenvalues --   -0.69738  -0.56242  -0.55779  -0.49912  -0.49453
 Alpha virt. eigenvalues --    0.14092   0.14671   0.20215   0.20736   0.54346
 Alpha virt. eigenvalues --    0.54839   0.57259   0.57716   0.67796   0.68604
 Alpha virt. eigenvalues --    0.78969   0.79419   0.80398   0.80847   0.82416

 Mulliken charges:
               1
     1  O   -0.508040
     2  H    0.252486
     3  H    0.255563
     4  O   -0.507682
     5  H    0.251136
     6  H    0.256536
 Sum of Mulliken charges =  -0.00000

 Dipole moment (field-independent basis, Debye):
    X=             -1.7591    Y=             -1.1151    Z=              0.0000  Tot=              2.0827
 Quadrupole moment (field-independent basis, Debye-Ang):
   XX=             -9.4576   YY=              5.9803   ZZ=            -14.7118
   XY=             -4.4428   XZ=              0.0000   YZ=              0.0000

 Normal termination of Gaussian 16 at Sat Aug 27 03:54:28 2022.
