 Gaussian 16, Revision A.03,
 Gaussian 16:  ES64L-G16RevA.03 25-Dec-2016

 ------------------
 #p CCSD(T)/cc-pVTZ
 ------------------

 ------------
 H2O_H2O_3493
 ------------
 Symbolic Z-matrix:
 Charge =  0 Multiplicity = 1

                         Standard orientation:
 ---------------------------------------------------------------------
 Center     Atomic      Atomic             Coordinates (Angstroms)
 Number     Number       Type             X           Y           Z
 ---------------------------------------------------------------------
      1          8           0        0.052826   -2.613533    0.000000
      2          1           0       -0.747723   -3.183292    0.000000
      3          1           0        0.851416   -3.186035    0.000000
      4          8           0        0.052826    2.683865    0.000000
      5          1           0       -0.167206    3.641515    0.000000
      6          1           0       -0.781705    2.165152    0.000000
 ---------------------------------------------------------------------

 SCF Done:  E(RHF) =  -152.107317817     A.U. after   10 cycles
 E2 =    -0.5259193683D+00 EUMP2 =    -0.15263323718566D+03
 CCSD(T)
 CCSD(T)= -0.15266045652D+03

 The electronic state is 1-A'.
 Alpha  occ. eigenvalues --  -20.55538 -20.54943  -1.32836  -1.32238  -0.70243
 Alpha  occ. eigenvalues --   -0.69633  -0.56278  -0.55678  -0.49946  -0.49352
 Alpha virt. eigenvalues --    0.13936   0.14863   0.20169   0.20895   0.54286
 Alpha virt. eigenvalues --    0.54919   0.57230   0.57794   0.67448   0.69101
 Alpha virt. eigenvalues --    0.78935   0.79516   0.80328   0.80794   0.82638

 Mulliken charges:
               1
     1  O   -0.508307
     2  H    0.252235
     3  H    0.256127
     4  O   -0.507848
     5  H    0.250419
     6  H    0.257374
 Sum of Mulliken charges =  -0.00000

 Dipole moment (field-independent basis, Debye):
    X=             -1.8094    Y=             -1.2399    Z=              0.0000  Tot=              2.1934
 Quadrupole moment (field-independent basis, Debye-Ang):
   XX=             -9.5589   YY=              4.2856   ZZ=            -14.7122
   XY=             -4.3317   XZ=              0.0000   YZ=              0.0000

 Normal termination of Gaussian 16 at Fri Aug 26 22:47:38 2022.
