 Gaussian 16, Revision A.03,
 Gaussian 16:  ES64L-G16RevA.03 25-Dec-2016

 ------------------
 #p CCSD(T)/cc-pVTZ
 ------------------

 ------------
 H2O_H2O_2017
 ------------
 Symbolic Z-matrix:
 Charge =  0 Multiplicity = 1

                         Standard orientation:
 ---------------------------------------------------------------------
 Center     Atomic      Atomic             Coordinates (Angstroms)
 Number     Number       Type             X           Y           Z
 ---------------------------------------------------------------------
      1          8           0        0.051298   -1.832803    0.000000
      2          1           0       -0.749621   -2.402043    0.000000
      3          1           0        0.849517   -2.405825    0.000000
      4          8           0        0.051298    1.896266    0.000000
      5          1           0       -0.104999    2.866357    0.000000
      6          1           0       -0.815672    1.433807    0.000000
 ---------------------------------------------------------------------

 SCF Done:  E(RHF) =  -152.107053970     A.U. after   10 cycles
 E2 =    -0.5263722081D+00 EUMP2 =    -0.15263342617808D+03
 CCSD(T)
 CCSD(T)= -0.15266061328D+03

 The electronic state is 1-A'.
 Alpha  occ. eigenvalues --  -20.55453 -20.54260  -1.32728  -1.31537  -0.70143
 Alpha  occ. eigenvalues --   -0.68912  -0.56137  -0.54936  -0.49840  -0.48656
 Alpha virt. eigenvalues --    0.13422   0.16145   0.20082   0.22330   0.53870
 Alpha virt. eigenvalues --    0.54523   0.57334   0.58527   0.64706   0.75788
 Alpha virt. eigenvalues --    0.78649   0.78844   0.80399   0.80532   0.84902

 Mulliken charges:
               1
     1  O   -0.498494
     2  H    0.245791
     3  H    0.255091
     4  O   -0.502883
     5  H    0.242704
     6  H    0.257792
 Sum of Mulliken charges =  -0.00000

 Dipole moment (field-independent basis, Debye):
    X=             -1.7220    Y=             -1.1722    Z=              0.0000  Tot=              2.0831
 Quadrupole moment (field-independent basis, Debye-Ang):
   XX=             -9.4657   YY=              0.2297   ZZ=            -14.7146
   XY=             -2.7409   XZ=              0.0000   YZ=              0.0000

 Normal termination of Gaussian 16 at Sat Aug 27 08:07:35 2022.
