 Gaussian 16, Revision A.03,
 Gaussian 16:  ES64L-G16RevA.03 25-Dec-2016

 ------------------
 #p CCSD(T)/cc-pVTZ
 ------------------

 ------------
 H2O_H2O_2763
 ------------
 Symbolic Z-matrix:
 Charge =  0 Multiplicity = 1

                         Standard orientation:
 ---------------------------------------------------------------------
 Center     Atomic      Atomic             Coordinates (Angstroms)
 Number     Number       Type             X           Y           Z
 ---------------------------------------------------------------------
      1          8           0        0.042972   -2.245091    0.000000
      2          1           0       -0.757531   -2.814917    0.000000
      3          1           0        0.841609   -2.817528    0.000000
      4          8           0        0.042972    2.283863    0.000000
      5          1           0        0.142362    3.261425    0.000000
      6          1           0       -0.913988    2.060849    0.000000
 ---------------------------------------------------------------------

 SCF Done:  E(RHF) =  -152.106566960     A.U. after   10 cycles
 E2 =    -0.5260511167D+00 EUMP2 =    -0.15263261807669D+03
 CCSD(T)
 CCSD(T)= -0.15265984740D+03

 The electronic state is 1-A'.
 Alpha  occ. eigenvalues --  -20.55186 -20.54731  -1.32478  -1.32019  -0.69888
 Alpha  occ. eigenvalues --   -0.69414  -0.55882  -0.55422  -0.49583  -0.49128
 Alpha virt. eigenvalues --    0.13924   0.15280   0.20334   0.21109   0.54337
 Alpha virt. eigenvalues --    0.55112   0.57530   0.57942   0.66166   0.71806
 Alpha virt. eigenvalues --    0.79279   0.79756   0.80535   0.81479   0.82899

 Mulliken charges:
               1
     1  O   -0.503461
     2  H    0.249351
     3  H    0.254296
     4  O   -0.503092
     5  H    0.247792
     6  H    0.255115
 Sum of Mulliken charges =  -0.00000

 Dipole moment (field-independent basis, Debye):
    X=             -1.4630    Y=             -0.6917    Z=              0.0000  Tot=              1.6182
 Quadrupole moment (field-independent basis, Debye-Ang):
   XX=             -8.9708   YY=              4.0753   ZZ=            -14.7112
   XY=             -2.5394   XZ=              0.0000   YZ=              0.0000

 Normal termination of Gaussian 16 at Fri Aug 26 15:53:38 2022.
