 Gaussian 16, Revision A.03,
 Gaussian 16:  ES64L-G16RevA.03 25-Dec-2016

 ------------------
 #p CCSD(T)/cc-pVTZ
 ------------------

 -----------
 H2O_H2O_308
 -----------
 Symbolic Z-matrix:
 Charge =  0 Multiplicity = 1

                         Standard orientation:
 ---------------------------------------------------------------------
 Center     Atomic      Atomic             Coordinates (Angstroms)
 Number     Number       Type             X           Y           Z
 ---------------------------------------------------------------------
      1          8           0        0.028576   -0.954915    0.000000
      2          1           0       -0.772451   -1.524003    0.000000
      3          1           0        0.826686   -1.528088    0.000000
      4          8           0        0.028576    0.970073    0.000000
      5          1           0        0.437743    1.863432    0.000000
      6          1           0       -0.949194    1.067400    0.000000
 ---------------------------------------------------------------------

 SCF Done:  E(RHF) =  -152.038738733     A.U. after   11 cycles
 E2 =    -0.5371045109D+00 EUMP2 =    -0.15257584324344D+03
 CCSD(T)
 CCSD(T)= -0.15260243147D+03

 The electronic state is 1-A'.
 Alpha  occ. eigenvalues --  -20.52161 -20.51682  -1.32852  -1.28230  -0.69462
 Alpha  occ. eigenvalues --   -0.67035  -0.60744  -0.49891  -0.44707  -0.42979
 Alpha virt. eigenvalues --    0.14478   0.18392   0.20248   0.23248   0.52356
 Alpha virt. eigenvalues --    0.57846   0.58751   0.65030   0.70337   0.77763
 Alpha virt. eigenvalues --    0.79028   0.82678   0.83831   0.86078   0.88089

 Mulliken charges:
               1
     1  O   -0.428311
     2  H    0.204150
     3  H    0.221831
     4  O   -0.399342
     5  H    0.171605
     6  H    0.230067
 Sum of Mulliken charges =  -0.00000

 Dipole moment (field-independent basis, Debye):
    X=             -0.8192    Y=             -0.3251    Z=              0.0000  Tot=              0.8814
 Quadrupole moment (field-independent basis, Debye-Ang):
   XX=             -8.6287   YY=             -6.2774   ZZ=            -14.7359
   XY=             -0.3404   XZ=              0.0000   YZ=              0.0000

 Normal termination of Gaussian 16 at Fri Aug 26 15:07:24 2022.
