 Gaussian 16, Revision A.03,
 Gaussian 16:  ES64L-G16RevA.03 25-Dec-2016

 ------------------
 #p CCSD(T)/cc-pVTZ
 ------------------

 -----------
 H2O_H2O_243
 -----------
 Symbolic Z-matrix:
 Charge =  0 Multiplicity = 1

                         Standard orientation:
 ---------------------------------------------------------------------
 Center     Atomic      Atomic             Coordinates (Angstroms)
 Number     Number       Type             X           Y           Z
 ---------------------------------------------------------------------
      1          8           0        0.052939   -0.885242    0.000000
      2          1           0       -0.749441   -1.452420    0.000000
      3          1           0        0.849681   -1.460314    0.000000
      4          8           0        0.052939    0.955234    0.000000
      5          1           0       -0.164007    1.913587    0.000000
      6          1           0       -0.783258    0.439211    0.000000
 ---------------------------------------------------------------------

 SCF Done:  E(RHF) =  -152.013258547     A.U. after   11 cycles
 E2 =    -0.5411578824D+00 EUMP2 =    -0.15255441642936D+03
 CCSD(T)
 CCSD(T)= -0.15258050730D+03

 The electronic state is 1-A'.
 Alpha  occ. eigenvalues --  -20.54372 -20.50579  -1.36362  -1.27400  -0.73840
 Alpha  occ. eigenvalues --   -0.69925  -0.54774  -0.52320  -0.45587  -0.44295
 Alpha virt. eigenvalues --    0.13590   0.18926   0.19568   0.24874   0.51329
 Alpha virt. eigenvalues --    0.55970   0.60684   0.65422   0.72810   0.76272
 Alpha virt. eigenvalues --    0.80570   0.80952   0.84021   0.84492   0.88384

 Mulliken charges:
               1
     1  O   -0.373493
     2  H    0.180477
     3  H    0.218808
     4  O   -0.424978
     5  H    0.152012
     6  H    0.247174
 Sum of Mulliken charges =  -0.00000

 Dipole moment (field-independent basis, Debye):
    X=             -1.4628    Y=             -1.5540    Z=              0.0000  Tot=              2.1342
 Quadrupole moment (field-independent basis, Debye-Ang):
   XX=             -9.6651   YY=             -7.2707   ZZ=            -14.6458
   XY=             -1.2628   XZ=              0.0000   YZ=              0.0000

 Normal termination of Gaussian 16 at Fri Aug 26 14:26:16 2022.
