 Gaussian 16, Revision A.03,
 Gaussian 16:  ES64L-G16RevA.03 25-Dec-2016

 ------------------
 #p CCSD(T)/cc-pVTZ
 ------------------

 ------------
 H2O_H2O_3896
 ------------
 Symbolic Z-matrix:
 Charge =  0 Multiplicity = 1

                         Standard orientation:
 ---------------------------------------------------------------------
 Center     Atomic      Atomic             Coordinates (Angstroms)
 Number     Number       Type             X           Y           Z
 ---------------------------------------------------------------------
      1          8           0        0.056093   -2.814635    0.000000
      2          1           0       -0.744439   -3.384418    0.000000
      3          1           0        0.854700   -3.387114    0.000000
      4          8           0        0.056093    2.906388    0.000000
      5          1           0       -0.346565    3.802698    0.000000
      6          1           0       -0.661187    2.234811    0.000000
 ---------------------------------------------------------------------

 SCF Done:  E(RHF) =  -152.107578021     A.U. after   10 cycles
 E2 =    -0.5258795192D+00 EUMP2 =    -0.15263345753974D+03
 CCSD(T)
 CCSD(T)= -0.15266067280D+03

 The electronic state is 1-A'.
 Alpha  occ. eigenvalues --  -20.55686 -20.55029  -1.32986  -1.32327  -0.70391
 Alpha  occ. eigenvalues --   -0.69723  -0.56441  -0.55777  -0.50098  -0.49442
 Alpha virt. eigenvalues --    0.13908   0.14723   0.20077   0.20817   0.54159
 Alpha virt. eigenvalues --    0.54840   0.57100   0.57743   0.67537   0.68622
 Alpha virt. eigenvalues --    0.78783   0.79426   0.80203   0.80752   0.82386

 Mulliken charges:
               1
     1  O   -0.509898
     2  H    0.253355
     3  H    0.256565
     4  O   -0.509428
     5  H    0.251489
     6  H    0.257916
 Sum of Mulliken charges =  -0.00000

 Dipole moment (field-independent basis, Debye):
    X=             -1.9249    Y=             -1.6109    Z=              0.0000  Tot=              2.5101
 Quadrupole moment (field-independent basis, Debye-Ang):
   XX=             -9.7835   YY=              3.5119   ZZ=            -14.7126
   XY=             -5.3813   XZ=              0.0000   YZ=              0.0000

 Normal termination of Gaussian 16 at Sat Aug 27 04:08:20 2022.
