 Gaussian 16, Revision A.03,
 Gaussian 16:  ES64L-G16RevA.03 25-Dec-2016

 ------------------
 #p CCSD(T)/cc-pVTZ
 ------------------

 -----------
 H2O_H2O_554
 -----------
 Symbolic Z-matrix:
 Charge =  0 Multiplicity = 1

                         Standard orientation:
 ---------------------------------------------------------------------
 Center     Atomic      Atomic             Coordinates (Angstroms)
 Number     Number       Type             X           Y           Z
 ---------------------------------------------------------------------
      1          8           0        0.014784   -1.094013    0.000000
      2          1           0       -0.785449   -1.664216    0.000000
      3          1           0        0.813692   -1.666073    0.000000
      4          8           0        0.014784    1.097871    0.000000
      5          1           0        0.640172    1.855761    0.000000
      6          1           0       -0.904962    1.443665    0.000000
 ---------------------------------------------------------------------

 SCF Done:  E(RHF) =  -152.074793354     A.U. after   11 cycles
 E2 =    -0.5319962348D+00 EUMP2 =    -0.15260678958828D+03
 CCSD(T)
 CCSD(T)= -0.15263391046D+03

 The electronic state is 1-A'.
 Alpha  occ. eigenvalues --  -20.52460 -20.52340  -1.31348  -1.29262  -0.68354
 Alpha  occ. eigenvalues --   -0.67045  -0.58947  -0.48652  -0.46843  -0.45839
 Alpha virt. eigenvalues --    0.14574   0.17995   0.20527   0.22709   0.50642
 Alpha virt. eigenvalues --    0.58958   0.59042   0.64850   0.71025   0.77088
 Alpha virt. eigenvalues --    0.77979   0.81717   0.84276   0.86622   0.87079

 Mulliken charges:
               1
     1  O   -0.447909
     2  H    0.219381
     3  H    0.227453
     4  O   -0.439886
     5  H    0.210661
     6  H    0.230300
 Sum of Mulliken charges =  -0.00000

 Dipole moment (field-independent basis, Debye):
    X=             -0.4447    Y=             -0.0779    Z=              0.0000  Tot=              0.4514
 Quadrupole moment (field-independent basis, Debye-Ang):
   XX=             -8.1980   YY=             -4.5479   ZZ=            -14.7409
   XY=             -0.1673   XZ=              0.0000   YZ=              0.0000

 Normal termination of Gaussian 16 at Fri Aug 26 17:35:48 2022.
