 Gaussian 16, Revision A.03,
 Gaussian 16:  ES64L-G16RevA.03 25-Dec-2016

 ------------------
 #p CCSD(T)/cc-pVTZ
 ------------------

 -----------
 H2O_H2O_336
 -----------
 Symbolic Z-matrix:
 Charge =  0 Multiplicity = 1

                         Standard orientation:
 ---------------------------------------------------------------------
 Center     Atomic      Atomic             Coordinates (Angstroms)
 Number     Number       Type             X           Y           Z
 ---------------------------------------------------------------------
      1          8           0        0.037704   -0.961183    0.000000
      2          1           0       -0.763761   -1.529654    0.000000
      3          1           0        0.835373   -1.534969    0.000000
      4          8           0        0.037704    0.989279    0.000000
      5          1           0        0.265459    1.945121    0.000000
      6          1           0       -0.940339    0.894735    0.000000
 ---------------------------------------------------------------------

 SCF Done:  E(RHF) =  -152.046710274     A.U. after   11 cycles
 E2 =    -0.5363929366D+00 EUMP2 =    -0.15258310321076D+03
 CCSD(T)
 CCSD(T)= -0.15260978008D+03

 The electronic state is 1-A'.
 Alpha  occ. eigenvalues --  -20.52742 -20.51782  -1.33096  -1.28387  -0.69995
 Alpha  occ. eigenvalues --   -0.67589  -0.59325  -0.50077  -0.44977  -0.44574
 Alpha virt. eigenvalues --    0.14298   0.18276   0.20132   0.23506   0.53260
 Alpha virt. eigenvalues --    0.57229   0.58482   0.64123   0.71415   0.77043
 Alpha virt. eigenvalues --    0.79584   0.82041   0.83462   0.85508   0.88301

 Mulliken charges:
               1
     1  O   -0.430427
     2  H    0.204342
     3  H    0.224133
     4  O   -0.400112
     5  H    0.168024
     6  H    0.234040
 Sum of Mulliken charges =  -0.00000

 Dipole moment (field-independent basis, Debye):
    X=             -1.0802    Y=             -0.5861    Z=              0.0000  Tot=              1.2290
 Quadrupole moment (field-independent basis, Debye-Ang):
   XX=             -8.9379   YY=             -6.1130   ZZ=            -14.7221
   XY=             -0.5638   XZ=              0.0000   YZ=              0.0000

 Normal termination of Gaussian 16 at Fri Aug 26 15:24:43 2022.
