 Gaussian 16, Revision A.03,
 Gaussian 16:  ES64L-G16RevA.03 25-Dec-2016

 ------------------
 #p CCSD(T)/cc-pVTZ
 ------------------

 ------------
 H2O_H2O_1614
 ------------
 Symbolic Z-matrix:
 Charge =  0 Multiplicity = 1

                         Standard orientation:
 ---------------------------------------------------------------------
 Center     Atomic      Atomic             Coordinates (Angstroms)
 Number     Number       Type             X           Y           Z
 ---------------------------------------------------------------------
      1          8           0        0.045364   -1.630380    0.000000
      2          1           0       -0.755553   -2.199624    0.000000
      3          1           0        0.843584   -2.203398    0.000000
      4          8           0        0.045364    1.674856    0.000000
      5          1           0        0.081320    2.656800    0.000000
      6          1           0       -0.895168    1.390416    0.000000
 ---------------------------------------------------------------------

 SCF Done:  E(RHF) =  -152.105583250     A.U. after   10 cycles
 E2 =    -0.5268383111D+00 EUMP2 =    -0.15263242156155D+03
 CCSD(T)
 CCSD(T)= -0.15265962535D+03

 The electronic state is 1-A'.
 Alpha  occ. eigenvalues --  -20.55027 -20.54001  -1.32309  -1.31260  -0.69732
 Alpha  occ. eigenvalues --   -0.68649  -0.55803  -0.54419  -0.49422  -0.48363
 Alpha virt. eigenvalues --    0.13743   0.16489   0.20200   0.22409   0.53745
 Alpha virt. eigenvalues --    0.55454   0.57649   0.58597   0.64665   0.76710
 Alpha virt. eigenvalues --    0.78066   0.78475   0.78881   0.81562   0.85236

 Mulliken charges:
               1
     1  O   -0.487933
     2  H    0.239773
     3  H    0.250802
     4  O   -0.490654
     5  H    0.235953
     6  H    0.252060
 Sum of Mulliken charges =  -0.00000

 Dipole moment (field-independent basis, Debye):
    X=             -1.5010    Y=             -0.8367    Z=              0.0000  Tot=              1.7185
 Quadrupole moment (field-independent basis, Debye-Ang):
   XX=             -9.1282   YY=             -0.3458   ZZ=            -14.7142
   XY=             -1.8339   XZ=              0.0000   YZ=              0.0000

 Normal termination of Gaussian 16 at Sat Aug 27 05:47:09 2022.
