 Gaussian 16, Revision A.03,
 Gaussian 16:  ES64L-G16RevA.03 25-Dec-2016

 ------------------
 #p CCSD(T)/cc-pVTZ
 ------------------

 -----------
 H2O_H2O_117
 -----------
 Symbolic Z-matrix:
 Charge =  0 Multiplicity = 1

                         Standard orientation:
 ---------------------------------------------------------------------
 Center     Atomic      Atomic             Coordinates (Angstroms)
 Number     Number       Type             X           Y           Z
 ---------------------------------------------------------------------
      1          8           0        0.051387   -0.822464    0.000000
      2          1           0       -0.751122   -1.389460    0.000000
      3          1           0        0.847999   -1.397717    0.000000
      4          8           0        0.051387    0.885640    0.000000
      5          1           0       -0.102195    1.856165    0.000000
      6          1           0       -0.816874    0.425607    0.000000
 ---------------------------------------------------------------------

 SCF Done:  E(RHF) =  -151.961804347     A.U. after   11 cycles
 E2 =    -0.5465160570D+00 EUMP2 =    -0.15250832040356D+03
 CCSD(T)
 CCSD(T)= -0.15253374587D+03

 The electronic state is 1-A'.
 Alpha  occ. eigenvalues --  -20.53888 -20.50576  -1.38204  -1.26716  -0.75204
 Alpha  occ. eigenvalues --   -0.70659  -0.55521  -0.53465  -0.43632  -0.41455
 Alpha virt. eigenvalues --    0.13654   0.19013   0.19674   0.24542   0.51470
 Alpha virt. eigenvalues --    0.56011   0.60096   0.66244   0.73168   0.76806
 Alpha virt. eigenvalues --    0.80276   0.81158   0.83989   0.84050   0.88808

 Mulliken charges:
               1
     1  O   -0.339388
     2  H    0.159800
     3  H    0.204345
     4  O   -0.388858
     5  H    0.120294
     6  H    0.243806
 Sum of Mulliken charges =  -0.00000

 Dipole moment (field-independent basis, Debye):
    X=             -1.3613    Y=             -1.4398    Z=              0.0000  Tot=              1.9815
 Quadrupole moment (field-independent basis, Debye-Ang):
   XX=             -9.6203   YY=             -8.2638   ZZ=            -14.6157
   XY=             -1.0038   XZ=              0.0000   YZ=              0.0000

 Normal termination of Gaussian 16 at Fri Aug 26 12:55:24 2022.
