 Gaussian 16, Revision A.03,
 Gaussian 16:  ES64L-G16RevA.03 25-Dec-2016

 ------------------
 #p CCSD(T)/cc-pVTZ
 ------------------

 ------------
 H2O_H2O_3310
 ------------
 Symbolic Z-matrix:
 Charge =  0 Multiplicity = 1

                         Standard orientation:
 ---------------------------------------------------------------------
 Center     Atomic      Atomic             Coordinates (Angstroms)
 Number     Number       Type             X           Y           Z
 ---------------------------------------------------------------------
      1          8           0        0.034782   -2.545883    0.000000
      2          1           0       -0.765457   -3.116079    0.000000
      3          1           0        0.833684   -3.117950    0.000000
      4          8           0        0.034782    2.569406    0.000000
      5          1           0        0.322542    3.508927    0.000000
      6          1           0       -0.947283    2.536917    0.000000
 ---------------------------------------------------------------------

 SCF Done:  E(RHF) =  -152.106578087     A.U. after   10 cycles
 E2 =    -0.5259838158D+00 EUMP2 =    -0.15263256190270D+03
 CCSD(T)
 CCSD(T)= -0.15265979762D+03

 The electronic state is 1-A'.
 Alpha  occ. eigenvalues --  -20.55144 -20.54935  -1.32439  -1.32227  -0.69848
 Alpha  occ. eigenvalues --   -0.69630  -0.55847  -0.55636  -0.49545  -0.49334
 Alpha virt. eigenvalues --    0.14291   0.14827   0.20450   0.20764   0.54668
 Alpha virt. eigenvalues --    0.54978   0.57562   0.57782   0.67640   0.69449
 Alpha virt. eigenvalues --    0.79332   0.79540   0.80757   0.81029   0.82737

 Mulliken charges:
               1
     1  O   -0.504005
     2  H    0.250573
     3  H    0.253443
     4  O   -0.503701
     5  H    0.249782
     6  H    0.253908
 Sum of Mulliken charges =  -0.00000

 Dipole moment (field-independent basis, Debye):
    X=             -1.1896    Y=             -0.4146    Z=              0.0000  Tot=              1.2598
 Quadrupole moment (field-independent basis, Debye-Ang):
   XX=             -8.5693   YY=              7.0291   ZZ=            -14.7106
   XY=             -2.2326   XZ=              0.0000   YZ=              0.0000

 Normal termination of Gaussian 16 at Fri Aug 26 21:15:41 2022.
