 Gaussian 16, Revision A.03,
 Gaussian 16:  ES64L-G16RevA.03 25-Dec-2016

 ------------------
 #p CCSD(T)/cc-pVTZ
 ------------------

 ------------
 H2O_H2O_4376
 ------------
 Symbolic Z-matrix:
 Charge =  0 Multiplicity = 1

                         Standard orientation:
 ---------------------------------------------------------------------
 Center     Atomic      Atomic             Coordinates (Angstroms)
 Number     Number       Type             X           Y           Z
 ---------------------------------------------------------------------
      1          8           0        0.003735   -3.130251    0.000000
      2          1           0       -0.795894   -3.701301    0.000000
      3          1           0        0.803248   -3.701465    0.000000
      4          8           0        0.003735    3.130494    0.000000
      5          1           0        0.764305    3.752620    0.000000
      6          1           0       -0.831424    3.648195    0.000000
 ---------------------------------------------------------------------

 SCF Done:  E(RHF) =  -152.106796862     A.U. after   10 cycles
 E2 =    -0.5259327749D+00 EUMP2 =    -0.15263272963733D+03
 CCSD(T)
 CCSD(T)= -0.15265996276D+03

 The electronic state is 1-A'.
 Alpha  occ. eigenvalues --  -20.55180 -20.55179  -1.32476  -1.32474  -0.69883
 Alpha  occ. eigenvalues --   -0.69881  -0.55895  -0.55893  -0.49583  -0.49581
 Alpha virt. eigenvalues --    0.14433   0.14462   0.20484   0.20497   0.54684
 Alpha virt. eigenvalues --    0.54691   0.57548   0.57555   0.68311   0.68376
 Alpha virt. eigenvalues --    0.79296   0.79298   0.80740   0.80742   0.82669

 Mulliken charges:
               1
     1  O   -0.505259
     2  H    0.252543
     3  H    0.252716
     4  O   -0.505258
     5  H    0.252508
     6  H    0.252750
 Sum of Mulliken charges =   0.00000

 Dipole moment (field-independent basis, Debye):
    X=             -0.1283    Y=             -0.0043    Z=              0.0000  Tot=              0.1284
 Quadrupole moment (field-independent basis, Debye-Ang):
   XX=             -7.8121   YY=             12.9902   ZZ=            -14.7106
   XY=             -0.2850   XZ=              0.0000   YZ=              0.0000

 Normal termination of Gaussian 16 at Sat Aug 27 06:58:01 2022.
