 Gaussian 16, Revision A.03,
 Gaussian 16:  ES64L-G16RevA.03 25-Dec-2016

 ------------------
 #p CCSD(T)/cc-pVTZ
 ------------------

 ------------
 H2O_H2O_3409
 ------------
 Symbolic Z-matrix:
 Charge =  0 Multiplicity = 1

                         Standard orientation:
 ---------------------------------------------------------------------
 Center     Atomic      Atomic             Coordinates (Angstroms)
 Number     Number       Type             X           Y           Z
 ---------------------------------------------------------------------
      1          8           0        0.031740   -2.601423    0.000000
      2          1           0       -0.768428   -3.171719    0.000000
      3          1           0        0.830714   -3.173391    0.000000
      4          8           0        0.031740    2.620608    0.000000
      5          1           0        0.380217    3.539340    0.000000
      6          1           0       -0.950350    2.652296    0.000000
 ---------------------------------------------------------------------

 SCF Done:  E(RHF) =  -152.106569283     A.U. after   10 cycles
 E2 =    -0.5259786541D+00 EUMP2 =    -0.15263254793740D+03
 CCSD(T)
 CCSD(T)= -0.15265978430D+03

 The electronic state is 1-A'.
 Alpha  occ. eigenvalues --  -20.55129 -20.54966  -1.32424  -1.32259  -0.69833
 Alpha  occ. eigenvalues --   -0.69663  -0.55831  -0.55667  -0.49529  -0.49365
 Alpha virt. eigenvalues --    0.14345   0.14764   0.20474   0.20717   0.54700
 Alpha virt. eigenvalues --    0.54941   0.57577   0.57752   0.67823   0.69221
 Alpha virt. eigenvalues --    0.79348   0.79510   0.80783   0.80987   0.82737

 Mulliken charges:
               1
     1  O   -0.503952
     2  H    0.250744
     3  H    0.253213
     4  O   -0.503711
     5  H    0.250098
     6  H    0.253607
 Sum of Mulliken charges =  -0.00000

 Dipole moment (field-independent basis, Debye):
    X=             -1.0862    Y=             -0.3376    Z=              0.0000  Tot=              1.1374
 Quadrupole moment (field-independent basis, Debye-Ang):
   XX=             -8.4420   YY=              7.6904   ZZ=            -14.7105
   XY=             -2.0513   XZ=              0.0000   YZ=              0.0000

 Normal termination of Gaussian 16 at Fri Aug 26 22:05:43 2022.
