 Gaussian 16, Revision A.03,
 Gaussian 16:  ES64L-G16RevA.03 25-Dec-2016

 ------------------
 #p CCSD(T)/cc-pVTZ
 ------------------

 ------------
 H2O_H2O_2451
 ------------
 Symbolic Z-matrix:
 Charge =  0 Multiplicity = 1

                         Standard orientation:
 ---------------------------------------------------------------------
 Center     Atomic      Atomic             Coordinates (Angstroms)
 Number     Number       Type             X           Y           Z
 ---------------------------------------------------------------------
      1          8           0        0.003735   -2.106466    0.000000
      2          1           0       -0.795923   -2.677476    0.000000
      3          1           0        0.803219   -2.677720    0.000000
      4          8           0        0.003735    2.106709    0.000000
      5          1           0        0.764336    2.728797    0.000000
      6          1           0       -0.831399    2.624452    0.000000
 ---------------------------------------------------------------------

 SCF Done:  E(RHF) =  -152.105394288     A.U. after   10 cycles
 E2 =    -0.5261973472D+00 EUMP2 =    -0.15263159163479D+03
 CCSD(T)
 CCSD(T)= -0.15265884194D+03

 The electronic state is 1-A'.
 Alpha  occ. eigenvalues --  -20.54657 -20.54654  -1.31946  -1.31938  -0.69362
 Alpha  occ. eigenvalues --   -0.69352  -0.55395  -0.55166  -0.49054  -0.49026
 Alpha virt. eigenvalues --    0.14270   0.15413   0.20638   0.21002   0.54618
 Alpha virt. eigenvalues --    0.55819   0.57862   0.58059   0.63720   0.73600
 Alpha virt. eigenvalues --    0.79609   0.80047   0.81100   0.81476   0.81731

 Mulliken charges:
               1
     1  O   -0.496455
     2  H    0.247970
     3  H    0.248487
     4  O   -0.496446
     5  H    0.247911
     6  H    0.248533
 Sum of Mulliken charges =  -0.00000

 Dipole moment (field-independent basis, Debye):
    X=             -0.1267    Y=             -0.0044    Z=              0.0000  Tot=              0.1267
 Quadrupole moment (field-independent basis, Debye-Ang):
   XX=             -7.8384   YY=              4.7225   ZZ=            -14.7094
   XY=             -0.1558   XZ=              0.0000   YZ=              0.0000

 Normal termination of Gaussian 16 at Sat Aug 27 10:38:00 2022.
