 Gaussian 16, Revision A.03,
 Gaussian 16:  ES64L-G16RevA.03 25-Dec-2016

 ------------------
 #p CCSD(T)/cc-pVTZ
 ------------------

 ------------
 H2O_H2O_1016
 ------------
 Symbolic Z-matrix:
 Charge =  0 Multiplicity = 1

                         Standard orientation:
 ---------------------------------------------------------------------
 Center     Atomic      Atomic             Coordinates (Angstroms)
 Number     Number       Type             X           Y           Z
 ---------------------------------------------------------------------
      1          8           0        0.049552   -1.304585    0.000000
      2          1           0       -0.751839   -1.873160    0.000000
      3          1           0        0.847295   -1.878269    0.000000
      4          8           0        0.049552    1.361382    0.000000
      5          1           0       -0.042152    2.339695    0.000000
      6          1           0       -0.846143    0.957358    0.000000
 ---------------------------------------------------------------------

 SCF Done:  E(RHF) =  -152.101986346     A.U. after   11 cycles
 E2 =    -0.5284686395D+00 EUMP2 =    -0.15263045498509D+03
 CCSD(T)
 CCSD(T)= -0.15265763260D+03

 The electronic state is 1-A'.
 Alpha  occ. eigenvalues --  -20.55047 -20.53142  -1.32530  -1.30387  -0.69941
 Alpha  occ. eigenvalues --   -0.68021  -0.56172  -0.53047  -0.49664  -0.47425
 Alpha virt. eigenvalues --    0.13725   0.17329   0.20016   0.23612   0.53329
 Alpha virt. eigenvalues --    0.57482   0.58440   0.58754   0.70346   0.75525
 Alpha virt. eigenvalues --    0.76552   0.78316   0.82438   0.82900   0.85077

 Mulliken charges:
               1
     1  O   -0.475654
     2  H    0.232510
     3  H    0.250063
     4  O   -0.477497
     5  H    0.220709
     6  H    0.249870
 Sum of Mulliken charges =  -0.00000

 Dipole moment (field-independent basis, Debye):
    X=             -1.5742    Y=             -1.1154    Z=              0.0000  Tot=              1.9293
 Quadrupole moment (field-independent basis, Debye-Ang):
   XX=             -9.4058   YY=             -3.0249   ZZ=            -14.7230
   XY=             -1.6812   XZ=              0.0000   YZ=              0.0000

 Normal termination of Gaussian 16 at Sat Aug 27 01:24:27 2022.
