 Gaussian 16, Revision A.03,
 Gaussian 16:  ES64L-G16RevA.03 25-Dec-2016

 ------------------
 #p CCSD(T)/cc-pVTZ
 ------------------

 ------------
 H2O_H2O_1071
 ------------
 Symbolic Z-matrix:
 Charge =  0 Multiplicity = 1

                         Standard orientation:
 ---------------------------------------------------------------------
 Center     Atomic      Atomic             Coordinates (Angstroms)
 Number     Number       Type             X           Y           Z
 ---------------------------------------------------------------------
      1          8           0        0.056179   -1.312306    0.000000
      2          1           0       -0.745415   -1.880596    0.000000
      3          1           0        0.853717   -1.886274    0.000000
      4          8           0        0.056179    1.403850    0.000000
      5          1           0       -0.344808    2.300910    0.000000
      6          1           0       -0.662353    0.733612    0.000000
 ---------------------------------------------------------------------

 SCF Done:  E(RHF) =  -152.105621067     A.U. after   10 cycles
 E2 =    -0.5285493336D+00 EUMP2 =    -0.15263417040043D+03
 CCSD(T)
 CCSD(T)= -0.15266123121D+03

 The electronic state is 1-A'.
 Alpha  occ. eigenvalues --  -20.56240 -20.52763  -1.33723  -1.30098  -0.71112
 Alpha  occ. eigenvalues --   -0.68004  -0.56618  -0.53578  -0.50812  -0.47196
 Alpha virt. eigenvalues --    0.13200   0.17655   0.19633   0.25213   0.51936
 Alpha virt. eigenvalues --    0.56595   0.58070   0.59663   0.70584   0.74412
 Alpha virt. eigenvalues --    0.75168   0.80224   0.82553   0.83474   0.84171

 Mulliken charges:
               1
     1  O   -0.479412
     2  H    0.238813
     3  H    0.255978
     4  O   -0.504439
     5  H    0.227090
     6  H    0.261969
 Sum of Mulliken charges =  -0.00000

 Dipole moment (field-independent basis, Debye):
    X=             -1.7958    Y=             -1.8526    Z=              0.0000  Tot=              2.5801
 Quadrupole moment (field-independent basis, Debye-Ang):
   XX=             -9.7963   YY=             -4.0110   ZZ=            -14.7256
   XY=             -2.5659   XZ=              0.0000   YZ=              0.0000

 Normal termination of Gaussian 16 at Sat Aug 27 01:50:56 2022.
