 Gaussian 16, Revision A.03,
 Gaussian 16:  ES64L-G16RevA.03 25-Dec-2016

 ------------------
 #p CCSD(T)/cc-pVTZ
 ------------------

 ------------
 H2O_H2O_2970
 ------------
 Symbolic Z-matrix:
 Charge =  0 Multiplicity = 1

                         Standard orientation:
 ---------------------------------------------------------------------
 Center     Atomic      Atomic             Coordinates (Angstroms)
 Number     Number       Type             X           Y           Z
 ---------------------------------------------------------------------
      1          8           0        0.055252   -2.326656    0.000000
      2          1           0       -0.745463   -2.896184    0.000000
      3          1           0        0.853676   -2.899390    0.000000
      4          8           0        0.055252    2.411097    0.000000
      5          1           0       -0.287630    3.331933    0.000000
      6          1           0       -0.704614    1.788113    0.000000
 ---------------------------------------------------------------------

 SCF Done:  E(RHF) =  -152.107614576     A.U. after   10 cycles
 E2 =    -0.5259631188D+00 EUMP2 =    -0.15263357769475D+03
 CCSD(T)
 CCSD(T)= -0.15266078274D+03

 The electronic state is 1-A'.
 Alpha  occ. eigenvalues --  -20.55675 -20.54744  -1.32967  -1.32040  -0.70374
 Alpha  occ. eigenvalues --   -0.69426  -0.56418  -0.55486  -0.50080  -0.49157
 Alpha virt. eigenvalues --    0.13499   0.15287   0.20045   0.21333   0.54079
 Alpha virt. eigenvalues --    0.54882   0.57139   0.57938   0.66693   0.70659
 Alpha virt. eigenvalues --    0.78807   0.79704   0.79888   0.80723   0.82783

 Mulliken charges:
               1
     1  O   -0.508807
     2  H    0.251926
     3  H    0.257366
     4  O   -0.508982
     5  H    0.249164
     6  H    0.259333
 Sum of Mulliken charges =  -0.00000

 Dipole moment (field-independent basis, Debye):
    X=             -1.8855    Y=             -1.5061    Z=              0.0000  Tot=              2.4132
 Quadrupole moment (field-independent basis, Debye-Ang):
   XX=             -9.7226   YY=              1.7082   ZZ=            -14.7134
   XY=             -4.2520   XZ=              0.0000   YZ=              0.0000

 Normal termination of Gaussian 16 at Fri Aug 26 17:55:29 2022.
