 Gaussian 16, Revision A.03,
 Gaussian 16:  ES64L-G16RevA.03 25-Dec-2016

 ------------------
 #p CCSD(T)/cc-pVTZ
 ------------------

 -----------
 H2O_H2O_543
 -----------
 Symbolic Z-matrix:
 Charge =  0 Multiplicity = 1

                         Standard orientation:
 ---------------------------------------------------------------------
 Center     Atomic      Atomic             Coordinates (Angstroms)
 Number     Number       Type             X           Y           Z
 ---------------------------------------------------------------------
      1          8           0        0.052914   -1.044753    0.000000
      2          1           0       -0.749053   -1.612516    0.000000
      3          1           0        0.850075   -1.619244    0.000000
      4          8           0        0.052914    1.114822    0.000000
      5          1           0       -0.164731    2.073016    0.000000
      6          1           0       -0.782907    0.598189    0.000000
 ---------------------------------------------------------------------

 SCF Done:  E(RHF) =  -152.077944471     A.U. after   11 cycles
 E2 =    -0.5332469859D+00 EUMP2 =    -0.15261119145688D+03
 CCSD(T)
 CCSD(T)= -0.15263807227D+03

 The electronic state is 1-A'.
 Alpha  occ. eigenvalues --  -20.54972 -20.51724  -1.33811  -1.28944  -0.71194
 Alpha  occ. eigenvalues --   -0.68580  -0.55548  -0.50705  -0.50590  -0.45860
 Alpha virt. eigenvalues --    0.13597   0.18293   0.19733   0.24744   0.51768
 Alpha virt. eigenvalues --    0.56736   0.60240   0.62644   0.71863   0.74815
 Alpha virt. eigenvalues --    0.79089   0.82701   0.84211   0.84248   0.87754

 Mulliken charges:
               1
     1  O   -0.434408
     2  H    0.213281
     3  H    0.236820
     4  O   -0.457012
     5  H    0.191659
     6  H    0.249660
 Sum of Mulliken charges =  -0.00000

 Dipole moment (field-independent basis, Debye):
    X=             -1.5757    Y=             -1.4644    Z=              0.0000  Tot=              2.1511
 Quadrupole moment (field-independent basis, Debye-Ang):
   XX=             -9.6337   YY=             -5.4478   ZZ=            -14.7060
   XY=             -1.5731   XZ=              0.0000   YZ=              0.0000

 Normal termination of Gaussian 16 at Fri Aug 26 17:29:39 2022.
