 Gaussian 16, Revision A.03,
 Gaussian 16:  ES64L-G16RevA.03 25-Dec-2016

 ------------------
 #p CCSD(T)/cc-pVTZ
 ------------------

 ------------
 H2O_H2O_1671
 ------------
 Symbolic Z-matrix:
 Charge =  0 Multiplicity = 1

                         Standard orientation:
 ---------------------------------------------------------------------
 Center     Atomic      Atomic             Coordinates (Angstroms)
 Number     Number       Type             X           Y           Z
 ---------------------------------------------------------------------
      1          8           0        0.056148   -1.631369    0.000000
      2          1           0       -0.745062   -2.200199    0.000000
      3          1           0        0.854073   -2.204797    0.000000
      4          8           0        0.056148    1.722988    0.000000
      5          1           0       -0.345445    2.619777    0.000000
      6          1           0       -0.661931    1.052264    0.000000
 ---------------------------------------------------------------------

 SCF Done:  E(RHF) =  -152.108504495     A.U. after   10 cycles
 E2 =    -0.5267394226D+00 EUMP2 =    -0.15263524391773D+03
 CCSD(T)
 CCSD(T)= -0.15266237666D+03

 The electronic state is 1-A'.
 Alpha  occ. eigenvalues --  -20.56060 -20.53784  -1.33335  -1.31075  -0.70744
 Alpha  occ. eigenvalues --   -0.68462  -0.56762  -0.54537  -0.50454  -0.48206
 Alpha virt. eigenvalues --    0.13156   0.16742   0.19777   0.24037   0.53371
 Alpha virt. eigenvalues --    0.55250   0.56809   0.58233   0.66579   0.75622
 Alpha virt. eigenvalues --    0.76949   0.77208   0.79392   0.81231   0.84438

 Mulliken charges:
               1
     1  O   -0.495051
     2  H    0.245106
     3  H    0.257369
     4  O   -0.509387
     5  H    0.240102
     6  H    0.261862
 Sum of Mulliken charges =  -0.00000

 Dipole moment (field-independent basis, Debye):
    X=             -1.8636    Y=             -1.7467    Z=              0.0000  Tot=              2.5542
 Quadrupole moment (field-independent basis, Debye-Ang):
   XX=             -9.7866   YY=             -2.2338   ZZ=            -14.7207
   XY=             -3.1487   XZ=              0.0000   YZ=              0.0000

 Normal termination of Gaussian 16 at Sat Aug 27 06:08:11 2022.
