 Gaussian 16, Revision A.03,
 Gaussian 16:  ES64L-G16RevA.03 25-Dec-2016

 ------------------
 #p CCSD(T)/cc-pVTZ
 ------------------

 ------------
 H2O_H2O_1271
 ------------
 Symbolic Z-matrix:
 Charge =  0 Multiplicity = 1

                         Standard orientation:
 ---------------------------------------------------------------------
 Center     Atomic      Atomic             Coordinates (Angstroms)
 Number     Number       Type             X           Y           Z
 ---------------------------------------------------------------------
      1          8           0        0.056167   -1.418659    0.000000
      2          1           0       -0.745280   -1.987155    0.000000
      3          1           0        0.853853   -1.992420    0.000000
      4          8           0        0.056167    1.510231    0.000000
      5          1           0       -0.345051    2.407187    0.000000
      6          1           0       -0.662192    0.839807    0.000000
 ---------------------------------------------------------------------

 SCF Done:  E(RHF) =  -152.107637291     A.U. after   10 cycles
 E2 =    -0.5276785575D+00 EUMP2 =    -0.15263531584882D+03
 CCSD(T)
 CCSD(T)= -0.15266241360D+03

 The electronic state is 1-A'.
 Alpha  occ. eigenvalues --  -20.56194 -20.53186  -1.33547  -1.30493  -0.70949
 Alpha  occ. eigenvalues --   -0.68076  -0.56786  -0.53965  -0.50656  -0.47612
 Alpha virt. eigenvalues --    0.13193   0.17323   0.19686   0.24839   0.52563
 Alpha virt. eigenvalues --    0.56280   0.56890   0.58921   0.69192   0.74918
 Alpha virt. eigenvalues --    0.75324   0.78156   0.81587   0.82163   0.84299

 Mulliken charges:
               1
     1  O   -0.487096
     2  H    0.241599
     3  H    0.257824
     4  O   -0.506616
     5  H    0.232772
     6  H    0.261517
 Sum of Mulliken charges =  -0.00000

 Dipole moment (field-independent basis, Debye):
    X=             -1.8239    Y=             -1.8108    Z=              0.0000  Tot=              2.5702
 Quadrupole moment (field-independent basis, Debye-Ang):
   XX=             -9.7929   YY=             -3.3843   ZZ=            -14.7255
   XY=             -2.7593   XZ=              0.0000   YZ=              0.0000

 Normal termination of Gaussian 16 at Sat Aug 27 03:31:32 2022.
