 Gaussian 16, Revision A.03,
 Gaussian 16:  ES64L-G16RevA.03 25-Dec-2016

 ------------------
 #p CCSD(T)/cc-pVTZ
 ------------------

 ------------
 H2O_H2O_3946
 ------------
 Symbolic Z-matrix:
 Charge =  0 Multiplicity = 1

                         Standard orientation:
 ---------------------------------------------------------------------
 Center     Atomic      Atomic             Coordinates (Angstroms)
 Number     Number       Type             X           Y           Z
 ---------------------------------------------------------------------
      1          8           0        0.056093   -2.841226    0.000000
      2          1           0       -0.744431   -3.411022    0.000000
      3          1           0        0.854708   -3.413693    0.000000
      4          8           0        0.056093    2.932981    0.000000
      5          1           0       -0.346580    3.829285    0.000000
      6          1           0       -0.661177    2.261392    0.000000
 ---------------------------------------------------------------------

 SCF Done:  E(RHF) =  -152.107573317     A.U. after   10 cycles
 E2 =    -0.5258780884D+00 EUMP2 =    -0.15263345140573D+03
 CCSD(T)
 CCSD(T)= -0.15266066693D+03

 The electronic state is 1-A'.
 Alpha  occ. eigenvalues --  -20.55685 -20.55040  -1.32984  -1.32339  -0.70390
 Alpha  occ. eigenvalues --   -0.69735  -0.56439  -0.55788  -0.50097  -0.49454
 Alpha virt. eigenvalues --    0.13922   0.14703   0.20079   0.20800   0.54162
 Alpha virt. eigenvalues --    0.54830   0.57101   0.57734   0.67566   0.68580
 Alpha virt. eigenvalues --    0.78785   0.79415   0.80206   0.80766   0.82348

 Mulliken charges:
               1
     1  O   -0.509876
     2  H    0.253385
     3  H    0.256509
     4  O   -0.509420
     5  H    0.251571
     6  H    0.257831
 Sum of Mulliken charges =  -0.00000

 Dipole moment (field-independent basis, Debye):
    X=             -1.9253    Y=             -1.6101    Z=              0.0000  Tot=              2.5098
 Quadrupole moment (field-independent basis, Debye-Ang):
   XX=             -9.7836   YY=              3.6391   ZZ=            -14.7126
   XY=             -5.4321   XZ=              0.0000   YZ=              0.0000

 Normal termination of Gaussian 16 at Sat Aug 27 04:29:22 2022.
