 Gaussian 16, Revision A.03,
 Gaussian 16:  ES64L-G16RevA.03 25-Dec-2016

 ------------------
 #p CCSD(T)/cc-pVTZ
 ------------------

 ------------
 H2O_H2O_1891
 ------------
 Symbolic Z-matrix:
 Charge =  0 Multiplicity = 1

                         Standard orientation:
 ---------------------------------------------------------------------
 Center     Atomic      Atomic             Coordinates (Angstroms)
 Number     Number       Type             X           Y           Z
 ---------------------------------------------------------------------
      1          8           0        0.049529   -1.769900    0.000000
      2          1           0       -0.751392   -2.339137    0.000000
      3          1           0        0.847745   -2.342923    0.000000
      4          8           0        0.049529    1.826778    0.000000
      5          1           0       -0.042984    2.805015    0.000000
      6          1           0       -0.845832    1.422013    0.000000
 ---------------------------------------------------------------------

 SCF Done:  E(RHF) =  -152.106681674     A.U. after   10 cycles
 E2 =    -0.5264913125D+00 EUMP2 =    -0.15263317298678D+03
 CCSD(T)
 CCSD(T)= -0.15266036309D+03

 The electronic state is 1-A'.
 Alpha  occ. eigenvalues --  -20.55330 -20.54188  -1.32605  -1.31459  -0.70022
 Alpha  occ. eigenvalues --   -0.68836  -0.56013  -0.54818  -0.49716  -0.48575
 Alpha virt. eigenvalues --    0.13519   0.16248   0.20121   0.22352   0.53766
 Alpha virt. eigenvalues --    0.54670   0.57427   0.58554   0.64439   0.76304
 Alpha virt. eigenvalues --    0.78540   0.78566   0.79887   0.80798   0.85002

 Mulliken charges:
               1
     1  O   -0.495438
     2  H    0.244049
     3  H    0.253894
     4  O   -0.499666
     5  H    0.240897
     6  H    0.256265
 Sum of Mulliken charges =  -0.00000

 Dipole moment (field-independent basis, Debye):
    X=             -1.6562    Y=             -1.0564    Z=              0.0000  Tot=              1.9645
 Quadrupole moment (field-independent basis, Debye-Ang):
   XX=             -9.3590   YY=              0.1302   ZZ=            -14.7144
   XY=             -2.4344   XZ=              0.0000   YZ=              0.0000

 Normal termination of Gaussian 16 at Sat Aug 27 07:23:31 2022.
