 Gaussian 16, Revision A.03,
 Gaussian 16:  ES64L-G16RevA.03 25-Dec-2016

 ------------------
 #p CCSD(T)/cc-pVTZ
 ------------------

 ------------
 H2O_H2O_4469
 ------------
 Symbolic Z-matrix:
 Charge =  0 Multiplicity = 1

                         Standard orientation:
 ---------------------------------------------------------------------
 Center     Atomic      Atomic             Coordinates (Angstroms)
 Number     Number       Type             X           Y           Z
 ---------------------------------------------------------------------
      1          8           0        0.054139   -3.128263    0.000000
      2          1           0       -0.746271   -3.698219    0.000000
      3          1           0        0.852870   -3.700570    0.000000
      4          8           0        0.054139    3.205614    0.000000
      5          1           0       -0.228287    4.146752    0.000000
      6          1           0       -0.744539    2.633232    0.000000
 ---------------------------------------------------------------------

 SCF Done:  E(RHF) =  -152.107426061     A.U. after   10 cycles
 E2 =    -0.5258784259D+00 EUMP2 =    -0.15263330448666D+03
 CCSD(T)
 CCSD(T)= -0.15266052414D+03

 The electronic state is 1-A'.
 Alpha  occ. eigenvalues --  -20.55601 -20.55155  -1.32900  -1.32453  -0.70306
 Alpha  occ. eigenvalues --   -0.69852  -0.56348  -0.55898  -0.50011  -0.49566
 Alpha virt. eigenvalues --    0.14067   0.14530   0.20151   0.20629   0.54255
 Alpha virt. eigenvalues --    0.54722   0.57176   0.57622   0.67821   0.68317
 Alpha virt. eigenvalues --    0.78869   0.79307   0.80299   0.80770   0.82233

 Mulliken charges:
               1
     1  O   -0.509001
     2  H    0.253327
     3  H    0.255675
     4  O   -0.508728
     5  H    0.252149
     6  H    0.256578
 Sum of Mulliken charges =  -0.00000

 Dipole moment (field-independent basis, Debye):
    X=             -1.8609    Y=             -1.3515    Z=              0.0000  Tot=              2.2999
 Quadrupole moment (field-independent basis, Debye-Ang):
   XX=             -9.6487   YY=              6.4618   ZZ=            -14.7121
   XY=             -5.5147   XZ=              0.0000   YZ=              0.0000

 Normal termination of Gaussian 16 at Sat Aug 27 07:29:24 2022.
