 Gaussian 16, Revision A.03,
 Gaussian 16:  ES64L-G16RevA.03 25-Dec-2016

 ------------------
 #p CCSD(T)/cc-pVTZ
 ------------------

 ------------
 H2O_H2O_4867
 ------------
 Symbolic Z-matrix:
 Charge =  0 Multiplicity = 1

                         Standard orientation:
 ---------------------------------------------------------------------
 Center     Atomic      Atomic             Coordinates (Angstroms)
 Number     Number       Type             X           Y           Z
 ---------------------------------------------------------------------
      1          8           0        0.051265   -3.348481    0.000000
      2          1           0       -0.749051   -3.918569    0.000000
      3          1           0        0.850090   -3.920655    0.000000
      4          8           0        0.051265    3.412052    0.000000
      5          1           0       -0.106061    4.381977    0.000000
      6          1           0       -0.815214    2.948673    0.000000
 ---------------------------------------------------------------------

 SCF Done:  E(RHF) =  -152.107344615     A.U. after   10 cycles
 E2 =    -0.5258806631D+00 EUMP2 =    -0.15263322527776D+03
 CCSD(T)
 CCSD(T)= -0.15266044699D+03

 The electronic state is 1-A'.
 Alpha  occ. eigenvalues --  -20.55543 -20.55223  -1.32841  -1.32521  -0.70248
 Alpha  occ. eigenvalues --   -0.69922  -0.56286  -0.55964  -0.49953  -0.49633
 Alpha virt. eigenvalues --    0.14128   0.14448   0.20200   0.20537   0.54315
 Alpha virt. eigenvalues --    0.54650   0.57228   0.57548   0.67908   0.68237
 Alpha virt. eigenvalues --    0.78927   0.79243   0.80360   0.80700   0.82284

 Mulliken charges:
               1
     1  O   -0.508506
     2  H    0.253321
     3  H    0.255186
     4  O   -0.508326
     5  H    0.252493
     6  H    0.255833
 Sum of Mulliken charges =  -0.00000

 Dipole moment (field-independent basis, Debye):
    X=             -1.7635    Y=             -1.1082    Z=              0.0000  Tot=              2.0828
 Quadrupole moment (field-independent basis, Debye-Ang):
   XX=             -9.4579   YY=              9.0488   ZZ=            -14.7118
   XY=             -5.3731   XZ=              0.0000   YZ=              0.0000

 Normal termination of Gaussian 16 at Sat Aug 27 09:47:03 2022.
