 Gaussian 16, Revision A.03,
 Gaussian 16:  ES64L-G16RevA.03 25-Dec-2016

 ------------------
 #p CCSD(T)/cc-pVTZ
 ------------------

 ------------
 H2O_H2O_1708
 ------------
 Symbolic Z-matrix:
 Charge =  0 Multiplicity = 1

                         Standard orientation:
 ---------------------------------------------------------------------
 Center     Atomic      Atomic             Coordinates (Angstroms)
 Number     Number       Type             X           Y           Z
 ---------------------------------------------------------------------
      1          8           0        0.028568   -1.699453    0.000000
      2          1           0       -0.771825   -2.269433    0.000000
      3          1           0        0.827315   -2.271736    0.000000
      4          8           0        0.028568    1.714674    0.000000
      5          1           0        0.436739    2.608488    0.000000
      6          1           0       -0.949310    1.810912    0.000000
 ---------------------------------------------------------------------

 SCF Done:  E(RHF) =  -152.104372397     A.U. after   10 cycles
 E2 =    -0.5267425666D+00 EUMP2 =    -0.15263111496345D+03
 CCSD(T)
 CCSD(T)= -0.15265835756D+03

 The electronic state is 1-A'.
 Alpha  occ. eigenvalues --  -20.54496 -20.54182  -1.31779  -1.31447  -0.69204
 Alpha  occ. eigenvalues --   -0.68859  -0.55446  -0.54313  -0.48896  -0.48523
 Alpha virt. eigenvalues --    0.14070   0.16252   0.20474   0.21686   0.52983
 Alpha virt. eigenvalues --    0.56651   0.58022   0.58519   0.62996   0.76717
 Alpha virt. eigenvalues --    0.78689   0.78866   0.80077   0.81413   0.84515

 Mulliken charges:
               1
     1  O   -0.485460
     2  H    0.239680
     3  H    0.246423
     4  O   -0.485381
     5  H    0.238277
     6  H    0.246460
 Sum of Mulliken charges =  -0.00000

 Dipole moment (field-independent basis, Debye):
    X=             -0.9507    Y=             -0.2836    Z=              0.0000  Tot=              0.9921
 Quadrupole moment (field-independent basis, Debye-Ang):
   XX=             -8.3641   YY=              0.9957   ZZ=            -14.7102
   XY=             -0.9457   XZ=              0.0000   YZ=              0.0000

 477206\MP4DQ=-152.640103\MP4SDQ=-152.643215\CCSD=-152.6426037\CCSD(T)=
 Normal termination of Gaussian 16 at Sat Aug 27 06:20:13 2022.
