 Gaussian 16, Revision A.03,
 Gaussian 16:  ES64L-G16RevA.03 25-Dec-2016

 ------------------
 #p CCSD(T)/cc-pVTZ
 ------------------

 ------------
 H2O_H2O_3542
 ------------
 Symbolic Z-matrix:
 Charge =  0 Multiplicity = 1

                         Standard orientation:
 ---------------------------------------------------------------------
 Center     Atomic      Atomic             Coordinates (Angstroms)
 Number     Number       Type             X           Y           Z
 ---------------------------------------------------------------------
      1          8           0        0.051276   -2.643815    0.000000
      2          1           0       -0.749235   -3.213629    0.000000
      3          1           0        0.849904   -3.216264    0.000000
      4          8           0        0.051276    2.707352    0.000000
      5          1           0       -0.105717    3.677331    0.000000
      6          1           0       -0.815363    2.244271    0.000000
 ---------------------------------------------------------------------

 SCF Done:  E(RHF) =  -152.107225335     A.U. after   10 cycles
 E2 =    -0.5259229574D+00 EUMP2 =    -0.15263314829252D+03
 CCSD(T)
 CCSD(T)= -0.15266037012D+03

 The electronic state is 1-A'.
 Alpha  occ. eigenvalues --  -20.55488 -20.54963  -1.32786  -1.32258  -0.70193
 Alpha  occ. eigenvalues --   -0.69654  -0.56224  -0.55695  -0.49896  -0.49371
 Alpha virt. eigenvalues --    0.14012   0.14815   0.20209   0.20845   0.54342
 Alpha virt. eigenvalues --    0.54912   0.57272   0.57779   0.67570   0.69001
 Alpha virt. eigenvalues --    0.78985   0.79499   0.80394   0.80848   0.82591

 Mulliken charges:
               1
     1  O   -0.507799
     2  H    0.252072
     3  H    0.255762
     4  O   -0.507365
     5  H    0.250462
     6  H    0.256867
 Sum of Mulliken charges =  -0.00000

 Dipole moment (field-independent basis, Debye):
    X=             -1.7566    Y=             -1.1189    Z=              0.0000  Tot=              2.0827
 Quadrupole moment (field-independent basis, Debye-Ang):
   XX=             -9.4576   YY=              4.9788   ZZ=            -14.7119
   XY=             -4.1417   XZ=              0.0000   YZ=              0.0000

 Normal termination of Gaussian 16 at Sat Aug 27 01:20:57 2022.
