 Gaussian 16, Revision A.03,
 Gaussian 16:  ES64L-G16RevA.03 25-Dec-2016

 ------------------
 #p CCSD(T)/cc-pVTZ
 ------------------

 ------------
 H2O_H2O_2413
 ------------
 Symbolic Z-matrix:
 Charge =  0 Multiplicity = 1

                         Standard orientation:
 ---------------------------------------------------------------------
 Center     Atomic      Atomic             Coordinates (Angstroms)
 Number     Number       Type             X           Y           Z
 ---------------------------------------------------------------------
      1          8           0        0.042975   -2.058955    0.000000
      2          1           0       -0.757611   -2.628664    0.000000
      3          1           0        0.841528   -2.631509    0.000000
      4          8           0        0.042975    2.097714    0.000000
      5          1           0        0.142507    3.075262    0.000000
      6          1           0       -0.914017    1.874840    0.000000
 ---------------------------------------------------------------------

 SCF Done:  E(RHF) =  -152.106375477     A.U. after   10 cycles
 E2 =    -0.5261640680D+00 EUMP2 =    -0.15263253954542D+03
 CCSD(T)
 CCSD(T)= -0.15265976292D+03

 The electronic state is 1-A'.
 Alpha  occ. eigenvalues --  -20.55125 -20.54572  -1.32411  -1.31854  -0.69824
 Alpha  occ. eigenvalues --   -0.69247  -0.55806  -0.55233  -0.49516  -0.48963
 Alpha virt. eigenvalues --    0.13769   0.15610   0.20314   0.21377   0.53902
 Alpha virt. eigenvalues --    0.55157   0.57589   0.58108   0.64885   0.74059
 Alpha virt. eigenvalues --    0.79258   0.80002   0.80259   0.81521   0.83133

 Mulliken charges:
               1
     1  O   -0.500996
     2  H    0.247664
     3  H    0.253824
     4  O   -0.501106
     5  H    0.245842
     6  H    0.254772
 Sum of Mulliken charges =  -0.00000

 Dipole moment (field-independent basis, Debye):
    X=             -1.4558    Y=             -0.6997    Z=              0.0000  Tot=              1.6152
 Quadrupole moment (field-independent basis, Debye-Ang):
   XX=             -8.9750   YY=              2.8169   ZZ=            -14.7116
   XY=             -2.2705   XZ=              0.0000   YZ=              0.0000

 Normal termination of Gaussian 16 at Sat Aug 27 10:25:18 2022.
