 Gaussian 16, Revision A.03,
 Gaussian 16:  ES64L-G16RevA.03 25-Dec-2016

 ------------------
 #p CCSD(T)/cc-pVTZ
 ------------------

 ------------
 H2O_H2O_4854
 ------------
 Symbolic Z-matrix:
 Charge =  0 Multiplicity = 1

                         Standard orientation:
 ---------------------------------------------------------------------
 Center     Atomic      Atomic             Coordinates (Angstroms)
 Number     Number       Type             X           Y           Z
 ---------------------------------------------------------------------
      1          8           0        0.014783   -3.380898    0.000000
      2          1           0       -0.785003   -3.951729    0.000000
      3          1           0        0.814139   -3.952330    0.000000
      4          8           0        0.014783    3.384779    0.000000
      5          1           0        0.639575    4.143159    0.000000
      6          1           0       -0.905235    3.729852    0.000000
 ---------------------------------------------------------------------

 SCF Done:  E(RHF) =  -152.106962566     A.U. after   10 cycles
 E2 =    -0.5259134231D+00 EUMP2 =    -0.15263287598939D+03
 CCSD(T)
 CCSD(T)= -0.15266010589D+03

 The electronic state is 1-A'.
 Alpha  occ. eigenvalues --  -20.55265 -20.55246  -1.32561  -1.32542  -0.69968
 Alpha  occ. eigenvalues --   -0.69948  -0.55988  -0.55969  -0.49670  -0.49650
 Alpha virt. eigenvalues --    0.14375   0.14396   0.20427   0.20448   0.54600
 Alpha virt. eigenvalues --    0.54621   0.57478   0.57498   0.68234   0.68257
 Alpha virt. eigenvalues --    0.79210   0.79229   0.80651   0.80672   0.82576

 Mulliken charges:
               1
     1  O   -0.506235
     2  H    0.252842
     3  H    0.253394
     4  O   -0.506219
     5  H    0.252712
     6  H    0.253506
 Sum of Mulliken charges =  -0.00000

 Dipole moment (field-independent basis, Debye):
    X=             -0.5084    Y=             -0.0676    Z=              0.0000  Tot=              0.5129
 Quadrupole moment (field-independent basis, Debye-Ang):
   XX=             -7.9385   YY=             14.6994   ZZ=            -14.7109
   XY=             -1.2721   XZ=              0.0000   YZ=              0.0000

 Normal termination of Gaussian 16 at Sat Aug 27 09:42:43 2022.
