 Gaussian 16, Revision A.03,
 Gaussian 16:  ES64L-G16RevA.03 25-Dec-2016

 ------------------
 #p CCSD(T)/cc-pVTZ
 ------------------

 ------------
 H2O_H2O_4129
 ------------
 Symbolic Z-matrix:
 Charge =  0 Multiplicity = 1

                         Standard orientation:
 ---------------------------------------------------------------------
 Center     Atomic      Atomic             Coordinates (Angstroms)
 Number     Number       Type             X           Y           Z
 ---------------------------------------------------------------------
      1          8           0        0.014783   -2.995317    0.000000
      2          1           0       -0.785031   -3.566109    0.000000
      3          1           0        0.814111   -3.566788    0.000000
      4          8           0        0.014783    2.999197    0.000000
      5          1           0        0.639612    3.757546    0.000000
      6          1           0       -0.905218    3.344314    0.000000
 ---------------------------------------------------------------------

 SCF Done:  E(RHF) =  -152.106734462     A.U. after   10 cycles
 E2 =    -0.5259421357D+00 EUMP2 =    -0.15263267659779D+03
 CCSD(T)
 CCSD(T)= -0.15265991082D+03

 The electronic state is 1-A'.
 Alpha  occ. eigenvalues --  -20.55159 -20.55135  -1.32455  -1.32430  -0.69862
 Alpha  occ. eigenvalues --   -0.69837  -0.55871  -0.55846  -0.49561  -0.49537
 Alpha virt. eigenvalues --    0.14442   0.14507   0.20496   0.20533   0.54705
 Alpha virt. eigenvalues --    0.54737   0.57565   0.57593   0.68306   0.68463
 Alpha virt. eigenvalues --    0.79317   0.79342   0.80762   0.80790   0.82693

 Mulliken charges:
               1
     1  O   -0.504896
     2  H    0.252059
     3  H    0.252837
     4  O   -0.504866
     5  H    0.251891
     6  H    0.252975
 Sum of Mulliken charges =  -0.00000

 Dipole moment (field-independent basis, Debye):
    X=             -0.5074    Y=             -0.0678    Z=              0.0000  Tot=              0.5119
 Quadrupole moment (field-independent basis, Debye-Ang):
   XX=             -7.9422   YY=             11.6671   ZZ=            -14.7106
   XY=             -1.0778   XZ=              0.0000   YZ=              0.0000

 Normal termination of Gaussian 16 at Sat Aug 27 05:32:32 2022.
