 Gaussian 16, Revision A.03,
 Gaussian 16:  ES64L-G16RevA.03 25-Dec-2016

 ------------------
 #p CCSD(T)/cc-pVTZ
 ------------------

 ------------
 H2O_H2O_2005
 ------------
 Symbolic Z-matrix:
 Charge =  0 Multiplicity = 1

                         Standard orientation:
 ---------------------------------------------------------------------
 Center     Atomic      Atomic             Coordinates (Angstroms)
 Number     Number       Type             X           Y           Z
 ---------------------------------------------------------------------
      1          8           0        0.018361   -1.863996    0.000000
      2          1           0       -0.781693   -2.434451    0.000000
      3          1           0        0.817448   -2.435805    0.000000
      4          8           0        0.018361    1.870027    0.000000
      5          1           0        0.592590    2.667376    0.000000
      6          1           0       -0.922120    2.154631    0.000000
 ---------------------------------------------------------------------

 SCF Done:  E(RHF) =  -152.104812160     A.U. after   10 cycles
 E2 =    -0.5264552952D+00 EUMP2 =    -0.15263126745526D+03
 CCSD(T)
 CCSD(T)= -0.15265851295D+03

 The electronic state is 1-A'.
 Alpha  occ. eigenvalues --  -20.54517 -20.54412  -1.31799  -1.31687  -0.69219
 Alpha  occ. eigenvalues --   -0.69103  -0.55352  -0.54722  -0.48909  -0.48769
 Alpha virt. eigenvalues --    0.14136   0.15886   0.20575   0.21317   0.53707
 Alpha virt. eigenvalues --    0.56479   0.57950   0.58283   0.61748   0.75572
 Alpha virt. eigenvalues --    0.79287   0.79971   0.80709   0.80911   0.82850

 Mulliken charges:
               1
     1  O   -0.490639
     2  H    0.243674
     3  H    0.247120
     4  O   -0.490597
     5  H    0.243140
     6  H    0.247302
 Sum of Mulliken charges =  -0.00000

 Dipole moment (field-independent basis, Debye):
    X=             -0.6170    Y=             -0.1107    Z=              0.0000  Tot=              0.6269
 Quadrupole moment (field-independent basis, Debye-Ang):
   XX=             -8.0541   YY=              2.5658   ZZ=            -14.7095
   XY=             -0.6526   XZ=              0.0000   YZ=              0.0000

 Normal termination of Gaussian 16 at Sat Aug 27 08:03:40 2022.
