 Gaussian 16, Revision A.03,
 Gaussian 16:  ES64L-G16RevA.03 25-Dec-2016

 ------------------
 #p CCSD(T)/cc-pVTZ
 ------------------

 -----------
 H2O_H2O_520
 -----------
 Symbolic Z-matrix:
 Charge =  0 Multiplicity = 1

                         Standard orientation:
 ---------------------------------------------------------------------
 Center     Atomic      Atomic             Coordinates (Angstroms)
 Number     Number       Type             X           Y           Z
 ---------------------------------------------------------------------
      1          8           0        0.055355   -1.023799    0.000000
      2          1           0       -0.746753   -1.591362    0.000000
      3          1           0        0.852374   -1.598487    0.000000
      4          8           0        0.055355    1.107969    0.000000
      5          1           0       -0.285269    2.029641    0.000000
      6          1           0       -0.706035    0.486848    0.000000
 ---------------------------------------------------------------------

 SCF Done:  E(RHF) =  -152.073326827     A.U. after   11 cycles
 E2 =    -0.5343132877D+00 EUMP2 =    -0.15260764011499D+03
 CCSD(T)
 CCSD(T)= -0.15263433706D+03

 The electronic state is 1-A'.
 Alpha  occ. eigenvalues --  -20.55639 -20.51106  -1.34772  -1.28520  -0.72213
 Alpha  occ. eigenvalues --   -0.69166  -0.54334  -0.51477  -0.51158  -0.45472
 Alpha virt. eigenvalues --    0.13330   0.18593   0.19490   0.25566   0.50882
 Alpha virt. eigenvalues --    0.56041   0.61157   0.63700   0.72055   0.74592
 Alpha virt. eigenvalues --    0.78727   0.82091   0.83859   0.84846   0.87604

 Mulliken charges:
               1
     1  O   -0.419976
     2  H    0.210503
     3  H    0.238307
     4  O   -0.475478
     5  H    0.191905
     6  H    0.254738
 Sum of Mulliken charges =  -0.00000

 Dipole moment (field-independent basis, Debye):
    X=             -1.6407    Y=             -1.8327    Z=              0.0000  Tot=              2.4598
 Quadrupole moment (field-independent basis, Debye-Ang):
   XX=             -9.7626   YY=             -5.9237   ZZ=            -14.6899
   XY=             -1.8567   XZ=              0.0000   YZ=              0.0000

 Normal termination of Gaussian 16 at Fri Aug 26 17:17:01 2022.
