 Gaussian 16, Revision A.03,
 Gaussian 16:  ES64L-G16RevA.03 25-Dec-2016

 ------------------
 #p CCSD(T)/cc-pVTZ
 ------------------

 ------------
 H2O_H2O_2123
 ------------
 Symbolic Z-matrix:
 Charge =  0 Multiplicity = 1

                         Standard orientation:
 ---------------------------------------------------------------------
 Center     Atomic      Atomic             Coordinates (Angstroms)
 Number     Number       Type             X           Y           Z
 ---------------------------------------------------------------------
      1          8           0        0.057127   -1.862635    0.000000
      2          1           0       -0.743903   -2.431718    0.000000
      3          1           0        0.855233   -2.435813    0.000000
      4          8           0        0.057127    1.969099    0.000000
      5          1           0       -0.458347    2.805634    0.000000
      6          1           0       -0.567022    1.210188    0.000000
 ---------------------------------------------------------------------

 SCF Done:  E(RHF) =  -152.108946611     A.U. after   10 cycles
 E2 =    -0.5262613993D+00 EUMP2 =    -0.15263520801019D+03
 CCSD(T)
 CCSD(T)= -0.15266235268D+03

 The electronic state is 1-A'.
 Alpha  occ. eigenvalues --  -20.56162 -20.54167  -1.33430  -1.31469  -0.70835
 Alpha  occ. eigenvalues --   -0.68836  -0.56913  -0.54942  -0.50553  -0.48600
 Alpha virt. eigenvalues --    0.12946   0.16262   0.19765   0.23430   0.53616
 Alpha virt. eigenvalues --    0.55275   0.56731   0.58514   0.66516   0.73763
 Alpha virt. eigenvalues --    0.78081   0.79249   0.79962   0.80378   0.83593

 Mulliken charges:
               1
     1  O   -0.503781
     2  H    0.249923
     3  H    0.258589
     4  O   -0.514113
     5  H    0.245616
     6  H    0.263766
 Sum of Mulliken charges =  -0.00000

 Dipole moment (field-independent basis, Debye):
    X=             -1.9250    Y=             -1.9752    Z=              0.0000  Tot=              2.7581
 Quadrupole moment (field-independent basis, Debye-Ang):
   XX=             -9.8516   YY=             -1.9570   ZZ=            -14.7186
   XY=             -3.9212   XZ=              0.0000   YZ=              0.0000

 Normal termination of Gaussian 16 at Sat Aug 27 08:43:10 2022.
