 Gaussian 16, Revision A.03,
 Gaussian 16:  ES64L-G16RevA.03 25-Dec-2016

 ------------------
 #p CCSD(T)/cc-pVTZ
 ------------------

 ------------
 H2O_H2O_3005
 ------------
 Symbolic Z-matrix:
 Charge =  0 Multiplicity = 1

                         Standard orientation:
 ---------------------------------------------------------------------
 Center     Atomic      Atomic             Coordinates (Angstroms)
 Number     Number       Type             X           Y           Z
 ---------------------------------------------------------------------
      1          8           0        0.018360   -2.395829    0.000000
      2          1           0       -0.781587   -2.966434    0.000000
      3          1           0        0.817555   -2.967487    0.000000
      4          8           0        0.018360    2.401866    0.000000
      5          1           0        0.592440    3.199324    0.000000
      6          1           0       -0.922174    2.686294    0.000000
 ---------------------------------------------------------------------

 SCF Done:  E(RHF) =  -152.106095063     A.U. after   10 cycles
 E2 =    -0.5260435199D+00 EUMP2 =    -0.15263213858308D+03
 CCSD(T)
 CCSD(T)= -0.15265938325D+03

 The electronic state is 1-A'.
 Alpha  occ. eigenvalues --  -20.54918 -20.54857  -1.32210  -1.32148  -0.69621
 Alpha  occ. eigenvalues --   -0.69557  -0.55601  -0.55523  -0.49312  -0.49251
 Alpha virt. eigenvalues --    0.14370   0.14976   0.20577   0.20799   0.54795
 Alpha virt. eigenvalues --    0.55156   0.57732   0.57845   0.66922   0.70522
 Alpha virt. eigenvalues --    0.79544   0.79642   0.80978   0.81132   0.82597

 Mulliken charges:
               1
     1  O   -0.501133
     2  H    0.249670
     3  H    0.251469
     4  O   -0.500998
     5  H    0.249328
     6  H    0.251664
 Sum of Mulliken charges =  -0.00000

 Dipole moment (field-independent basis, Debye):
    X=             -0.6265    Y=             -0.1068    Z=              0.0000  Tot=              0.6355
 Quadrupole moment (field-independent basis, Debye-Ang):
   XX=             -8.0277   YY=              6.8132   ZZ=            -14.7099
   XY=             -0.9792   XZ=              0.0000   YZ=              0.0000

 Normal termination of Gaussian 16 at Fri Aug 26 18:22:49 2022.
