 Gaussian 16, Revision A.03,
 Gaussian 16:  ES64L-G16RevA.03 25-Dec-2016

 ------------------
 #p CCSD(T)/cc-pVTZ
 ------------------

 ------------
 H2O_H2O_4222
 ------------
 Symbolic Z-matrix:
 Charge =  0 Multiplicity = 1

                         Standard orientation:
 ---------------------------------------------------------------------
 Center     Atomic      Atomic             Coordinates (Angstroms)
 Number     Number       Type             X           Y           Z
 ---------------------------------------------------------------------
      1          8           0        0.056704   -2.983474    0.000000
      2          1           0       -0.743784   -3.553320    0.000000
      3          1           0        0.855356   -3.555890    0.000000
      4          8           0        0.056704    3.082608    0.000000
      5          1           0       -0.403782    3.950628    0.000000
      6          1           0       -0.615060    2.365504    0.000000
 ---------------------------------------------------------------------

 SCF Done:  E(RHF) =  -152.107619694     A.U. after   10 cycles
 E2 =    -0.5258661448D+00 EUMP2 =    -0.15263348583919D+03
 CCSD(T)
 CCSD(T)= -0.15266070103D+03

 The electronic state is 1-A'.
 Alpha  occ. eigenvalues --  -20.55719 -20.55095  -1.33019  -1.32394  -0.70425
 Alpha  occ. eigenvalues --   -0.69792  -0.56476  -0.55846  -0.50132  -0.49509
 Alpha virt. eigenvalues --    0.13934   0.14623   0.20056   0.20737   0.54131
 Alpha virt. eigenvalues --    0.54777   0.57070   0.57690   0.67619   0.68417
 Alpha virt. eigenvalues --    0.78749   0.79360   0.80173   0.80784   0.82188

 Mulliken charges:
               1
     1  O   -0.510154
     2  H    0.253735
     3  H    0.256426
     4  O   -0.509743
     5  H    0.252060
     6  H    0.257676
 Sum of Mulliken charges =  -0.00000

 Dipole moment (field-independent basis, Debye):
    X=             -1.9480    Y=             -1.7356    Z=              0.0000  Tot=              2.6090
 Quadrupole moment (field-independent basis, Debye-Ang):
   XX=             -9.8279   YY=              3.5867   ZZ=            -14.7126
   XY=             -5.9053   XZ=              0.0000   YZ=              0.0000

 Normal termination of Gaussian 16 at Sat Aug 27 06:06:30 2022.
