 Gaussian 16, Revision A.03,
 Gaussian 16:  ES64L-G16RevA.03 25-Dec-2016

 ------------------
 #p CCSD(T)/cc-pVTZ
 ------------------

 ------------
 H2O_H2O_1086
 ------------
 Symbolic Z-matrix:
 Charge =  0 Multiplicity = 1

                         Standard orientation:
 ---------------------------------------------------------------------
 Center     Atomic      Atomic             Coordinates (Angstroms)
 Number     Number       Type             X           Y           Z
 ---------------------------------------------------------------------
      1          8           0        0.037691   -1.360022    0.000000
      2          1           0       -0.763225   -1.929267    0.000000
      3          1           0        0.835912   -1.933039    0.000000
      4          8           0        0.037691    1.388191    0.000000
      5          1           0        0.264523    2.344253    0.000000
      6          1           0       -0.940261    1.292703    0.000000
 ---------------------------------------------------------------------

 SCF Done:  E(RHF) =  -152.100743013     A.U. after   11 cycles
 E2 =    -0.5280862691D+00 EUMP2 =    -0.15262882928218D+03
 CCSD(T)
 CCSD(T)= -0.15265608085D+03

 The electronic state is 1-A'.
 Alpha  occ. eigenvalues --  -20.54264 -20.53447  -1.31699  -1.30684  -0.69109
 Alpha  occ. eigenvalues --   -0.68164  -0.56098  -0.52577  -0.48880  -0.47662
 Alpha virt. eigenvalues --    0.14102   0.17046   0.20328   0.22676   0.53033
 Alpha virt. eigenvalues --    0.58109   0.58386   0.59608   0.69069   0.76600
 Alpha virt. eigenvalues --    0.76614   0.77171   0.81889   0.83163   0.85737

 Mulliken charges:
               1
     1  O   -0.474335
     2  H    0.230918
     3  H    0.244587
     4  O   -0.466232
     5  H    0.222666
     6  H    0.242396
 Sum of Mulliken charges =  -0.00000

 Dipole moment (field-independent basis, Debye):
    X=             -1.2069    Y=             -0.5421    Z=              0.0000  Tot=              1.3231
 Quadrupole moment (field-independent basis, Debye-Ang):
   XX=             -8.7885   YY=             -2.0361   ZZ=            -14.7180
   XY=             -0.9921   XZ=              0.0000   YZ=              0.0000

 Normal termination of Gaussian 16 at Sat Aug 27 01:58:36 2022.
