 Gaussian 16, Revision A.03,
 Gaussian 16:  ES64L-G16RevA.03 25-Dec-2016

 ------------------
 #p CCSD(T)/cc-pVTZ
 ------------------

 ------------
 H2O_H2O_4537
 ------------
 Symbolic Z-matrix:
 Charge =  0 Multiplicity = 1

                         Standard orientation:
 ---------------------------------------------------------------------
 Center     Atomic      Atomic             Coordinates (Angstroms)
 Number     Number       Type             X           Y           Z
 ---------------------------------------------------------------------
      1          8           0        0.040403   -3.192036    0.000000
      2          1           0       -0.759786   -3.762301    0.000000
      3          1           0        0.839355   -3.764034    0.000000
      4          8           0        0.040403    3.225405    0.000000
      5          1           0        0.202984    4.194463    0.000000
      6          1           0       -0.929005    3.064924    0.000000
 ---------------------------------------------------------------------

 SCF Done:  E(RHF) =  -152.107092303     A.U. after   10 cycles
 E2 =    -0.5259061507D+00 EUMP2 =    -0.15263299845414D+03
 CCSD(T)
 CCSD(T)= -0.15266022534D+03

 The electronic state is 1-A'.
 Alpha  occ. eigenvalues --  -20.55375 -20.55189  -1.32673  -1.32485  -0.70079
 Alpha  occ. eigenvalues --   -0.69888  -0.56105  -0.55918  -0.49782  -0.49595
 Alpha virt. eigenvalues --    0.14272   0.14465   0.20333   0.20530   0.54486
 Alpha virt. eigenvalues --    0.54687   0.57377   0.57564   0.68103   0.68304
 Alpha virt. eigenvalues --    0.79097   0.79282   0.80535   0.80738   0.82461

 Mulliken charges:
               1
     1  O   -0.507015
     2  H    0.252635
     3  H    0.254380
     4  O   -0.506874
     5  H    0.252057
     6  H    0.254817
 Sum of Mulliken charges =  -0.00000

 Dipole moment (field-independent basis, Debye):
    X=             -1.3887    Y=             -0.5823    Z=              0.0000  Tot=              1.5059
 Quadrupole moment (field-independent basis, Debye-Ang):
   XX=             -8.8301   YY=             10.8691   ZZ=            -14.7113
   XY=             -3.6128   XZ=              0.0000   YZ=              0.0000

 Normal termination of Gaussian 16 at Sat Aug 27 07:53:12 2022.
