 Gaussian 16, Revision A.03,
 Gaussian 16:  ES64L-G16RevA.03 25-Dec-2016

 ------------------
 #p CCSD(T)/cc-pVTZ
 ------------------

 ------------
 H2O_H2O_2355
 ------------
 Symbolic Z-matrix:
 Charge =  0 Multiplicity = 1

                         Standard orientation:
 ---------------------------------------------------------------------
 Center     Atomic      Atomic             Coordinates (Angstroms)
 Number     Number       Type             X           Y           Z
 ---------------------------------------------------------------------
      1          8           0        0.018361   -2.050137    0.000000
      2          1           0       -0.781650   -2.620654    0.000000
      3          1           0        0.817492   -2.621885    0.000000
      4          8           0        0.018361    2.056171    0.000000
      5          1           0        0.592529    2.853565    0.000000
      6          1           0       -0.922143    2.340703    0.000000
 ---------------------------------------------------------------------

 SCF Done:  E(RHF) =  -152.105412116     A.U. after   10 cycles
 E2 =    -0.5262331001D+00 EUMP2 =    -0.15263164521581D+03
 CCSD(T)
 CCSD(T)= -0.15265889135D+03

 The electronic state is 1-A'.
 Alpha  occ. eigenvalues --  -20.54686 -20.54601  -1.31971  -1.31884  -0.69387
 Alpha  occ. eigenvalues --   -0.69296  -0.55411  -0.55119  -0.49073  -0.48980
 Alpha virt. eigenvalues --    0.14174   0.15527   0.20589   0.21091   0.54361
 Alpha virt. eigenvalues --    0.55852   0.57857   0.58097   0.63305   0.74109
 Alpha virt. eigenvalues --    0.79544   0.80134   0.80845   0.81262   0.82081

 Mulliken charges:
               1
     1  O   -0.496167
     2  H    0.246754
     3  H    0.249475
     4  O   -0.495987
     5  H    0.246289
     6  H    0.249635
 Sum of Mulliken charges =  -0.00000

 Dipole moment (field-independent basis, Debye):
    X=             -0.6216    Y=             -0.1088    Z=              0.0000  Tot=              0.6310
 Quadrupole moment (field-independent basis, Debye-Ang):
   XX=             -8.0414   YY=              4.0675   ZZ=            -14.7097
   XY=             -0.7664   XZ=              0.0000   YZ=              0.0000

 Normal termination of Gaussian 16 at Sat Aug 27 10:06:06 2022.
