 Gaussian 16, Revision A.03,
 Gaussian 16:  ES64L-G16RevA.03 25-Dec-2016

 ------------------
 #p CCSD(T)/cc-pVTZ
 ------------------

 -----------
 H2O_H2O_915
 -----------
 Symbolic Z-matrix:
 Charge =  0 Multiplicity = 1

                         Standard orientation:
 ---------------------------------------------------------------------
 Center     Atomic      Atomic             Coordinates (Angstroms)
 Number     Number       Type             X           Y           Z
 ---------------------------------------------------------------------
      1          8           0        0.047569   -1.254842    0.000000
      2          1           0       -0.753822   -1.823418    0.000000
      3          1           0        0.845312   -1.828525    0.000000
      4          8           0        0.047569    1.305304    0.000000
      5          1           0        0.020044    2.287520    0.000000
      6          1           0       -0.872633    0.960726    0.000000
 ---------------------------------------------------------------------

 SCF Done:  E(RHF) =  -152.099318789     A.U. after   11 cycles
 E2 =    -0.5289546183D+00 EUMP2 =    -0.15262827340675D+03
 CCSD(T)
 CCSD(T)= -0.15265545897D+03

 The electronic state is 1-A'.
 Alpha  occ. eigenvalues --  -20.54749 -20.53018  -1.32343  -1.30247  -0.69739
 Alpha  occ. eigenvalues --   -0.67963  -0.56291  -0.52402  -0.49495  -0.47236
 Alpha virt. eigenvalues --    0.13836   0.17415   0.20077   0.23530   0.53278
 Alpha virt. eigenvalues --    0.57620   0.58382   0.59645   0.70679   0.75451
 Alpha virt. eigenvalues --    0.77343   0.79012   0.83099   0.83838   0.85237

 Mulliken charges:
               1
     1  O   -0.472115
     2  H    0.229849
     3  H    0.247843
     4  O   -0.468917
     5  H    0.215815
     6  H    0.247525
 Sum of Mulliken charges =  -0.00000

 Dipole moment (field-independent basis, Debye):
    X=             -1.4957    Y=             -0.9926    Z=              0.0000  Tot=              1.7951
 Quadrupole moment (field-independent basis, Debye-Ang):
   XX=             -9.3042   YY=             -3.2792   ZZ=            -14.7237
   XY=             -1.4390   XZ=              0.0000   YZ=              0.0000

 Normal termination of Gaussian 16 at Fri Aug 26 21:09:44 2022.
