 Gaussian 16, Revision A.03,
 Gaussian 16:  ES64L-G16RevA.03 25-Dec-2016

 ------------------
 #p CCSD(T)/cc-pVTZ
 ------------------

 ------------
 H2O_H2O_4750
 ------------
 Symbolic Z-matrix:
 Charge =  0 Multiplicity = 1

                         Standard orientation:
 ---------------------------------------------------------------------
 Center     Atomic      Atomic             Coordinates (Angstroms)
 Number     Number       Type             X           Y           Z
 ---------------------------------------------------------------------
      1          8           0        0.000000   -0.000000    3.329822
      2          1           0        0.000000    0.799571    3.900954
      3          1           0       -0.000000   -0.799571    3.900954
      4          8           0        0.000000   -0.000000   -3.329822
      5          1           0       -0.000000   -0.799571   -3.900954
      6          1           0        0.000000    0.799571   -3.900954
 ---------------------------------------------------------------------

 SCF Done:  E(RHF) =  -152.106911660     A.U. after   10 cycles
 E2 =    -0.5259186186D+00 EUMP2 =    -0.15263283027811D+03
 CCSD(T)
 CCSD(T)= -0.15266006121D+03

 The electronic state is 1-AG.
 Alpha  occ. eigenvalues --  -20.55234 -20.55234  -1.32530  -1.32530  -0.69937
 Alpha  occ. eigenvalues --   -0.69937  -0.55954  -0.55954  -0.49638  -0.49638
 Alpha virt. eigenvalues --    0.14397   0.14408   0.20449   0.20454   0.54631
 Alpha virt. eigenvalues --    0.54633   0.57504   0.57507   0.68265   0.68283
 Alpha virt. eigenvalues --    0.79241   0.79242   0.80683   0.80684   0.82609

 Mulliken charges:
               1
     1  O   -0.505934
     2  H    0.252967
     3  H    0.252967
     4  O   -0.505934
     5  H    0.252967
     6  H    0.252967
 Sum of Mulliken charges =  -0.00000

 Dipole moment (field-independent basis, Debye):
    X=             -0.0000    Y=              0.0000    Z=              0.0000  Tot=              0.0000
 Quadrupole moment (field-independent basis, Debye-Ang):
   XX=            -14.7108   YY=             -7.8013   ZZ=             14.6033
   XY=              0.0000   XZ=              0.0000   YZ=             -0.0000

 4\MP4DQ=-152.6419569\MP4SDQ=-152.6450161\CCSD=-152.6444281\CCSD(T)=-15
 Normal termination of Gaussian 16 at Sat Aug 27 09:08:06 2022.
