 Gaussian 16, Revision A.03,
 Gaussian 16:  ES64L-G16RevA.03 25-Dec-2016

 ------------------
 #p CCSD(T)/cc-pVTZ
 ------------------

 ------------
 H2O_H2O_2334
 ------------
 Symbolic Z-matrix:
 Charge =  0 Multiplicity = 1

                         Standard orientation:
 ---------------------------------------------------------------------
 Center     Atomic      Atomic             Coordinates (Angstroms)
 Number     Number       Type             X           Y           Z
 ---------------------------------------------------------------------
      1          8           0        0.031743   -2.029709    0.000000
      2          1           0       -0.768592   -2.599770    0.000000
      3          1           0        0.830549   -2.601912    0.000000
      4          8           0        0.031743    2.048875    0.000000
      5          1           0        0.380489    2.967505    0.000000
      6          1           0       -0.950338    2.080851    0.000000
 ---------------------------------------------------------------------

 SCF Done:  E(RHF) =  -152.105748783     A.U. after   10 cycles
 E2 =    -0.5262262199D+00 EUMP2 =    -0.15263197500255D+03
 CCSD(T)
 CCSD(T)= -0.15265921144D+03

 The electronic state is 1-A'.
 Alpha  occ. eigenvalues --  -20.54848 -20.54569  -1.32133  -1.31850  -0.69548
 Alpha  occ. eigenvalues --   -0.69254  -0.55535  -0.55155  -0.49234  -0.48952
 Alpha virt. eigenvalues --    0.13999   0.15602   0.20473   0.21220   0.54015
 Alpha virt. eigenvalues --    0.55569   0.57781   0.58104   0.63820   0.74305
 Alpha virt. eigenvalues --    0.79429   0.80116   0.80552   0.81152   0.82564

 Mulliken charges:
               1
     1  O   -0.497699
     2  H    0.246573
     3  H    0.251365
     4  O   -0.497430
     5  H    0.245457
     6  H    0.251735
 Sum of Mulliken charges =  -0.00000

 Dipole moment (field-independent basis, Debye):
    X=             -1.0740    Y=             -0.3464    Z=              0.0000  Tot=              1.1285
 Quadrupole moment (field-independent basis, Debye-Ang):
   XX=             -8.4569   YY=              3.4326   ZZ=            -14.7104
   XY=             -1.4406   XZ=              0.0000   YZ=              0.0000

 Normal termination of Gaussian 16 at Sat Aug 27 09:56:09 2022.
