 Gaussian 16, Revision A.03,
 Gaussian 16:  ES64L-G16RevA.03 25-Dec-2016

 ------------------
 #p CCSD(T)/cc-pVTZ
 ------------------

 ------------
 H2O_H2O_4131
 ------------
 Symbolic Z-matrix:
 Charge =  0 Multiplicity = 1

                         Standard orientation:
 ---------------------------------------------------------------------
 Center     Atomic      Atomic             Coordinates (Angstroms)
 Number     Number       Type             X           Y           Z
 ---------------------------------------------------------------------
      1          8           0        0.021859   -2.992716    0.000000
      2          1           0       -0.778070   -3.563346    0.000000
      3          1           0        0.821071   -3.564350    0.000000
      4          8           0        0.021859    3.001384    0.000000
      5          1           0        0.542527    3.834697    0.000000
      6          1           0       -0.935272    3.223660    0.000000
 ---------------------------------------------------------------------

 SCF Done:  E(RHF) =  -152.106777504     A.U. after   10 cycles
 E2 =    -0.5259386379D+00 EUMP2 =    -0.15263271614199D+03
 CCSD(T)
 CCSD(T)= -0.15265994943D+03

 The electronic state is 1-A'.
 Alpha  occ. eigenvalues --  -20.55188 -20.55133  -1.32484  -1.32428  -0.69891
 Alpha  occ. eigenvalues --   -0.69834  -0.55902  -0.55846  -0.49591  -0.49535
 Alpha virt. eigenvalues --    0.14420   0.14508   0.20475   0.20541   0.54676
 Alpha virt. eigenvalues --    0.54741   0.57540   0.57598   0.68279   0.68452
 Alpha virt. eigenvalues --    0.79288   0.79343   0.80732   0.80794   0.82663

 Mulliken charges:
               1
     1  O   -0.505152
     2  H    0.252000
     3  H    0.253152
     4  O   -0.505088
     5  H    0.251728
     6  H    0.253360
 Sum of Mulliken charges =   0.00000

 Dipole moment (field-independent basis, Debye):
    X=             -0.7503    Y=             -0.1515    Z=              0.0000  Tot=              0.7655
 Quadrupole moment (field-independent basis, Debye-Ang):
   XX=             -8.1051   YY=             11.3200   ZZ=            -14.7106
   XY=             -1.6266   XZ=              0.0000   YZ=              0.0000

 Normal termination of Gaussian 16 at Sat Aug 27 05:33:13 2022.
