 Gaussian 16, Revision A.03,
 Gaussian 16:  ES64L-G16RevA.03 25-Dec-2016

 ------------------
 #p CCSD(T)/cc-pVTZ
 ------------------

 ------------
 H2O_H2O_4441
 ------------
 Symbolic Z-matrix:
 Charge =  0 Multiplicity = 1

                         Standard orientation:
 ---------------------------------------------------------------------
 Center     Atomic      Atomic             Coordinates (Angstroms)
 Number     Number       Type             X           Y           Z
 ---------------------------------------------------------------------
      1          8           0        0.049500   -3.126030    0.000000
      2          1           0       -0.750841   -3.696082    0.000000
      3          1           0        0.848299   -3.698240    0.000000
      4          8           0        0.049500    3.183009    0.000000
      5          1           0       -0.044009    4.161151    0.000000
      6          1           0       -0.845448    2.777334    0.000000
 ---------------------------------------------------------------------

 SCF Done:  E(RHF) =  -152.107261245     A.U. after   10 cycles
 E2 =    -0.5258931138D+00 EUMP2 =    -0.15263315435865D+03
 CCSD(T)
 CCSD(T)= -0.15266037752D+03

 The electronic state is 1-A'.
 Alpha  occ. eigenvalues --  -20.55493 -20.55161  -1.32791  -1.32458  -0.70197
 Alpha  occ. eigenvalues --   -0.69859  -0.56231  -0.55898  -0.49901  -0.49570
 Alpha virt. eigenvalues --    0.14164   0.14509   0.20237   0.20591   0.54365
 Alpha virt. eigenvalues --    0.54717   0.57272   0.57604   0.67955   0.68323
 Alpha virt. eigenvalues --    0.78978   0.79305   0.80412   0.80767   0.82341

 Mulliken charges:
               1
     1  O   -0.508022
     2  H    0.252902
     3  H    0.255120
     4  O   -0.507802
     5  H    0.251983
     6  H    0.255819
 Sum of Mulliken charges =  -0.00000

 Dipole moment (field-independent basis, Debye):
    X=             -1.7012    Y=             -0.9954    Z=              0.0000  Tot=              1.9710
 Quadrupole moment (field-independent basis, Debye-Ang):
   XX=             -9.3454   YY=              8.3729   ZZ=            -14.7117
   XY=             -4.7033   XZ=              0.0000   YZ=              0.0000

 Normal termination of Gaussian 16 at Sat Aug 27 07:20:14 2022.
