 Gaussian 16, Revision A.03,
 Gaussian 16:  ES64L-G16RevA.03 25-Dec-2016

 ------------------
 #p CCSD(T)/cc-pVTZ
 ------------------

 ------------
 H2O_H2O_3176
 ------------
 Symbolic Z-matrix:
 Charge =  0 Multiplicity = 1

                         Standard orientation:
 ---------------------------------------------------------------------
 Center     Atomic      Atomic             Coordinates (Angstroms)
 Number     Number       Type             X           Y           Z
 ---------------------------------------------------------------------
      1          8           0        0.003735   -2.492047    0.000000
      2          1           0       -0.795909   -3.063076    0.000000
      3          1           0        0.803233   -3.063282    0.000000
      4          8           0        0.003735    2.492291    0.000000
      5          1           0        0.764322    3.114396    0.000000
      6          1           0       -0.831411    3.010013    0.000000
 ---------------------------------------------------------------------

 SCF Done:  E(RHF) =  -152.106145236     A.U. after   10 cycles
 E2 =    -0.5260245379D+00 EUMP2 =    -0.15263216977411D+03
 CCSD(T)
 CCSD(T)= -0.15265941456D+03

 The electronic state is 1-A'.
 Alpha  occ. eigenvalues --  -20.54918 -20.54916  -1.32211  -1.32209  -0.69621
 Alpha  occ. eigenvalues --   -0.69618  -0.55611  -0.55581  -0.49314  -0.49310
 Alpha virt. eigenvalues --    0.14449   0.14856   0.20600   0.20729   0.54849
 Alpha virt. eigenvalues --    0.55059   0.57733   0.57795   0.67478   0.69890
 Alpha virt. eigenvalues --    0.79542   0.79584   0.80974   0.81066   0.82699

 Mulliken charges:
               1
     1  O   -0.501435
     2  H    0.250553
     3  H    0.250882
     4  O   -0.501430
     5  H    0.250503
     6  H    0.250927
 Sum of Mulliken charges =  -0.00000

 Dipole moment (field-independent basis, Debye):
    X=             -0.1276    Y=             -0.0043    Z=              0.0000  Tot=              0.1277
 Quadrupole moment (field-independent basis, Debye-Ang):
   XX=             -7.8235   YY=              7.8588   ZZ=            -14.7098
   XY=             -0.2042   XZ=              0.0000   YZ=              0.0000

 Normal termination of Gaussian 16 at Fri Aug 26 20:07:49 2022.
