 Gaussian 16, Revision A.03,
 Gaussian 16:  ES64L-G16RevA.03 25-Dec-2016

 ------------------
 #p CCSD(T)/cc-pVTZ
 ------------------

 ------------
 H2O_H2O_3539
 ------------
 Symbolic Z-matrix:
 Charge =  0 Multiplicity = 1

                         Standard orientation:
 ---------------------------------------------------------------------
 Center     Atomic      Atomic             Coordinates (Angstroms)
 Number     Number       Type             X           Y           Z
 ---------------------------------------------------------------------
      1          8           0        0.045343   -2.654123    0.000000
      2          1           0       -0.755059   -3.224089    0.000000
      3          1           0        0.844081   -3.226419    0.000000
      4          8           0        0.045343    2.698680    0.000000
      5          1           0        0.080414    3.680656    0.000000
      6          1           0       -0.894931    2.413391    0.000000
 ---------------------------------------------------------------------

 SCF Done:  E(RHF) =  -152.106965800     A.U. after   10 cycles
 E2 =    -0.5259422822D+00 EUMP2 =    -0.15263290808192D+03
 CCSD(T)
 CCSD(T)= -0.15266013594D+03

 The electronic state is 1-A'.
 Alpha  occ. eigenvalues --  -20.55345 -20.54979  -1.32641  -1.32273  -0.70049
 Alpha  occ. eigenvalues --   -0.69672  -0.56067  -0.55700  -0.49749  -0.49383
 Alpha virt. eigenvalues --    0.14168   0.14763   0.20318   0.20770   0.54492
 Alpha virt. eigenvalues --    0.54911   0.57395   0.57758   0.67759   0.68977
 Alpha virt. eigenvalues --    0.79130   0.79489   0.80556   0.80929   0.82599

 Mulliken charges:
               1
     1  O   -0.506294
     2  H    0.251510
     3  H    0.254799
     4  O   -0.505925
     5  H    0.250331
     6  H    0.255580
 Sum of Mulliken charges =  -0.00000

 Dipole moment (field-independent basis, Debye):
    X=             -1.5531    Y=             -0.7840    Z=              0.0000  Tot=              1.7398
 Quadrupole moment (field-independent basis, Debye-Ang):
   XX=             -9.0981   YY=              6.4249   ZZ=            -14.7113
   XY=             -3.3930   XZ=              0.0000   YZ=              0.0000

 Normal termination of Gaussian 16 at Sat Aug 27 01:19:46 2022.
