 Gaussian 16, Revision A.03,
 Gaussian 16:  ES64L-G16RevA.03 25-Dec-2016

 ------------------
 #p CCSD(T)/cc-pVTZ
 ------------------

 ------------
 H2O_H2O_3301
 ------------
 Symbolic Z-matrix:
 Charge =  0 Multiplicity = 1

                         Standard orientation:
 ---------------------------------------------------------------------
 Center     Atomic      Atomic             Coordinates (Angstroms)
 Number     Number       Type             X           Y           Z
 ---------------------------------------------------------------------
      1          8           0        0.003735   -2.558527    0.000000
      2          1           0       -0.795907   -3.129558    0.000000
      3          1           0        0.803235   -3.129759    0.000000
      4          8           0        0.003735    2.558770    0.000000
      5          1           0        0.764320    3.180878    0.000000
      6          1           0       -0.831413    3.076489    0.000000
 ---------------------------------------------------------------------

 SCF Done:  E(RHF) =  -152.106241589     A.U. after   10 cycles
 E2 =    -0.5260091120D+00 EUMP2 =    -0.15263225070140D+03
 CCSD(T)
 CCSD(T)= -0.15265949394D+03

 The electronic state is 1-A'.
 Alpha  occ. eigenvalues --  -20.54954 -20.54952  -1.32247  -1.32245  -0.69657
 Alpha  occ. eigenvalues --   -0.69654  -0.55647  -0.55627  -0.49350  -0.49348
 Alpha virt. eigenvalues --    0.14463   0.14788   0.20589   0.20695   0.54842
 Alpha virt. eigenvalues --    0.54994   0.57711   0.57761   0.67764   0.69520
 Alpha virt. eigenvalues --    0.79514   0.79540   0.80943   0.81021   0.82751

 Mulliken charges:
               1
     1  O   -0.502002
     2  H    0.250848
     3  H    0.251154
     4  O   -0.501998
     5  H    0.250800
     6  H    0.251198
 Sum of Mulliken charges =  -0.00000

 Dipole moment (field-independent basis, Debye):
    X=             -0.1277    Y=             -0.0043    Z=              0.0000  Tot=              0.1278
 Quadrupole moment (field-independent basis, Debye-Ang):
   XX=             -7.8217   YY=              8.3964   ZZ=            -14.7099
   XY=             -0.2125   XZ=              0.0000   YZ=              0.0000

 Normal termination of Gaussian 16 at Fri Aug 26 21:11:16 2022.
