 Gaussian 16, Revision A.03,
 Gaussian 16:  ES64L-G16RevA.03 25-Dec-2016

 ------------------
 #p CCSD(T)/cc-pVTZ
 ------------------

 ------------
 H2O_H2O_3654
 ------------
 Symbolic Z-matrix:
 Charge =  0 Multiplicity = 1

                         Standard orientation:
 ---------------------------------------------------------------------
 Center     Atomic      Atomic             Coordinates (Angstroms)
 Number     Number       Type             X           Y           Z
 ---------------------------------------------------------------------
      1          8           0        0.014783   -2.742695    0.000000
      2          1           0       -0.785053   -3.313456    0.000000
      3          1           0        0.814089   -3.314198    0.000000
      4          8           0        0.014783    2.746573    0.000000
      5          1           0        0.639642    3.504900    0.000000
      6          1           0       -0.905204    3.091727    0.000000
 ---------------------------------------------------------------------

 SCF Done:  E(RHF) =  -152.106512009     A.U. after   10 cycles
 E2 =    -0.5259724178D+00 EUMP2 =    -0.15263248442687D+03
 CCSD(T)
 CCSD(T)= -0.15265972275D+03

 The electronic state is 1-A'.
 Alpha  occ. eigenvalues --  -20.55067 -20.55038  -1.32362  -1.32332  -0.69770
 Alpha  occ. eigenvalues --   -0.69739  -0.55767  -0.55737  -0.49467  -0.49437
 Alpha virt. eigenvalues --    0.14461   0.14638   0.20542   0.20617   0.54781
 Alpha virt. eigenvalues --    0.54854   0.57635   0.57679   0.68174   0.68846
 Alpha virt. eigenvalues --    0.79410   0.79440   0.80853   0.80901   0.82772

 Mulliken charges:
               1
     1  O   -0.503593
     2  H    0.251298
     3  H    0.252295
     4  O   -0.503547
     5  H    0.251098
     6  H    0.252449
 Sum of Mulliken charges =  -0.00000

 Dipole moment (field-independent basis, Debye):
    X=             -0.5065    Y=             -0.0680    Z=              0.0000  Tot=              0.5110
 Quadrupole moment (field-independent basis, Debye-Ang):
   XX=             -7.9459   YY=              9.6712   ZZ=            -14.7103
   XY=             -0.9510   XZ=              0.0000   YZ=              0.0000

 Normal termination of Gaussian 16 at Sat Aug 27 02:14:29 2022.
