 Gaussian 16, Revision A.03,
 Gaussian 16:  ES64L-G16RevA.03 25-Dec-2016

 ------------------
 #p CCSD(T)/cc-pVTZ
 ------------------

 ------------
 H2O_H2O_1001
 ------------
 Symbolic Z-matrix:
 Charge =  0 Multiplicity = 1

                         Standard orientation:
 ---------------------------------------------------------------------
 Center     Atomic      Atomic             Coordinates (Angstroms)
 Number     Number       Type             X           Y           Z
 ---------------------------------------------------------------------
      1          8           0        0.003735   -1.335304    0.000000
      2          1           0       -0.795973   -1.906243    0.000000
      3          1           0        0.803169   -1.906628    0.000000
      4          8           0        0.003735    1.335546    0.000000
      5          1           0        0.764391    1.957566    0.000000
      6          1           0       -0.831353    1.853362    0.000000
 ---------------------------------------------------------------------

 SCF Done:  E(RHF) =  -152.096670783     A.U. after   10 cycles
 E2 =    -0.5283657784D+00 EUMP2 =    -0.15262503656114D+03
 CCSD(T)
 CCSD(T)= -0.15265235709D+03

 The electronic state is 1-A'.
 Alpha  occ. eigenvalues --  -20.53366 -20.53360  -1.31048  -1.30489  -0.68398
 Alpha  occ. eigenvalues --   -0.68011  -0.56339  -0.51253  -0.48310  -0.47326
 Alpha virt. eigenvalues --    0.14474   0.17225   0.20570   0.22161   0.50664
 Alpha virt. eigenvalues --    0.58630   0.58823   0.62077   0.72196   0.76572
 Alpha virt. eigenvalues --    0.76897   0.78458   0.80256   0.83640   0.86380

 Mulliken charges:
               1
     1  O   -0.463784
     2  H    0.231059
     3  H    0.232696
     4  O   -0.463520
     5  H    0.231015
     6  H    0.232534
 Sum of Mulliken charges =   0.00000

 Dipole moment (field-independent basis, Debye):
    X=             -0.1192    Y=             -0.0046    Z=              0.0000  Tot=              0.1193
 Quadrupole moment (field-independent basis, Debye-Ang):
   XX=             -7.9561   YY=             -1.9930   ZZ=            -14.7176
   XY=             -0.0624   XZ=              0.0000   YZ=              0.0000

 Normal termination of Gaussian 16 at Sat Aug 27 01:17:11 2022.
