 Gaussian 16, Revision A.03,
 Gaussian 16:  ES64L-G16RevA.03 25-Dec-2016

 ------------------
 #p CCSD(T)/cc-pVTZ
 ------------------

 ---------
 H2O_H2O_8
 ---------
 Symbolic Z-matrix:
 Charge =  0 Multiplicity = 1

                         Standard orientation:
 ---------------------------------------------------------------------
 Center     Atomic      Atomic             Coordinates (Angstroms)
 Number     Number       Type             X           Y           Z
 ---------------------------------------------------------------------
      1          8           0        0.028580   -0.795380    0.000000
      2          1           0       -0.772736   -1.364061    0.000000
      3          1           0        0.826398   -1.368957    0.000000
      4          8           0        0.028580    0.810508    0.000000
      5          1           0        0.438200    1.703659    0.000000
      6          1           0       -0.949140    0.908332    0.000000
 ---------------------------------------------------------------------

 SCF Done:  E(RHF) =  -151.913214429     A.U. after   12 cycles
 E2 =    -0.5525387136D+00 EUMP2 =    -0.15246575314277D+03
 CCSD(T)
 CCSD(T)= -0.15248991379D+03

 The electronic state is 1-A'.
 Alpha  occ. eigenvalues --  -20.52127 -20.51666  -1.38112  -1.26731  -0.73025
 Alpha  occ. eigenvalues --   -0.69795  -0.62997  -0.53794  -0.43161  -0.33102
 Alpha virt. eigenvalues --    0.14115   0.19244   0.19979   0.23404   0.53032
 Alpha virt. eigenvalues --    0.55850   0.58829   0.65640   0.71173   0.78310
 Alpha virt. eigenvalues --    0.79791   0.82959   0.83009   0.84647   0.88869

 Mulliken charges:
               1
     1  O   -0.332210
     2  H    0.155302
     3  H    0.180285
     4  O   -0.318194
     5  H    0.095316
     6  H    0.219500
 Sum of Mulliken charges =  -0.00000

 Dipole moment (field-independent basis, Debye):
    X=             -0.7951    Y=             -0.4146    Z=              0.0000  Tot=              0.8967
 Quadrupole moment (field-independent basis, Debye-Ang):
   XX=             -8.8761   YY=             -9.4691   ZZ=            -14.7243
   XY=             -0.4408   XZ=              0.0000   YZ=              0.0000

 Normal termination of Gaussian 16 at Fri Aug 26 11:50:41 2022.
