 Gaussian 16, Revision A.03,
 Gaussian 16:  ES64L-G16RevA.03 25-Dec-2016

 ------------------
 #p CCSD(T)/cc-pVTZ
 ------------------

 ------------
 H2O_H2O_2227
 ------------
 Symbolic Z-matrix:
 Charge =  0 Multiplicity = 1

                         Standard orientation:
 ---------------------------------------------------------------------
 Center     Atomic      Atomic             Coordinates (Angstroms)
 Number     Number       Type             X           Y           Z
 ---------------------------------------------------------------------
      1          8           0        0.007455   -1.986407    0.000000
      2          1           0       -0.792300   -2.557281    0.000000
      3          1           0        0.806842   -2.557797    0.000000
      4          8           0        0.007455    1.987379    0.000000
      5          1           0        0.725854    2.657758    0.000000
      6          1           0       -0.859675    2.449540    0.000000
 ---------------------------------------------------------------------

 SCF Done:  E(RHF) =  -152.105077922     A.U. after   10 cycles
 E2 =    -0.5263065901D+00 EUMP2 =    -0.15263138451236D+03
 CCSD(T)
 CCSD(T)= -0.15265863391D+03

 The electronic state is 1-A'.
 Alpha  occ. eigenvalues --  -20.54561 -20.54546  -1.31847  -1.31826  -0.69265
 Alpha  occ. eigenvalues --   -0.69243  -0.55347  -0.54956  -0.48960  -0.48907
 Alpha virt. eigenvalues --    0.14213   0.15634   0.20631   0.21126   0.54329
 Alpha virt. eigenvalues --    0.56251   0.57901   0.58168   0.62216   0.74736
 Alpha virt. eigenvalues --    0.79520   0.80332   0.80770   0.81225   0.82039

 Mulliken charges:
               1
     1  O   -0.493768
     2  H    0.246292
     3  H    0.247490
     4  O   -0.493738
     5  H    0.246146
     6  H    0.247579
 Sum of Mulliken charges =  -0.00000

 Dipole moment (field-independent basis, Debye):
    X=             -0.2518    Y=             -0.0176    Z=              0.0000  Tot=              0.2524
 Quadrupole moment (field-independent basis, Debye-Ang):
   XX=             -7.8714   YY=              3.7140   ZZ=            -14.7093
   XY=             -0.2829   XZ=              0.0000   YZ=              0.0000

 Normal termination of Gaussian 16 at Sat Aug 27 09:19:31 2022.
