 Gaussian 16, Revision A.03,
 Gaussian 16:  ES64L-G16RevA.03 25-Dec-2016

 ------------------
 #p CCSD(T)/cc-pVTZ
 ------------------

 ------------
 H2O_H2O_1837
 ------------
 Symbolic Z-matrix:
 Charge =  0 Multiplicity = 1

                         Standard orientation:
 ---------------------------------------------------------------------
 Center     Atomic      Atomic             Coordinates (Angstroms)
 Number     Number       Type             X           Y           Z
 ---------------------------------------------------------------------
      1          8           0        0.040418   -1.756115    0.000000
      2          1           0       -0.760272   -2.325678    0.000000
      3          1           0        0.838867   -2.328814    0.000000
      4          8           0        0.040418    1.789413    0.000000
      5          1           0        0.203849    2.758327    0.000000
      6          1           0       -0.929131    1.629783    0.000000
 ---------------------------------------------------------------------

 SCF Done:  E(RHF) =  -152.105536676     A.U. after   10 cycles
 E2 =    -0.5265755637D+00 EUMP2 =    -0.15263211224019D+03
 CCSD(T)
 CCSD(T)= -0.15265932933D+03

 The electronic state is 1-A'.
 Alpha  occ. eigenvalues --  -20.54891 -20.54231  -1.32169  -1.31497  -0.69590
 Alpha  occ. eigenvalues --   -0.68890  -0.55634  -0.54688  -0.49276  -0.48599
 Alpha virt. eigenvalues --    0.13809   0.16187   0.20321   0.21873   0.53231
 Alpha virt. eigenvalues --    0.55495   0.57764   0.58513   0.63607   0.76700
 Alpha virt. eigenvalues --    0.78753   0.78798   0.80292   0.80990   0.84645

 Mulliken charges:
               1
     1  O   -0.491206
     2  H    0.241984
     3  H    0.250553
     4  O   -0.492476
     5  H    0.239647
     6  H    0.251499
 Sum of Mulliken charges =  -0.00000

 Dipole moment (field-independent basis, Debye):
    X=             -1.3499    Y=             -0.6175    Z=              0.0000  Tot=              1.4845
 Quadrupole moment (field-independent basis, Debye-Ang):
   XX=             -8.8587   YY=              0.9125   ZZ=            -14.7119
   XY=             -1.6532   XZ=              0.0000   YZ=              0.0000

 Normal termination of Gaussian 16 at Sat Aug 27 07:05:35 2022.
