 Gaussian 16, Revision A.03,
 Gaussian 16:  ES64L-G16RevA.03 25-Dec-2016

 ------------------
 #p CCSD(T)/cc-pVTZ
 ------------------

 ------------
 H2O_H2O_4094
 ------------
 Symbolic Z-matrix:
 Charge =  0 Multiplicity = 1

                         Standard orientation:
 ---------------------------------------------------------------------
 Center     Atomic      Atomic             Coordinates (Angstroms)
 Number     Number       Type             X           Y           Z
 ---------------------------------------------------------------------
      1          8           0        0.054143   -2.928830    0.000000
      2          1           0       -0.746323   -3.498707    0.000000
      3          1           0        0.852817   -3.501215    0.000000
      4          8           0        0.054143    3.006170    0.000000
      5          1           0       -0.228190    3.947337    0.000000
      6          1           0       -0.744592    2.433868    0.000000
 ---------------------------------------------------------------------

 SCF Done:  E(RHF) =  -152.107419389     A.U. after   10 cycles
 E2 =    -0.5258864903D+00 EUMP2 =    -0.15263330587916D+03
 CCSD(T)
 CCSD(T)= -0.15266052515D+03

 The electronic state is 1-A'.
 Alpha  occ. eigenvalues --  -20.55596 -20.55084  -1.32895  -1.32381  -0.70301
 Alpha  occ. eigenvalues --   -0.69779  -0.56343  -0.55826  -0.50006  -0.49495
 Alpha virt. eigenvalues --    0.14038   0.14623   0.20150   0.20714   0.54256
 Alpha virt. eigenvalues --    0.54796   0.57179   0.57690   0.67756   0.68463
 Alpha virt. eigenvalues --    0.78874   0.79377   0.80303   0.80815   0.82295

 Mulliken charges:
               1
     1  O   -0.508973
     2  H    0.253068
     3  H    0.255911
     4  O   -0.508620
     5  H    0.251641
     6  H    0.256973
 Sum of Mulliken charges =  -0.00000

 Dipole moment (field-independent basis, Debye):
    X=             -1.8591    Y=             -1.3549    Z=              0.0000  Tot=              2.3005
 Quadrupole moment (field-independent basis, Debye-Ang):
   XX=             -9.6484   YY=              5.4076   ZZ=            -14.7122
   XY=             -5.1463   XZ=              0.0000   YZ=              0.0000

 Normal termination of Gaussian 16 at Sat Aug 27 05:20:59 2022.
