 Gaussian 16, Revision A.03,
 Gaussian 16:  ES64L-G16RevA.03 25-Dec-2016

 ------------------
 #p CCSD(T)/cc-pVTZ
 ------------------

 ------------
 H2O_H2O_1742
 ------------
 Symbolic Z-matrix:
 Charge =  0 Multiplicity = 1

                         Standard orientation:
 ---------------------------------------------------------------------
 Center     Atomic      Atomic             Coordinates (Angstroms)
 Number     Number       Type             X           Y           Z
 ---------------------------------------------------------------------
      1          8           0        0.051305   -1.686559    0.000000
      2          1           0       -0.749729   -2.255637    0.000000
      3          1           0        0.849408   -2.259741    0.000000
      4          8           0        0.051305    1.750001    0.000000
      5          1           0       -0.104797    2.720124    0.000000
      6          1           0       -0.815758    1.287717    0.000000
 ---------------------------------------------------------------------

 SCF Done:  E(RHF) =  -152.106865744     A.U. after   10 cycles
 E2 =    -0.5266485507D+00 EUMP2 =    -0.15263351429474D+03
 CCSD(T)
 CCSD(T)= -0.15266069187D+03

 The electronic state is 1-A'.
 Alpha  occ. eigenvalues --  -20.55445 -20.54031  -1.32721  -1.31300  -0.70138
 Alpha  occ. eigenvalues --   -0.68676  -0.56131  -0.54661  -0.49834  -0.48418
 Alpha virt. eigenvalues --    0.13482   0.16455   0.20042   0.22779   0.54218
 Alpha virt. eigenvalues --    0.54474   0.57321   0.58512   0.64900   0.76336
 Alpha virt. eigenvalues --    0.78095   0.78463   0.78595   0.81139   0.84911

 Mulliken charges:
               1
     1  O   -0.493165
     2  H    0.242881
     3  H    0.254005
     4  O   -0.499589
     5  H    0.239071
     6  H    0.256797
 Sum of Mulliken charges =  -0.00000

 Dipole moment (field-independent basis, Debye):
    X=             -1.7063    Y=             -1.1909    Z=              0.0000  Tot=              2.0808
 Quadrupole moment (field-independent basis, Debye-Ang):
   XX=             -9.4721   YY=             -0.6615   ZZ=            -14.7160
   XY=             -2.4913   XZ=              0.0000   YZ=              0.0000

 Normal termination of Gaussian 16 at Sat Aug 27 06:32:04 2022.
