 Gaussian 16, Revision A.03,
 Gaussian 16:  ES64L-G16RevA.03 25-Dec-2016

 ------------------
 #p CCSD(T)/cc-pVTZ
 ------------------

 -----------
 H2O_H2O_658
 -----------
 Symbolic Z-matrix:
 Charge =  0 Multiplicity = 1

                         Standard orientation:
 ---------------------------------------------------------------------
 Center     Atomic      Atomic             Coordinates (Angstroms)
 Number     Number       Type             X           Y           Z
 ---------------------------------------------------------------------
      1          8           0        0.028573   -1.141046    0.000000
      2          1           0       -0.772219   -1.710465    0.000000
      3          1           0        0.826920   -1.713888    0.000000
      4          8           0        0.028573    1.156227    0.000000
      5          1           0        0.437370    2.049754    0.000000
      6          1           0       -0.949237    1.253149    0.000000
 ---------------------------------------------------------------------

 SCF Done:  E(RHF) =  -152.084931399     A.U. after   11 cycles
 E2 =    -0.5307565614D+00 EUMP2 =    -0.15261568796059D+03
 CCSD(T)
 CCSD(T)= -0.15264287661D+03

 The electronic state is 1-A'.
 Alpha  occ. eigenvalues --  -20.53133 -20.52647  -1.31443  -1.29700  -0.68637
 Alpha  occ. eigenvalues --   -0.67478  -0.57835  -0.48796  -0.48732  -0.46397
 Alpha virt. eigenvalues --    0.14408   0.17674   0.20437   0.22867   0.51918
 Alpha virt. eigenvalues --    0.58563   0.58591   0.63148   0.70701   0.76484
 Alpha virt. eigenvalues --    0.77451   0.80915   0.83916   0.86270   0.87263

 Mulliken charges:
               1
     1  O   -0.459165
     2  H    0.221376
     3  H    0.235947
     4  O   -0.440258
     5  H    0.205825
     6  H    0.236276
 Sum of Mulliken charges =  -0.00000

 Dipole moment (field-independent basis, Debye):
    X=             -0.8712    Y=             -0.2999    Z=              0.0000  Tot=              0.9214
 Quadrupole moment (field-independent basis, Debye-Ang):
   XX=             -8.5104   YY=             -3.9936   ZZ=            -14.7318
   XY=             -0.4477   XZ=              0.0000   YZ=              0.0000

 Normal termination of Gaussian 16 at Fri Aug 26 18:45:32 2022.
