 Gaussian 16, Revision A.03,
 Gaussian 16:  ES64L-G16RevA.03 25-Dec-2016

 ------------------
 #p CCSD(T)/cc-pVTZ
 ------------------

 ------------
 H2O_H2O_1165
 ------------
 Symbolic Z-matrix:
 Charge =  0 Multiplicity = 1

                         Standard orientation:
 ---------------------------------------------------------------------
 Center     Atomic      Atomic             Coordinates (Angstroms)
 Number     Number       Type             X           Y           Z
 ---------------------------------------------------------------------
      1          8           0        0.047561   -1.387786    0.000000
      2          1           0       -0.753659   -1.956603    0.000000
      3          1           0        0.845476   -1.961229    0.000000
      4          8           0        0.047561    1.438277    0.000000
      5          1           0        0.019742    2.420485    0.000000
      6          1           0       -0.872537    1.093422    0.000000
 ---------------------------------------------------------------------

 SCF Done:  E(RHF) =  -152.103514168     A.U. after   10 cycles
 E2 =    -0.5278476107D+00 EUMP2 =    -0.15263136177834D+03
 CCSD(T)
 CCSD(T)= -0.15265856149D+03

 The electronic state is 1-A'.
 Alpha  occ. eigenvalues --  -20.54962 -20.53437  -1.32340  -1.30682  -0.69761
 Alpha  occ. eigenvalues --   -0.68167  -0.56052  -0.53439  -0.49473  -0.47743
 Alpha virt. eigenvalues --    0.13790   0.17069   0.20094   0.23200   0.53745
 Alpha virt. eigenvalues --    0.57614   0.57761   0.58313   0.68848   0.75897
 Alpha virt. eigenvalues --    0.76296   0.76960   0.81221   0.82723   0.85217

 Mulliken charges:
               1
     1  O   -0.478785
     2  H    0.234106
     3  H    0.249707
     4  O   -0.479500
     5  H    0.225343
     6  H    0.249128
 Sum of Mulliken charges =  -0.00000

 Dipole moment (field-independent basis, Debye):
    X=             -1.5310    Y=             -0.9781    Z=              0.0000  Tot=              1.8168
 Quadrupole moment (field-independent basis, Debye-Ang):
   XX=             -9.2804   YY=             -2.2553   ZZ=            -14.7200
   XY=             -1.6415   XZ=              0.0000   YZ=              0.0000

 Normal termination of Gaussian 16 at Sat Aug 27 02:39:50 2022.
