 Gaussian 16, Revision A.03,
 Gaussian 16:  ES64L-G16RevA.03 25-Dec-2016

 ------------------
 #p CCSD(T)/cc-pVTZ
 ------------------

 ------------
 H2O_H2O_2761
 ------------
 Symbolic Z-matrix:
 Charge =  0 Multiplicity = 1

                         Standard orientation:
 ---------------------------------------------------------------------
 Center     Atomic      Atomic             Coordinates (Angstroms)
 Number     Number       Type             X           Y           Z
 ---------------------------------------------------------------------
      1          8           0        0.037678   -2.250812    0.000000
      2          1           0       -0.762710   -2.820799    0.000000
      3          1           0        0.836430   -2.823088    0.000000
      4          8           0        0.037678    2.279051    0.000000
      5          1           0        0.263622    3.235322    0.000000
      6          1           0       -0.940185    2.182656    0.000000
 ---------------------------------------------------------------------

 SCF Done:  E(RHF) =  -152.106334206     A.U. after   10 cycles
 E2 =    -0.5260643005D+00 EUMP2 =    -0.15263239850641D+03
 CCSD(T)
 CCSD(T)= -0.15265963378D+03

 The electronic state is 1-A'.
 Alpha  occ. eigenvalues --  -20.55072 -20.54745  -1.32364  -1.32033  -0.69775
 Alpha  occ. eigenvalues --   -0.69432  -0.55759  -0.55423  -0.49468  -0.49139
 Alpha virt. eigenvalues --    0.14051   0.15239   0.20414   0.21029   0.54449
 Alpha virt. eigenvalues --    0.55196   0.57615   0.57935   0.66059   0.71767
 Alpha virt. eigenvalues --    0.79386   0.79753   0.80714   0.81369   0.82667

 Mulliken charges:
               1
     1  O   -0.502277
     2  H    0.249026
     3  H    0.253362
     4  O   -0.501845
     5  H    0.247816
     6  H    0.253918
 Sum of Mulliken charges =  -0.00000

 Dipole moment (field-independent basis, Debye):
    X=             -1.2826    Y=             -0.5032    Z=              0.0000  Tot=              1.3778
 Quadrupole moment (field-independent basis, Debye-Ang):
   XX=             -8.7051   YY=              4.6537   ZZ=            -14.7107
   XY=             -2.1025   XZ=              0.0000   YZ=              0.0000

 Normal termination of Gaussian 16 at Fri Aug 26 15:52:11 2022.
