 Gaussian 16, Revision A.03,
 Gaussian 16:  ES64L-G16RevA.03 25-Dec-2016

 ------------------
 #p CCSD(T)/cc-pVTZ
 ------------------

 ------------
 H2O_H2O_2558
 ------------
 Symbolic Z-matrix:
 Charge =  0 Multiplicity = 1

                         Standard orientation:
 ---------------------------------------------------------------------
 Center     Atomic      Atomic             Coordinates (Angstroms)
 Number     Number       Type             X           Y           Z
 ---------------------------------------------------------------------
      1          8           0        0.028565   -2.151505    0.000000
      2          1           0       -0.771656   -2.721726    0.000000
      3          1           0        0.827485   -2.723547    0.000000
      4          8           0        0.028565    2.166744    0.000000
      5          1           0        0.436467    3.060681    0.000000
      6          1           0       -0.949341    2.262686    0.000000
 ---------------------------------------------------------------------

 SCF Done:  E(RHF) =  -152.105876539     A.U. after   10 cycles
 E2 =    -0.5261386109D+00 EUMP2 =    -0.15263201515040D+03
 CCSD(T)
 CCSD(T)= -0.15265925674D+03

 The electronic state is 1-A'.
 Alpha  occ. eigenvalues --  -20.54873 -20.54679  -1.32161  -1.31965  -0.69575
 Alpha  occ. eigenvalues --   -0.69370  -0.55553  -0.55306  -0.49263  -0.49067
 Alpha virt. eigenvalues --    0.14124   0.15370   0.20514   0.21047   0.54428
 Alpha virt. eigenvalues --    0.55456   0.57755   0.58003   0.64857   0.72946
 Alpha virt. eigenvalues --    0.79515   0.79896   0.80931   0.81190   0.82371

 Mulliken charges:
               1
     1  O   -0.499384
     2  H    0.247876
     3  H    0.251600
     4  O   -0.499024
     5  H    0.247045
     6  H    0.251886
 Sum of Mulliken charges =  -0.00000

 Dipole moment (field-independent basis, Debye):
    X=             -0.9700    Y=             -0.2729    Z=              0.0000  Tot=              1.0076
 Quadrupole moment (field-independent basis, Debye-Ang):
   XX=             -8.3332   YY=              4.5111   ZZ=            -14.7101
   XY=             -1.3759   XZ=              0.0000   YZ=              0.0000

 Normal termination of Gaussian 16 at Fri Aug 26 13:43:03 2022.
