 Gaussian 16, Revision A.03,
 Gaussian 16:  ES64L-G16RevA.03 25-Dec-2016

 ------------------
 #p CCSD(T)/cc-pVTZ
 ------------------

 ------------
 H2O_H2O_4816
 ------------
 Symbolic Z-matrix:
 Charge =  0 Multiplicity = 1

                         Standard orientation:
 ---------------------------------------------------------------------
 Center     Atomic      Atomic             Coordinates (Angstroms)
 Number     Number       Type             X           Y           Z
 ---------------------------------------------------------------------
      1          8           0        0.049498   -3.325464    0.000000
      2          1           0       -0.750798   -3.895581    0.000000
      3          1           0        0.848343   -3.897611    0.000000
      4          8           0        0.049498    3.382452    0.000000
      5          1           0       -0.044090    4.360587    0.000000
      6          1           0       -0.845418    2.976704    0.000000
 ---------------------------------------------------------------------

 SCF Done:  E(RHF) =  -152.107297718     A.U. after   10 cycles
 E2 =    -0.5258852803D+00 EUMP2 =    -0.15263318299844D+03
 CCSD(T)
 CCSD(T)= -0.15266040568D+03

 The electronic state is 1-A'.
 Alpha  occ. eigenvalues --  -20.55510 -20.55219  -1.32809  -1.32516  -0.70215
 Alpha  occ. eigenvalues --   -0.69918  -0.56251  -0.55958  -0.49920  -0.49628
 Alpha virt. eigenvalues --    0.14157   0.14449   0.20226   0.20533   0.54348
 Alpha virt. eigenvalues --    0.54655   0.57257   0.57549   0.67946   0.68246
 Alpha virt. eigenvalues --    0.78960   0.79248   0.80394   0.80705   0.82318

 Mulliken charges:
               1
     1  O   -0.508229
     2  H    0.253188
     3  H    0.255041
     4  O   -0.508057
     5  H    0.252413
     6  H    0.255644
 Sum of Mulliken charges =  -0.00000

 Dipole moment (field-independent basis, Debye):
    X=             -1.7025    Y=             -0.9936    Z=              0.0000  Tot=              1.9712
 Quadrupole moment (field-independent basis, Debye-Ang):
   XX=             -9.3455   YY=              9.5679   ZZ=            -14.7117
   XY=             -5.0405   XZ=              0.0000   YZ=              0.0000

 Normal termination of Gaussian 16 at Sat Aug 27 09:29:41 2022.
