 Gaussian 16, Revision A.03,
 Gaussian 16:  ES64L-G16RevA.03 25-Dec-2016

 ------------------
 #p CCSD(T)/cc-pVTZ
 ------------------

 ------------
 H2O_H2O_1081
 ------------
 Symbolic Z-matrix:
 Charge =  0 Multiplicity = 1

                         Standard orientation:
 ---------------------------------------------------------------------
 Center     Atomic      Atomic             Coordinates (Angstroms)
 Number     Number       Type             X           Y           Z
 ---------------------------------------------------------------------
      1          8           0        0.021862   -1.370632    0.000000
      2          1           0       -0.778490   -1.940670    0.000000
      3          1           0        0.820651   -1.942858    0.000000
      4          8           0        0.021862    1.379267    0.000000
      5          1           0        0.543147    2.212195    0.000000
      6          1           0       -0.935104    1.602252    0.000000
 ---------------------------------------------------------------------

 SCF Done:  E(RHF) =  -152.098965139     A.U. after   11 cycles
 E2 =    -0.5280770256D+00 EUMP2 =    -0.15262704216493D+03
 CCSD(T)
 CCSD(T)= -0.15265434063D+03

 The electronic state is 1-A'.
 Alpha  occ. eigenvalues --  -20.53721 -20.53487  -1.31229  -1.30696  -0.68613
 Alpha  occ. eigenvalues --   -0.68186  -0.56110  -0.51990  -0.48465  -0.47589
 Alpha virt. eigenvalues --    0.14348   0.17052   0.20512   0.22233   0.51613
 Alpha virt. eigenvalues --    0.58485   0.58753   0.60890   0.69985   0.76544
 Alpha virt. eigenvalues --    0.76952   0.78345   0.80545   0.83378   0.86155

 Mulliken charges:
               1
     1  O   -0.469581
     2  H    0.230275
     3  H    0.238947
     4  O   -0.463509
     5  H    0.227165
     6  H    0.236703
 Sum of Mulliken charges =  -0.00000

 Dipole moment (field-independent basis, Debye):
    X=             -0.7017    Y=             -0.1649    Z=              0.0000  Tot=              0.7208
 Quadrupole moment (field-independent basis, Debye-Ang):
   XX=             -8.2225   YY=             -1.7107   ZZ=            -14.7158
   XY=             -0.4462   XZ=              0.0000   YZ=              0.0000

 Normal termination of Gaussian 16 at Sat Aug 27 01:55:27 2022.
