 Gaussian 16, Revision A.03,
 Gaussian 16:  ES64L-G16RevA.03 25-Dec-2016

 ------------------
 #p CCSD(T)/cc-pVTZ
 ------------------

 -----------
 H2O_H2O_886
 -----------
 Symbolic Z-matrix:
 Charge =  0 Multiplicity = 1

                         Standard orientation:
 ---------------------------------------------------------------------
 Center     Atomic      Atomic             Coordinates (Angstroms)
 Number     Number       Type             X           Y           Z
 ---------------------------------------------------------------------
      1          8           0        0.037694   -1.253663    0.000000
      2          1           0       -0.763335   -1.822748    0.000000
      3          1           0        0.835802   -1.826837    0.000000
      4          8           0        0.037694    1.281817    0.000000
      5          1           0        0.264715    2.237833    0.000000
      6          1           0       -0.940277    1.186523    0.000000
 ---------------------------------------------------------------------

 SCF Done:  E(RHF) =  -152.096574961     A.U. after   11 cycles
 E2 =    -0.5290128235D+00 EUMP2 =    -0.15262558778465D+03
 CCSD(T)
 CCSD(T)= -0.15265282818D+03

 The electronic state is 1-A'.
 Alpha  occ. eigenvalues --  -20.54000 -20.53111  -1.31656  -1.30313  -0.69021
 Alpha  occ. eigenvalues --   -0.67917  -0.56587  -0.51419  -0.48878  -0.47203
 Alpha virt. eigenvalues --    0.14162   0.17316   0.20320   0.22925   0.52913
 Alpha virt. eigenvalues --    0.58166   0.58304   0.60826   0.70347   0.76121
 Alpha virt. eigenvalues --    0.77084   0.78686   0.83487   0.84783   0.85830

 Mulliken charges:
               1
     1  O   -0.469726
     2  H    0.227288
     3  H    0.243032
     4  O   -0.456428
     5  H    0.214811
     6  H    0.241024
 Sum of Mulliken charges =  -0.00000

 Dipole moment (field-independent basis, Debye):
    X=             -1.1829    Y=             -0.5477    Z=              0.0000  Tot=              1.3035
 Quadrupole moment (field-independent basis, Debye-Ang):
   XX=             -8.8173   YY=             -2.9630   ZZ=            -14.7230
   XY=             -0.8663   XZ=              0.0000   YZ=              0.0000

 Normal termination of Gaussian 16 at Fri Aug 26 20:52:26 2022.
