 Gaussian 16, Revision A.03,
 Gaussian 16:  ES64L-G16RevA.03 25-Dec-2016

 ------------------
 #p CCSD(T)/cc-pVTZ
 ------------------

 ------------
 H2O_H2O_1280
 ------------
 Symbolic Z-matrix:
 Charge =  0 Multiplicity = 1

                         Standard orientation:
 ---------------------------------------------------------------------
 Center     Atomic      Atomic             Coordinates (Angstroms)
 Number     Number       Type             X           Y           Z
 ---------------------------------------------------------------------
      1          8           0        0.018362   -1.478419    0.000000
      2          1           0       -0.781818   -2.048698    0.000000
      3          1           0        0.817323   -2.050404    0.000000
      4          8           0        0.018362    1.484442    0.000000
      5          1           0        0.592766    2.281665    0.000000
      6          1           0       -0.922057    1.769253    0.000000
 ---------------------------------------------------------------------

 SCF Done:  E(RHF) =  -152.101294053     A.U. after   11 cycles
 E2 =    -0.5274815320D+00 EUMP2 =    -0.15262877558503D+03
 CCSD(T)
 CCSD(T)= -0.15265606708D+03

 The electronic state is 1-A'.
 Alpha  occ. eigenvalues --  -20.53918 -20.53769  -1.31307  -1.31002  -0.68716
 Alpha  occ. eigenvalues --   -0.68459  -0.55708  -0.52892  -0.48506  -0.47958
 Alpha virt. eigenvalues --    0.14328   0.16768   0.20530   0.21971   0.51859
 Alpha virt. eigenvalues --    0.58353   0.58643   0.59777   0.66884   0.76531
 Alpha virt. eigenvalues --    0.77578   0.78474   0.79033   0.82812   0.86062

 Mulliken charges:
               1
     1  O   -0.473191
     2  H    0.233444
     3  H    0.239814
     4  O   -0.470696
     5  H    0.232264
     6  H    0.238364
 Sum of Mulliken charges =  -0.00000

 Dipole moment (field-independent basis, Debye):
    X=             -0.5988    Y=             -0.1139    Z=              0.0000  Tot=              0.6096
 Quadrupole moment (field-independent basis, Debye-Ang):
   XX=             -8.1092   YY=             -0.7054   ZZ=            -14.7115
   XY=             -0.4216   XZ=              0.0000   YZ=              0.0000

 Normal termination of Gaussian 16 at Sat Aug 27 03:35:34 2022.
