 Gaussian 16, Revision A.03,
 Gaussian 16:  ES64L-G16RevA.03 25-Dec-2016

 ------------------
 #p CCSD(T)/cc-pVTZ
 ------------------

 ------------
 H2O_H2O_2540
 ------------
 Symbolic Z-matrix:
 Charge =  0 Multiplicity = 1

                         Standard orientation:
 ---------------------------------------------------------------------
 Center     Atomic      Atomic             Coordinates (Angstroms)
 Number     Number       Type             X           Y           Z
 ---------------------------------------------------------------------
      1          8           0        0.047536   -2.119012    0.000000
      2          1           0       -0.753122   -2.688619    0.000000
      3          1           0        0.846017   -2.691667    0.000000
      4          8           0        0.047536    2.169597    0.000000
      5          1           0        0.018748    3.151776    0.000000
      6          1           0       -0.872222    1.823834    0.000000
 ---------------------------------------------------------------------

 SCF Done:  E(RHF) =  -152.106767841     A.U. after   10 cycles
 E2 =    -0.5261012414D+00 EUMP2 =    -0.15263286908235D+03
 CCSD(T)
 CCSD(T)= -0.15266008669D+03

 The electronic state is 1-A'.
 Alpha  occ. eigenvalues --  -20.55293 -20.54611  -1.32581  -1.31897  -0.69992
 Alpha  occ. eigenvalues --   -0.69286  -0.55989  -0.55305  -0.49688  -0.49009
 Alpha virt. eigenvalues --    0.13668   0.15538   0.20232   0.21404   0.54017
 Alpha virt. eigenvalues --    0.54986   0.57458   0.58072   0.65597   0.73297
 Alpha virt. eigenvalues --    0.79149   0.79898   0.80167   0.81832   0.83321

 Mulliken charges:
               1
     1  O   -0.503398
     2  H    0.248843
     3  H    0.255104
     4  O   -0.503708
     5  H    0.246732
     6  H    0.256427
 Sum of Mulliken charges =  -0.00000

 Dipole moment (field-independent basis, Debye):
    X=             -1.6136    Y=             -0.9103    Z=              0.0000  Tot=              1.8527
 Quadrupole moment (field-independent basis, Debye-Ang):
   XX=             -9.2296   YY=              2.6290   ZZ=            -14.7121
   XY=             -2.7934   XZ=              0.0000   YZ=              0.0000

 Normal termination of Gaussian 16 at Fri Aug 26 13:31:16 2022.
