 Gaussian 16, Revision A.03,
 Gaussian 16:  ES64L-G16RevA.03 25-Dec-2016

 ------------------
 #p CCSD(T)/cc-pVTZ
 ------------------

 ------------
 H2O_H2O_3474
 ------------
 Symbolic Z-matrix:
 Charge =  0 Multiplicity = 1

                         Standard orientation:
 ---------------------------------------------------------------------
 Center     Atomic      Atomic             Coordinates (Angstroms)
 Number     Number       Type             X           Y           Z
 ---------------------------------------------------------------------
      1          8           0        0.057220   -2.576516    0.000000
      2          1           0       -0.743416   -3.146154    0.000000
      3          1           0        0.855723   -3.149140    0.000000
      4          8           0        0.057220    2.690529    0.000000
      5          1           0       -0.512419    3.491165    0.000000
      6          1           0       -0.515404    1.892025    0.000000
 ---------------------------------------------------------------------

 SCF Done:  E(RHF) =  -152.107967834     A.U. after   10 cycles
 E2 =    -0.5258775813D+00 EUMP2 =    -0.15263384541581D+03
 CCSD(T)
 CCSD(T)= -0.15266104858D+03

 The electronic state is 1-A'.
 Alpha  occ. eigenvalues --  -20.55872 -20.54889  -1.33170  -1.32190  -0.70576
 Alpha  occ. eigenvalues --   -0.69581  -0.56642  -0.55649  -0.50286  -0.49309
 Alpha virt. eigenvalues --    0.13543   0.15008   0.19938   0.21108   0.53960
 Alpha virt. eigenvalues --    0.54886   0.56951   0.57827   0.66972   0.69191
 Alpha virt. eigenvalues --    0.78601   0.79551   0.79918   0.80285   0.82753

 Mulliken charges:
               1
     1  O   -0.511756
     2  H    0.254010
     3  H    0.257950
     4  O   -0.511205
     5  H    0.251096
     6  H    0.259906
 Sum of Mulliken charges =  -0.00000

 Dipole moment (field-independent basis, Debye):
    X=             -1.9600    Y=             -2.0147    Z=              0.0000  Tot=              2.8108
 Quadrupole moment (field-independent basis, Debye-Ang):
   XX=             -9.8630   YY=              0.4228   ZZ=            -14.7138
   XY=             -5.4463   XZ=              0.0000   YZ=              0.0000

 Normal termination of Gaussian 16 at Fri Aug 26 22:38:24 2022.
