 Gaussian 16, Revision A.03,
 Gaussian 16:  ES64L-G16RevA.03 25-Dec-2016

 ------------------
 #p CCSD(T)/cc-pVTZ
 ------------------

 ------------
 H2O_H2O_2605
 ------------
 Symbolic Z-matrix:
 Charge =  0 Multiplicity = 1

                         Standard orientation:
 ---------------------------------------------------------------------
 Center     Atomic      Atomic             Coordinates (Angstroms)
 Number     Number       Type             X           Y           Z
 ---------------------------------------------------------------------
      1          8           0        0.018361   -2.183095    0.000000
      2          1           0       -0.781623   -2.753649    0.000000
      3          1           0        0.817518   -2.754805    0.000000
      4          8           0        0.018361    2.189131    0.000000
      5          1           0        0.592491    2.986552    0.000000
      6          1           0       -0.922156    2.473619    0.000000
 ---------------------------------------------------------------------

 SCF Done:  E(RHF) =  -152.105712985     A.U. after   10 cycles
 E2 =    -0.5261352464D+00 EUMP2 =    -0.15263184823140D+03
 CCSD(T)
 CCSD(T)= -0.15265909523D+03

 The electronic state is 1-A'.
 Alpha  occ. eigenvalues --  -20.54785 -20.54711  -1.32074  -1.31998  -0.69487
 Alpha  occ. eigenvalues --   -0.69408  -0.55478  -0.55312  -0.49174  -0.49098
 Alpha virt. eigenvalues --    0.14249   0.15293   0.20590   0.20962   0.54629
 Alpha virt. eigenvalues --    0.55519   0.57805   0.57987   0.64912   0.72661
 Alpha virt. eigenvalues --    0.79589   0.79881   0.81133   0.81171   0.82177

 Mulliken charges:
               1
     1  O   -0.498603
     2  H    0.248160
     3  H    0.250472
     4  O   -0.498417
     5  H    0.247752
     6  H    0.250638
 Sum of Mulliken charges =  -0.00000

 Dipole moment (field-independent basis, Debye):
    X=             -0.6239    Y=             -0.1078    Z=              0.0000  Tot=              0.6331
 Quadrupole moment (field-independent basis, Debye-Ang):
   XX=             -8.0350   YY=              5.1275   ZZ=            -14.7097
   XY=             -0.8481   XZ=              0.0000   YZ=              0.0000

 Normal termination of Gaussian 16 at Fri Aug 26 14:16:34 2022.
