 Gaussian 16, Revision A.03,
 Gaussian 16:  ES64L-G16RevA.03 25-Dec-2016

 ------------------
 #p CCSD(T)/cc-pVTZ
 ------------------

 ------------
 H2O_H2O_1552
 ------------
 Symbolic Z-matrix:
 Charge =  0 Multiplicity = 1

                         Standard orientation:
 ---------------------------------------------------------------------
 Center     Atomic      Atomic             Coordinates (Angstroms)
 Number     Number       Type             X           Y           Z
 ---------------------------------------------------------------------
      1          8           0        0.007455   -1.627417    0.000000
      2          1           0       -0.792341   -2.198234    0.000000
      3          1           0        0.806801   -2.198865    0.000000
      4          8           0        0.007455    1.628389    0.000000
      5          1           0        0.725902    2.298717    0.000000
      6          1           0       -0.859642    2.090612    0.000000
 ---------------------------------------------------------------------

 SCF Done:  E(RHF) =  -152.102983442     A.U. after   10 cycles
 E2 =    -0.5269611710D+00 EUMP2 =    -0.15262994461284D+03
 CCSD(T)
 CCSD(T)= -0.15265721864D+03

 The electronic state is 1-A'.
 Alpha  occ. eigenvalues --  -20.54098 -20.54077  -1.31432  -1.31315  -0.68852
 Alpha  occ. eigenvalues --   -0.68756  -0.55407  -0.53738  -0.48597  -0.48322
 Alpha virt. eigenvalues --    0.14312   0.16395   0.20582   0.21632   0.52536
 Alpha virt. eigenvalues --    0.58146   0.58494   0.58704   0.62726   0.76111
 Alpha virt. eigenvalues --    0.78461   0.78538   0.79726   0.81951   0.85506

 Mulliken charges:
               1
     1  O   -0.478814
     2  H    0.238420
     3  H    0.240434
     4  O   -0.478709
     5  H    0.238353
     6  H    0.240316
 Sum of Mulliken charges =  -0.00000

 Dipole moment (field-independent basis, Debye):
    X=             -0.2469    Y=             -0.0182    Z=              0.0000  Tot=              0.2476
 Quadrupole moment (field-independent basis, Debye-Ang):
   XX=             -7.9093   YY=              0.6832   ZZ=            -14.7090
   XY=             -0.1947   XZ=              0.0000   YZ=              0.0000

 Normal termination of Gaussian 16 at Sat Aug 27 05:25:49 2022.
