 Gaussian 16, Revision A.03,
 Gaussian 16:  ES64L-G16RevA.03 25-Dec-2016

 ------------------
 #p CCSD(T)/cc-pVTZ
 ------------------

 -----------
 H2O_H2O_987
 -----------
 Symbolic Z-matrix:
 Charge =  0 Multiplicity = 1

                         Standard orientation:
 ---------------------------------------------------------------------
 Center     Atomic      Atomic             Coordinates (Angstroms)
 Number     Number       Type             X           Y           Z
 ---------------------------------------------------------------------
      1          8           0        0.040429   -1.304082    0.000000
      2          1           0       -0.760643   -1.873108    0.000000
      3          1           0        0.838494   -1.877317    0.000000
      4          8           0        0.040429    1.337326    0.000000
      5          1           0        0.204511    2.306130    0.000000
      6          1           0       -0.929227    1.178347    0.000000
 ---------------------------------------------------------------------

 SCF Done:  E(RHF) =  -152.099479663     A.U. after   11 cycles
 E2 =    -0.5285037413D+00 EUMP2 =    -0.15262798340470D+03
 CCSD(T)
 CCSD(T)= -0.15265522093D+03

 The electronic state is 1-A'.
 Alpha  occ. eigenvalues --  -20.54295 -20.53267  -1.31809  -1.30493  -0.69206
 Alpha  occ. eigenvalues --   -0.68036  -0.56287  -0.52220  -0.48996  -0.47452
 Alpha virt. eigenvalues --    0.14064   0.17196   0.20270   0.22934   0.53212
 Alpha virt. eigenvalues --    0.58023   0.58257   0.59898   0.69912   0.76194
 Alpha virt. eigenvalues --    0.76961   0.77487   0.83107   0.83273   0.85665

 Mulliken charges:
               1
     1  O   -0.472852
     2  H    0.229575
     3  H    0.245085
     4  O   -0.463552
     5  H    0.218717
     6  H    0.243027
 Sum of Mulliken charges =  -0.00000

 Dipole moment (field-independent basis, Debye):
    X=             -1.2820    Y=             -0.6446    Z=              0.0000  Tot=              1.4350
 Quadrupole moment (field-independent basis, Debye-Ang):
   XX=             -8.9286   YY=             -2.5849   ZZ=            -14.7208
   XY=             -1.0591   XZ=              0.0000   YZ=              0.0000

 Normal termination of Gaussian 16 at Sat Aug 27 01:11:41 2022.
