 Gaussian 16, Revision A.03,
 Gaussian 16:  ES64L-G16RevA.03 25-Dec-2016

 ------------------
 #p CCSD(T)/cc-pVTZ
 ------------------

 -----------
 H2O_H2O_101
 -----------
 Symbolic Z-matrix:
 Charge =  0 Multiplicity = 1

                         Standard orientation:
 ---------------------------------------------------------------------
 Center     Atomic      Atomic             Coordinates (Angstroms)
 Number     Number       Type             X           Y           Z
 ---------------------------------------------------------------------
      1          8           0        0.003735   -0.856651    0.000000
      2          1           0       -0.796050   -1.427483    0.000000
      3          1           0        0.803092   -1.428083    0.000000
      4          8           0        0.003735    0.856893    0.000000
      5          1           0        0.764475    1.478811    0.000000
      6          1           0       -0.831283    1.374821    0.000000
 ---------------------------------------------------------------------

 SCF Done:  E(RHF) =  -151.962811087     A.U. after   11 cycles
 E2 =    -0.5463205768D+00 EUMP2 =    -0.15250913166409D+03
 CCSD(T)
 CCSD(T)= -0.15253439272D+03

 The electronic state is 1-A'.
 Alpha  occ. eigenvalues --  -20.51181 -20.51174  -1.34976  -1.27182  -0.69985
 Alpha  occ. eigenvalues --   -0.66585  -0.65418  -0.51535  -0.43405  -0.35522
 Alpha virt. eigenvalues --    0.14575   0.19460   0.20002   0.23017   0.50440
 Alpha virt. eigenvalues --    0.59030   0.59249   0.67176   0.67861   0.79325
 Alpha virt. eigenvalues --    0.80742   0.84073   0.84265   0.86181   0.87809

 Mulliken charges:
               1
     1  O   -0.368102
     2  H    0.182068
     3  H    0.186045
     4  O   -0.367201
     5  H    0.175993
     6  H    0.191198
 Sum of Mulliken charges =  -0.00000

 Dipole moment (field-independent basis, Debye):
    X=             -0.1071    Y=             -0.0065    Z=              0.0000  Tot=              0.1072
 Quadrupole moment (field-independent basis, Debye-Ang):
   XX=             -8.4293   YY=             -8.2097   ZZ=            -14.7676
   XY=             -0.0471   XZ=              0.0000   YZ=              0.0000

 Normal termination of Gaussian 16 at Fri Aug 26 12:46:20 2022.
