 Gaussian 16, Revision A.03,
 Gaussian 16:  ES64L-G16RevA.03 25-Dec-2016

 ------------------
 #p CCSD(T)/cc-pVTZ
 ------------------

 ------------
 H2O_H2O_1782
 ------------
 Symbolic Z-matrix:
 Charge =  0 Multiplicity = 1

                         Standard orientation:
 ---------------------------------------------------------------------
 Center     Atomic      Atomic             Coordinates (Angstroms)
 Number     Number       Type             X           Y           Z
 ---------------------------------------------------------------------
      1          8           0        0.025268   -1.741244    0.000000
      2          1           0       -0.775013   -2.311381    0.000000
      3          1           0        0.824127   -2.313371    0.000000
      4          8           0        0.025268    1.752961    0.000000
      5          1           0        0.490853    2.618257    0.000000
      6          1           0       -0.944253    1.912759    0.000000
 ---------------------------------------------------------------------

 SCF Done:  E(RHF) =  -152.104453350     A.U. after   10 cycles
 E2 =    -0.5266604662D+00 EUMP2 =    -0.15263111381569D+03
 CCSD(T)
 CCSD(T)= -0.15265835793D+03

 The electronic state is 1-A'.
 Alpha  occ. eigenvalues --  -20.54480 -20.54248  -1.31762  -1.31516  -0.69185
 Alpha  occ. eigenvalues --   -0.68930  -0.55403  -0.54416  -0.48877  -0.48593
 Alpha virt. eigenvalues --    0.14096   0.16154   0.20509   0.21566   0.53101
 Alpha virt. eigenvalues --    0.56649   0.58018   0.58440   0.62447   0.76383
 Alpha virt. eigenvalues --    0.78883   0.79130   0.80367   0.81221   0.83978

 Mulliken charges:
               1
     1  O   -0.486601
     2  H    0.240715
     3  H    0.246335
     4  O   -0.486610
     5  H    0.239702
     6  H    0.246459
 Sum of Mulliken charges =  -0.00000

 Dipole moment (field-independent basis, Debye):
    X=             -0.8434    Y=             -0.2175    Z=              0.0000  Tot=              0.8710
 Quadrupole moment (field-independent basis, Debye-Ang):
   XX=             -8.2507   YY=              1.4194   ZZ=            -14.7098
   XY=             -0.8423   XZ=              0.0000   YZ=              0.0000

 Normal termination of Gaussian 16 at Sat Aug 27 06:45:34 2022.
