 Gaussian 16, Revision A.03,
 Gaussian 16:  ES64L-G16RevA.03 25-Dec-2016

 ------------------
 #p CCSD(T)/cc-pVTZ
 ------------------

 ------------
 H2O_H2O_1127
 ------------
 Symbolic Z-matrix:
 Charge =  0 Multiplicity = 1

                         Standard orientation:
 ---------------------------------------------------------------------
 Center     Atomic      Atomic             Coordinates (Angstroms)
 Number     Number       Type             X           Y           Z
 ---------------------------------------------------------------------
      1          8           0        0.007455   -1.401388    0.000000
      2          1           0       -0.792377   -1.972154    0.000000
      3          1           0        0.806765   -1.972886    0.000000
      4          8           0        0.007455    1.402358    0.000000
      5          1           0        0.725945    2.072641    0.000000
      6          1           0       -0.859613    1.864635    0.000000
 ---------------------------------------------------------------------

 SCF Done:  E(RHF) =  -152.099034418     A.U. after   10 cycles
 E2 =    -0.5279002689D+00 EUMP2 =    -0.15262693468664D+03
 CCSD(T)
 CCSD(T)= -0.15265425010D+03

 The electronic state is 1-A'.
 Alpha  occ. eigenvalues --  -20.53589 -20.53564  -1.31126  -1.30734  -0.68509
 Alpha  occ. eigenvalues --   -0.68227  -0.55982  -0.52039  -0.48363  -0.47624
 Alpha virt. eigenvalues --    0.14437   0.17012   0.20562   0.22046   0.51059
 Alpha virt. eigenvalues --    0.58500   0.58757   0.61173   0.69832   0.76366
 Alpha virt. eigenvalues --    0.77191   0.78176   0.79285   0.83298   0.86270

 Mulliken charges:
               1
     1  O   -0.467418
     2  H    0.232186
     3  H    0.235182
     4  O   -0.466653
     5  H    0.232077
     6  H    0.234626
 Sum of Mulliken charges =  -0.00000

 Dipole moment (field-independent basis, Debye):
    X=             -0.2406    Y=             -0.0184    Z=              0.0000  Tot=              0.2413
 Quadrupole moment (field-independent basis, Debye-Ang):
   XX=             -7.9592   YY=             -1.3631   ZZ=            -14.7138
   XY=             -0.1412   XZ=              0.0000   YZ=              0.0000

 Normal termination of Gaussian 16 at Sat Aug 27 02:20:27 2022.
