 Gaussian 16, Revision A.03,
 Gaussian 16:  ES64L-G16RevA.03 25-Dec-2016

 ------------------
 #p CCSD(T)/cc-pVTZ
 ------------------

 -----------
 H2O_H2O_665
 -----------
 Symbolic Z-matrix:
 Charge =  0 Multiplicity = 1

                         Standard orientation:
 ---------------------------------------------------------------------
 Center     Atomic      Atomic             Coordinates (Angstroms)
 Number     Number       Type             X           Y           Z
 ---------------------------------------------------------------------
      1          8           0        0.047578   -1.121901    0.000000
      2          1           0       -0.754023   -1.690180    0.000000
      3          1           0        0.845109   -1.695879    0.000000
      4          8           0        0.047578    1.172328    0.000000
      5          1           0        0.020417    2.154554    0.000000
      6          1           0       -0.872752    0.828091    0.000000
 ---------------------------------------------------------------------

 SCF Done:  E(RHF) =  -152.088719638     A.U. after   11 cycles
 E2 =    -0.5309892100D+00 EUMP2 =    -0.15261970884802D+03
 CCSD(T)
 CCSD(T)= -0.15264681113D+03

 The electronic state is 1-A'.
 Alpha  occ. eigenvalues --  -20.54390 -20.52473  -1.32568  -1.29629  -0.69897
 Alpha  occ. eigenvalues --   -0.67942  -0.56657  -0.50677  -0.49698  -0.46509
 Alpha virt. eigenvalues --    0.13895   0.17800   0.20038   0.23822   0.52920
 Alpha virt. eigenvalues --    0.57523   0.58721   0.61426   0.71269   0.75206
 Alpha virt. eigenvalues --    0.78754   0.81900   0.83199   0.85117   0.87707

 Mulliken charges:
               1
     1  O   -0.458597
     2  H    0.222233
     3  H    0.241508
     4  O   -0.451077
     5  H    0.200067
     6  H    0.245867
 Sum of Mulliken charges =   0.00000

 Dipole moment (field-independent basis, Debye):
    X=             -1.4473    Y=             -1.0090    Z=              0.0000  Tot=              1.7643
 Quadrupole moment (field-independent basis, Debye-Ang):
   XX=             -9.3336   YY=             -4.4240   ZZ=            -14.7236
   XY=             -1.2375   XZ=              0.0000   YZ=              0.0000

 Normal termination of Gaussian 16 at Fri Aug 26 18:49:44 2022.
