 Gaussian 16, Revision A.03,
 Gaussian 16:  ES64L-G16RevA.03 25-Dec-2016

 ------------------
 #p CCSD(T)/cc-pVTZ
 ------------------

 ------------
 H2O_H2O_3099
 ------------
 Symbolic Z-matrix:
 Charge =  0 Multiplicity = 1

                         Standard orientation:
 ---------------------------------------------------------------------
 Center     Atomic      Atomic             Coordinates (Angstroms)
 Number     Number       Type             X           Y           Z
 ---------------------------------------------------------------------
      1          8           0        0.057228   -2.377086    0.000000
      2          1           0       -0.743495   -2.946602    0.000000
      3          1           0        0.855644   -2.949832    0.000000
      4          8           0        0.057228    2.491082    0.000000
      5          1           0       -0.512287    3.291806    0.000000
      6          1           0       -0.515517    1.692666    0.000000
 ---------------------------------------------------------------------

 SCF Done:  E(RHF) =  -152.108176386     A.U. after   10 cycles
 E2 =    -0.5259162188D+00 EUMP2 =    -0.15263409260514D+03
 CCSD(T)
 CCSD(T)= -0.15266128462D+03

 The electronic state is 1-A'.
 Alpha  occ. eigenvalues --  -20.55939 -20.54750  -1.33231  -1.32052  -0.70636
 Alpha  occ. eigenvalues --   -0.69438  -0.56708  -0.55514  -0.50348  -0.49173
 Alpha virt. eigenvalues --    0.13277   0.15290   0.19893   0.21442   0.53893
 Alpha virt. eigenvalues --    0.54874   0.56918   0.57946   0.66715   0.69981
 Alpha virt. eigenvalues --    0.78545   0.79591   0.79681   0.80182   0.82820

 Mulliken charges:
               1
     1  O   -0.511594
     2  H    0.253686
     3  H    0.258566
     4  O   -0.511849
     5  H    0.250225
     6  H    0.260967
 Sum of Mulliken charges =  -0.00000

 Dipole moment (field-independent basis, Debye):
    X=             -1.9555    Y=             -2.0311    Z=              0.0000  Tot=              2.8195
 Quadrupole moment (field-independent basis, Debye-Ang):
   XX=             -9.8624   YY=             -0.3708   ZZ=            -14.7148
   XY=             -5.0593   XZ=              0.0000   YZ=              0.0000

 Normal termination of Gaussian 16 at Fri Aug 26 19:25:12 2022.
