 Gaussian 16, Revision A.03,
 Gaussian 16:  ES64L-G16RevA.03 25-Dec-2016

 ------------------
 #p CCSD(T)/cc-pVTZ
 ------------------

 ------------
 H2O_H2O_2313
 ------------
 Symbolic Z-matrix:
 Charge =  0 Multiplicity = 1

                         Standard orientation:
 ---------------------------------------------------------------------
 Center     Atomic      Atomic             Coordinates (Angstroms)
 Number     Number       Type             X           Y           Z
 ---------------------------------------------------------------------
      1          8           0        0.042975   -2.005773    0.000000
      2          1           0       -0.757637   -2.575445    0.000000
      3          1           0        0.841503   -2.578364    0.000000
      4          8           0        0.042975    2.044528    0.000000
      5          1           0        0.142554    3.022072    0.000000
      6          1           0       -0.914027    1.821699    0.000000
 ---------------------------------------------------------------------

 SCF Done:  E(RHF) =  -152.106309204     A.U. after   10 cycles
 E2 =    -0.5262111283D+00 EUMP2 =    -0.15263252033221D+03
 CCSD(T)
 CCSD(T)= -0.15265974112D+03

 The electronic state is 1-A'.
 Alpha  occ. eigenvalues --  -20.55106 -20.54519  -1.32389  -1.31800  -0.69803
 Alpha  occ. eigenvalues --   -0.69191  -0.55785  -0.55167  -0.49494  -0.48909
 Alpha virt. eigenvalues --    0.13739   0.15711   0.20308   0.21468   0.53740
 Alpha virt. eigenvalues --    0.55164   0.57606   0.58174   0.64534   0.74659
 Alpha virt. eigenvalues --    0.79222   0.80069   0.80109   0.81425   0.83269

 Mulliken charges:
               1
     1  O   -0.499931
     2  H    0.246994
     3  H    0.253564
     4  O   -0.500296
     5  H    0.245091
     6  H    0.254577
 Sum of Mulliken charges =  -0.00000

 Dipole moment (field-independent basis, Debye):
    X=             -1.4532    Y=             -0.7025    Z=              0.0000  Tot=              1.6141
 Quadrupole moment (field-independent basis, Debye-Ang):
   XX=             -8.9767   YY=              2.4552   ZZ=            -14.7117
   XY=             -2.1937   XZ=              0.0000   YZ=              0.0000

 Normal termination of Gaussian 16 at Sat Aug 27 09:48:49 2022.
