 Gaussian 16, Revision A.03,
 Gaussian 16:  ES64L-G16RevA.03 25-Dec-2016

 ------------------
 #p CCSD(T)/cc-pVTZ
 ------------------

 ------------
 H2O_H2O_2308
 ------------
 Symbolic Z-matrix:
 Charge =  0 Multiplicity = 1

                         Standard orientation:
 ---------------------------------------------------------------------
 Center     Atomic      Atomic             Coordinates (Angstroms)
 Number     Number       Type             X           Y           Z
 ---------------------------------------------------------------------
      1          8           0        0.028566   -2.018548    0.000000
      2          1           0       -0.771698   -2.588710    0.000000
      3          1           0        0.827443   -2.590650    0.000000
      4          8           0        0.028566    2.033783    0.000000
      5          1           0        0.436535    2.927688    0.000000
      6          1           0       -0.949333    2.129798    0.000000
 ---------------------------------------------------------------------

 SCF Done:  E(RHF) =  -152.105606473     A.U. after   10 cycles
 E2 =    -0.5262446722D+00 EUMP2 =    -0.15263185114504D+03
 CCSD(T)
 CCSD(T)= -0.15265909014D+03

 The electronic state is 1-A'.
 Alpha  occ. eigenvalues --  -20.54787 -20.54563  -1.32071  -1.31844  -0.69487
 Alpha  occ. eigenvalues --   -0.69250  -0.55485  -0.55121  -0.49173  -0.48944
 Alpha virt. eigenvalues --    0.14044   0.15611   0.20507   0.21199   0.54051
 Alpha virt. eigenvalues --    0.55683   0.57816   0.58115   0.63506   0.74405
 Alpha virt. eigenvalues --    0.79452   0.80160   0.80567   0.81152   0.82458

 Mulliken charges:
               1
     1  O   -0.496856
     2  H    0.246334
     3  H    0.250717
     4  O   -0.496591
     5  H    0.245385
     6  H    0.251011
 Sum of Mulliken charges =  -0.00000

 Dipole moment (field-independent basis, Debye):
    X=             -0.9661    Y=             -0.2755    Z=              0.0000  Tot=              1.0046
 Quadrupole moment (field-independent basis, Debye-Ang):
   XX=             -8.3390   YY=              3.4943   ZZ=            -14.7102
   XY=             -1.2487   XZ=              0.0000   YZ=              0.0000

 .64851\MP4DQ=-152.640929\MP4SDQ=-152.6440086\CCSD=-152.643411\CCSD(T)=
 Normal termination of Gaussian 16 at Sat Aug 27 09:47:03 2022.
