 Gaussian 16, Revision A.03,
 Gaussian 16:  ES64L-G16RevA.03 25-Dec-2016

 ------------------
 #p CCSD(T)/cc-pVTZ
 ------------------

 ------------
 H2O_H2O_1201
 ------------
 Symbolic Z-matrix:
 Charge =  0 Multiplicity = 1

                         Standard orientation:
 ---------------------------------------------------------------------
 Center     Atomic      Atomic             Coordinates (Angstroms)
 Number     Number       Type             X           Y           Z
 ---------------------------------------------------------------------
      1          8           0        0.003735   -1.441671    0.000000
      2          1           0       -0.795963   -2.012624    0.000000
      3          1           0        0.803179   -2.012981    0.000000
      4          8           0        0.003735    1.441913    0.000000
      5          1           0        0.764380    2.063948    0.000000
      6          1           0       -0.831362    1.959715    0.000000
 ---------------------------------------------------------------------

 SCF Done:  E(RHF) =  -152.100002671     A.U. after   10 cycles
 E2 =    -0.5276755197D+00 EUMP2 =    -0.15262767819039D+03
 CCSD(T)
 CCSD(T)= -0.15265498954D+03

 The electronic state is 1-A'.
 Alpha  occ. eigenvalues --  -20.53679 -20.53673  -1.31167  -1.30852  -0.68561
 Alpha  occ. eigenvalues --   -0.68332  -0.55818  -0.52407  -0.48388  -0.47768
 Alpha virt. eigenvalues --    0.14430   0.16896   0.20566   0.21959   0.51230
 Alpha virt. eigenvalues --    0.58423   0.58724   0.60761   0.68306   0.76250
 Alpha virt. eigenvalues --    0.77417   0.77937   0.79178   0.83080   0.86224

 Mulliken charges:
               1
     1  O   -0.469020
     2  H    0.233798
     3  H    0.235217
     4  O   -0.468865
     5  H    0.233858
     6  H    0.235012
 Sum of Mulliken charges =  -0.00000

 Dipole moment (field-independent basis, Debye):
    X=             -0.1213    Y=             -0.0046    Z=              0.0000  Tot=              0.1214
 Quadrupole moment (field-independent basis, Debye-Ang):
   XX=             -7.9227   YY=             -0.9800   ZZ=            -14.7121
   XY=             -0.0746   XZ=              0.0000   YZ=              0.0000

 Normal termination of Gaussian 16 at Sat Aug 27 02:56:22 2022.
