 Gaussian 16, Revision A.03,
 Gaussian 16:  ES64L-G16RevA.03 25-Dec-2016

 ------------------
 #p CCSD(T)/cc-pVTZ
 ------------------

 ------------
 H2O_H2O_1097
 ------------
 Symbolic Z-matrix:
 Charge =  0 Multiplicity = 1

                         Standard orientation:
 ---------------------------------------------------------------------
 Center     Atomic      Atomic             Coordinates (Angstroms)
 Number     Number       Type             X           Y           Z
 ---------------------------------------------------------------------
      1          8           0        0.056801   -1.321600    0.000000
      2          1           0       -0.744796   -1.889886    0.000000
      3          1           0        0.854336   -1.895571    0.000000
      4          8           0        0.056801    1.420513    0.000000
      5          1           0       -0.401994    2.289429    0.000000
      6          1           0       -0.616359    0.704719    0.000000
 ---------------------------------------------------------------------

 SCF Done:  E(RHF) =  -152.106608284     A.U. after   10 cycles
 E2 =    -0.5285089631D+00 EUMP2 =    -0.15263511724741D+03
 CCSD(T)
 CCSD(T)= -0.15266215334D+03

 The electronic state is 1-A'.
 Alpha  occ. eigenvalues --  -20.56499 -20.52687  -1.33972  -1.30049  -0.71352
 Alpha  occ. eigenvalues --   -0.68003  -0.56865  -0.53572  -0.51058  -0.47155
 Alpha virt. eigenvalues --    0.13084   0.17706   0.19548   0.25678   0.51618
 Alpha virt. eigenvalues --    0.56400   0.57961   0.59779   0.70472   0.74241
 Alpha virt. eigenvalues --    0.74801   0.79852   0.82495   0.83993   0.84208

 Mulliken charges:
               1
     1  O   -0.480981
     2  H    0.240639
     3  H    0.257360
     4  O   -0.510913
     5  H    0.228940
     6  H    0.264955
 Sum of Mulliken charges =  -0.00000

 Dipole moment (field-independent basis, Debye):
    X=             -1.8209    Y=             -2.0133    Z=              0.0000  Tot=              2.7146
 Quadrupole moment (field-independent basis, Debye-Ang):
   XX=             -9.8321   YY=             -4.2369   ZZ=            -14.7260
   XY=             -2.7492   XZ=              0.0000   YZ=              0.0000

 Normal termination of Gaussian 16 at Sat Aug 27 02:06:41 2022.
