 Gaussian 16, Revision A.03,
 Gaussian 16:  ES64L-G16RevA.03 25-Dec-2016

 ------------------
 #p CCSD(T)/cc-pVTZ
 ------------------

 ------------
 H2O_H2O_3393
 ------------
 Symbolic Z-matrix:
 Charge =  0 Multiplicity = 1

                         Standard orientation:
 ---------------------------------------------------------------------
 Center     Atomic      Atomic             Coordinates (Angstroms)
 Number     Number       Type             X           Y           Z
 ---------------------------------------------------------------------
      1          8           0        0.052827   -2.560351    0.000000
      2          1           0       -0.747742   -3.130083    0.000000
      3          1           0        0.851398   -3.132881    0.000000
      4          8           0        0.052827    2.630680    0.000000
      5          1           0       -0.167171    3.588337    0.000000
      6          1           0       -0.781722    2.111995    0.000000
 ---------------------------------------------------------------------

 SCF Done:  E(RHF) =  -152.107313565     A.U. after   10 cycles
 E2 =    -0.5259268166D+00 EUMP2 =    -0.15263324038132D+03
 CCSD(T)
 CCSD(T)= -0.15266045909D+03

 The electronic state is 1-A'.
 Alpha  occ. eigenvalues --  -20.55536 -20.54913  -1.32833  -1.32208  -0.70240
 Alpha  occ. eigenvalues --   -0.69602  -0.56275  -0.55648  -0.49944  -0.49322
 Alpha virt. eigenvalues --    0.13893   0.14922   0.20164   0.20942   0.54276
 Alpha virt. eigenvalues --    0.54934   0.57233   0.57812   0.67339   0.69305
 Alpha virt. eigenvalues --    0.78938   0.79545   0.80305   0.80788   0.82696

 Mulliken charges:
               1
     1  O   -0.508227
     2  H    0.252091
     3  H    0.256215
     4  O   -0.507769
     5  H    0.250174
     6  H    0.257515
 Sum of Mulliken charges =   0.00000

 Dipole moment (field-independent basis, Debye):
    X=             -1.8084    Y=             -1.2417    Z=              0.0000  Tot=              2.1937
 Quadrupole moment (field-independent basis, Debye-Ang):
   XX=             -9.5589   YY=              3.9900   ZZ=            -14.7122
   XY=             -4.2364   XZ=              0.0000   YZ=              0.0000

 Normal termination of Gaussian 16 at Fri Aug 26 21:57:11 2022.
