 Gaussian 16, Revision A.03,
 Gaussian 16:  ES64L-G16RevA.03 25-Dec-2016

 ------------------
 #p CCSD(T)/cc-pVTZ
 ------------------

 ------------
 H2O_H2O_1085
 ------------
 Symbolic Z-matrix:
 Charge =  0 Multiplicity = 1

                         Standard orientation:
 ---------------------------------------------------------------------
 Center     Atomic      Atomic             Coordinates (Angstroms)
 Number     Number       Type             X           Y           Z
 ---------------------------------------------------------------------
      1          8           0        0.034794   -1.362584    0.000000
      2          1           0       -0.766019   -1.931973    0.000000
      3          1           0        0.833119   -1.935456    0.000000
      4          8           0        0.034794    1.386037    0.000000
      5          1           0        0.323500    2.325268    0.000000
      6          1           0       -0.947303    1.354537    0.000000
 ---------------------------------------------------------------------

 SCF Done:  E(RHF) =  -152.100328340     A.U. after   11 cycles
 E2 =    -0.5280842849D+00 EUMP2 =    -0.15262841262517D+03
 CCSD(T)
 CCSD(T)= -0.15265567516D+03

 The electronic state is 1-A'.
 Alpha  occ. eigenvalues --  -20.54132 -20.53462  -1.31576  -1.30698  -0.68981
 Alpha  occ. eigenvalues --   -0.68176  -0.56101  -0.52439  -0.48768  -0.47658
 Alpha virt. eigenvalues --    0.14162   0.17036   0.20377   0.22560   0.52746
 Alpha virt. eigenvalues --    0.58208   0.58497   0.59911   0.69120   0.76627
 Alpha virt. eigenvalues --    0.76698   0.77412   0.81761   0.83222   0.85840

 Mulliken charges:
               1
     1  O   -0.473541
     2  H    0.230631
     3  H    0.243459
     4  O   -0.464808
     5  H    0.223213
     6  H    0.241046
 Sum of Mulliken charges =  -0.00000

 Dipole moment (field-independent basis, Debye):
    X=             -1.1147    Y=             -0.4505    Z=              0.0000  Tot=              1.2022
 Quadrupole moment (field-independent basis, Debye-Ang):
   XX=             -8.6629   YY=             -1.9467   ZZ=            -14.7174
   XY=             -0.8657   XZ=              0.0000   YZ=              0.0000

 Normal termination of Gaussian 16 at Sat Aug 27 01:58:03 2022.
