 Gaussian 16, Revision A.03,
 Gaussian 16:  ES64L-G16RevA.03 25-Dec-2016

 ------------------
 #p CCSD(T)/cc-pVTZ
 ------------------

 ------------
 H2O_H2O_2041
 ------------
 Symbolic Z-matrix:
 Charge =  0 Multiplicity = 1

                         Standard orientation:
 ---------------------------------------------------------------------
 Center     Atomic      Atomic             Coordinates (Angstroms)
 Number     Number       Type             X           Y           Z
 ---------------------------------------------------------------------
      1          8           0        0.049526   -1.849670    0.000000
      2          1           0       -0.751338   -2.418988    0.000000
      3          1           0        0.847800   -2.422613    0.000000
      4          8           0        0.049526    1.906559    0.000000
      5          1           0       -0.043085    2.884786    0.000000
      6          1           0       -0.845794    1.501704    0.000000
 ---------------------------------------------------------------------

 SCF Done:  E(RHF) =  -152.106787046     A.U. after   10 cycles
 E2 =    -0.5263608544D+00 EUMP2 =    -0.15263314790051D+03
 CCSD(T)
 CCSD(T)= -0.15266034299D+03

 The electronic state is 1-A'.
 Alpha  occ. eigenvalues --  -20.55343 -20.54301  -1.32619  -1.31577  -0.70035
 Alpha  occ. eigenvalues --   -0.68955  -0.56024  -0.54958  -0.49729  -0.48693
 Alpha virt. eigenvalues --    0.13495   0.16084   0.20139   0.22128   0.53683
 Alpha virt. eigenvalues --    0.54698   0.57423   0.58487   0.64516   0.75855
 Alpha virt. eigenvalues --    0.78774   0.78964   0.80494   0.80703   0.84787

 Mulliken charges:
               1
     1  O   -0.498168
     2  H    0.245590
     3  H    0.254515
     4  O   -0.501447
     5  H    0.242749
     6  H    0.256760
 Sum of Mulliken charges =   0.00000

 Dipole moment (field-independent basis, Debye):
    X=             -1.6637    Y=             -1.0479    Z=              0.0000  Tot=              1.9662
 Quadrupole moment (field-independent basis, Debye-Ang):
   XX=             -9.3556   YY=              0.6317   ZZ=            -14.7138
   XY=             -2.5662   XZ=              0.0000   YZ=              0.0000

 Normal termination of Gaussian 16 at Sat Aug 27 08:15:23 2022.
