 Gaussian 16, Revision A.03,
 Gaussian 16:  ES64L-G16RevA.03 25-Dec-2016

 ------------------
 #p CCSD(T)/cc-pVTZ
 ------------------

 ------------
 H2O_H2O_3108
 ------------
 Symbolic Z-matrix:
 Charge =  0 Multiplicity = 1

                         Standard orientation:
 ---------------------------------------------------------------------
 Center     Atomic      Atomic             Coordinates (Angstroms)
 Number     Number       Type             X           Y           Z
 ---------------------------------------------------------------------
      1          8           0        0.028564   -2.444011    0.000000
      2          1           0       -0.771579   -3.014341    0.000000
      3          1           0        0.827562   -3.015945    0.000000
      4          8           0        0.028564    2.459257    0.000000
      5          1           0        0.436345    3.353249    0.000000
      6          1           0       -0.949355    2.555067    0.000000
 ---------------------------------------------------------------------

 SCF Done:  E(RHF) =  -152.106326863     A.U. after   10 cycles
 E2 =    -0.5260172373D+00 EUMP2 =    -0.15263234410035D+03
 CCSD(T)
 CCSD(T)= -0.15265958431D+03

 The electronic state is 1-A'.
 Alpha  occ. eigenvalues --  -20.55029 -20.54882  -1.32323  -1.32173  -0.69732
 Alpha  occ. eigenvalues --   -0.69578  -0.55719  -0.55567  -0.49426  -0.49278
 Alpha virt. eigenvalues --    0.14315   0.14929   0.20511   0.20799   0.54728
 Alpha virt. eigenvalues --    0.55074   0.57651   0.57823   0.67236   0.70087
 Alpha virt. eigenvalues --    0.79445   0.79600   0.80863   0.81112   0.82694

 Mulliken charges:
               1
     1  O   -0.502513
     2  H    0.249941
     3  H    0.252586
     4  O   -0.502247
     5  H    0.249312
     6  H    0.252923
 Sum of Mulliken charges =  -0.00000

 Dipole moment (field-independent basis, Debye):
    X=             -0.9755    Y=             -0.2694    Z=              0.0000  Tot=              1.0120
 Quadrupole moment (field-independent basis, Debye-Ang):
   XX=             -8.3250   YY=              6.7310   ZZ=            -14.7103
   XY=             -1.6569   XZ=              0.0000   YZ=              0.0000

 Normal termination of Gaussian 16 at Fri Aug 26 19:30:02 2022.
