 Gaussian 16, Revision A.03,
 Gaussian 16:  ES64L-G16RevA.03 25-Dec-2016

 ------------------
 #p CCSD(T)/cc-pVTZ
 ------------------

 -----------
 H2O_H2O_268
 -----------
 Symbolic Z-matrix:
 Charge =  0 Multiplicity = 1

                         Standard orientation:
 ---------------------------------------------------------------------
 Center     Atomic      Atomic             Coordinates (Angstroms)
 Number     Number       Type             X           Y           Z
 ---------------------------------------------------------------------
      1          8           0        0.052937   -0.898534    0.000000
      2          1           0       -0.749404   -1.465769    0.000000
      3          1           0        0.849719   -1.473550    0.000000
      4          8           0        0.052937    0.968534    0.000000
      5          1           0       -0.164077    1.926871    0.000000
      6          1           0       -0.783224    0.452451    0.000000
 ---------------------------------------------------------------------

 SCF Done:  E(RHF) =  -152.021828206     A.U. after   11 cycles
 E2 =    -0.5402180501D+00 EUMP2 =    -0.15256204625634D+03
 CCSD(T)
 CCSD(T)= -0.15258824781D+03

 The electronic state is 1-A'.
 Alpha  occ. eigenvalues --  -20.54416 -20.50675  -1.36008  -1.27557  -0.73503
 Alpha  occ. eigenvalues --   -0.69762  -0.54836  -0.52102  -0.46187  -0.44445
 Alpha virt. eigenvalues --    0.13597   0.18880   0.19574   0.24876   0.51370
 Alpha virt. eigenvalues --    0.56048   0.60669   0.65177   0.72728   0.76145
 Alpha virt. eigenvalues --    0.80466   0.81172   0.84019   0.84489   0.88323

 Mulliken charges:
               1
     1  O   -0.380352
     2  H    0.184061
     3  H    0.220865
     4  O   -0.428353
     5  H    0.156591
     6  H    0.247189
 Sum of Mulliken charges =  -0.00000

 Dipole moment (field-independent basis, Debye):
    X=             -1.4742    Y=             -1.5436    Z=              0.0000  Tot=              2.1345
 Quadrupole moment (field-independent basis, Debye-Ang):
   XX=             -9.6614   YY=             -7.0868   ZZ=            -14.6533
   XY=             -1.2905   XZ=              0.0000   YZ=              0.0000

 Normal termination of Gaussian 16 at Fri Aug 26 14:43:01 2022.
