 Gaussian 16, Revision A.03,
 Gaussian 16:  ES64L-G16RevA.03 25-Dec-2016

 ------------------
 #p CCSD(T)/cc-pVTZ
 ------------------

 ------------
 H2O_H2O_1661
 ------------
 Symbolic Z-matrix:
 Charge =  0 Multiplicity = 1

                         Standard orientation:
 ---------------------------------------------------------------------
 Center     Atomic      Atomic             Coordinates (Angstroms)
 Number     Number       Type             X           Y           Z
 ---------------------------------------------------------------------
      1          8           0        0.037685   -1.665812    0.000000
      2          1           0       -0.762987   -2.235400    0.000000
      3          1           0        0.836152   -2.238485    0.000000
      4          8           0        0.037685    1.694013    0.000000
      5          1           0        0.264106    2.650171    0.000000
      6          1           0       -0.940226    1.598105    0.000000
 ---------------------------------------------------------------------

 SCF Done:  E(RHF) =  -152.104854106     A.U. after   10 cycles
 E2 =    -0.5267887677D+00 EUMP2 =    -0.15263164287352D+03
 CCSD(T)
 CCSD(T)= -0.15265886945D+03

 The electronic state is 1-A'.
 Alpha  occ. eigenvalues --  -20.54716 -20.54105  -1.31999  -1.31367  -0.69423
 Alpha  occ. eigenvalues --   -0.68766  -0.55585  -0.54364  -0.49111  -0.48457
 Alpha virt. eigenvalues --    0.13921   0.16357   0.20355   0.21969   0.53176
 Alpha virt. eigenvalues --    0.56083   0.57884   0.58620   0.63884   0.77018
 Alpha virt. eigenvalues --    0.78424   0.78642   0.79616   0.81495   0.85485

 Mulliken charges:
               1
     1  O   -0.486581
     2  H    0.239415
     3  H    0.248532
     4  O   -0.487072
     5  H    0.236795
     6  H    0.248911
 Sum of Mulliken charges =  -0.00000

 Dipole moment (field-independent basis, Debye):
    X=             -1.2506    Y=             -0.5273    Z=              0.0000  Tot=              1.3573
 Quadrupole moment (field-independent basis, Debye-Ang):
   XX=             -8.7367   YY=              0.3958   ZZ=            -14.7118
   XY=             -1.3657   XZ=              0.0000   YZ=              0.0000

 Normal termination of Gaussian 16 at Sat Aug 27 06:04:53 2022.
