 Gaussian 16, Revision A.03,
 Gaussian 16:  ES64L-G16RevA.03 25-Dec-2016

 ------------------
 #p CCSD(T)/cc-pVTZ
 ------------------

 -----------
 H2O_H2O_662
 -----------
 Symbolic Z-matrix:
 Charge =  0 Multiplicity = 1

                         Standard orientation:
 ---------------------------------------------------------------------
 Center     Atomic      Atomic             Coordinates (Angstroms)
 Number     Number       Type             X           Y           Z
 ---------------------------------------------------------------------
      1          8           0        0.040436   -1.131252    0.000000
      2          1           0       -0.760861   -1.699960    0.000000
      3          1           0        0.838273   -1.704803    0.000000
      4          8           0        0.040436    1.164463    0.000000
      5          1           0        0.204901    2.133204    0.000000
      6          1           0       -0.929283    1.005869    0.000000
 ---------------------------------------------------------------------

 SCF Done:  E(RHF) =  -152.087274677     A.U. after   11 cycles
 E2 =    -0.5307989289D+00 EUMP2 =    -0.15261807360581D+03
 CCSD(T)
 CCSD(T)= -0.15264522604D+03

 The electronic state is 1-A'.
 Alpha  occ. eigenvalues --  -20.53765 -20.52617  -1.31963  -1.29722  -0.69235
 Alpha  occ. eigenvalues --   -0.67715  -0.57290  -0.49758  -0.49180  -0.46513
 Alpha virt. eigenvalues --    0.14159   0.17666   0.20239   0.23316   0.53091
 Alpha virt. eigenvalues --    0.57911   0.58204   0.61934   0.70897   0.75861
 Alpha virt. eigenvalues --    0.78266   0.80757   0.83508   0.85712   0.87625

 Mulliken charges:
               1
     1  O   -0.461741
     2  H    0.221920
     3  H    0.240372
     4  O   -0.442043
     5  H    0.200078
     6  H    0.241414
 Sum of Mulliken charges =  -0.00000

 Dipole moment (field-independent basis, Debye):
    X=             -1.2307    Y=             -0.6572    Z=              0.0000  Tot=              1.3951
 Quadrupole moment (field-independent basis, Debye-Ang):
   XX=             -8.9800   YY=             -4.1620   ZZ=            -14.7277
   XY=             -0.8440   XZ=              0.0000   YZ=              0.0000

 Normal termination of Gaussian 16 at Fri Aug 26 18:48:05 2022.
