 Gaussian 16, Revision A.03,
 Gaussian 16:  ES64L-G16RevA.03 25-Dec-2016

 ------------------
 #p CCSD(T)/cc-pVTZ
 ------------------

 ------------
 H2O_H2O_1855
 ------------
 Symbolic Z-matrix:
 Charge =  0 Multiplicity = 1

                         Standard orientation:
 ---------------------------------------------------------------------
 Center     Atomic      Atomic             Coordinates (Angstroms)
 Number     Number       Type             X           Y           Z
 ---------------------------------------------------------------------
      1          8           0        0.018361   -1.784221    0.000000
      2          1           0       -0.781715   -2.354646    0.000000
      3          1           0        0.817427   -2.356060    0.000000
      4          8           0        0.018361    1.790251    0.000000
      5          1           0        0.592620    2.587579    0.000000
      6          1           0       -0.922110    2.074891    0.000000
 ---------------------------------------------------------------------

 SCF Done:  E(RHF) =  -152.104432927     A.U. after   10 cycles
 E2 =    -0.5265897138D+00 EUMP2 =    -0.15263102264116D+03
 CCSD(T)
 CCSD(T)= -0.15265827114D+03

 The electronic state is 1-A'.
 Alpha  occ. eigenvalues --  -20.54428 -20.54314  -1.31711  -1.31585  -0.69134
 Alpha  occ. eigenvalues --   -0.69003  -0.55351  -0.54485  -0.48831  -0.48654
 Alpha virt. eigenvalues --    0.14155   0.16050   0.20565   0.21432   0.53359
 Alpha virt. eigenvalues --    0.56848   0.58006   0.58375   0.61723   0.75974
 Alpha virt. eigenvalues --    0.79072   0.79501   0.80563   0.81056   0.83518

 Mulliken charges:
               1
     1  O   -0.487398
     2  H    0.241879
     3  H    0.245724
     4  O   -0.487391
     5  H    0.241331
     6  H    0.245854
 Sum of Mulliken charges =  -0.00000

 Dipole moment (field-independent basis, Debye):
    X=             -0.6145    Y=             -0.1116    Z=              0.0000  Tot=              0.6245
 Quadrupole moment (field-independent basis, Debye-Ang):
   XX=             -8.0614   YY=              1.9112   ZZ=            -14.7093
   XY=             -0.6041   XZ=              0.0000   YZ=              0.0000

 Normal termination of Gaussian 16 at Sat Aug 27 07:11:35 2022.
