 Gaussian 16, Revision A.03,
 Gaussian 16:  ES64L-G16RevA.03 25-Dec-2016

 ------------------
 #p CCSD(T)/cc-pVTZ
 ------------------

 ------------
 H2O_H2O_3404
 ------------
 Symbolic Z-matrix:
 Charge =  0 Multiplicity = 1

                         Standard orientation:
 ---------------------------------------------------------------------
 Center     Atomic      Atomic             Coordinates (Angstroms)
 Number     Number       Type             X           Y           Z
 ---------------------------------------------------------------------
      1          8           0        0.014783   -2.609736    0.000000
      2          1           0       -0.785066   -3.180479    0.000000
      3          1           0        0.814076   -3.181258    0.000000
      4          8           0        0.014783    2.613614    0.000000
      5          1           0        0.639659    3.371926    0.000000
      6          1           0       -0.905196    2.958789    0.000000
 ---------------------------------------------------------------------

 SCF Done:  E(RHF) =  -152.106361185     A.U. after   10 cycles
 E2 =    -0.5259946103D+00 EUMP2 =    -0.15263235579568D+03
 CCSD(T)
 CCSD(T)= -0.15265959677D+03

 The electronic state is 1-A'.
 Alpha  occ. eigenvalues --  -20.55009 -20.54976  -1.32303  -1.32270  -0.69712
 Alpha  occ. eigenvalues --   -0.69678  -0.55701  -0.55666  -0.49407  -0.49374
 Alpha virt. eigenvalues --    0.14450   0.14741   0.20563   0.20674   0.54812
 Alpha virt. eigenvalues --    0.54943   0.57676   0.57735   0.67916   0.69265
 Alpha virt. eigenvalues --    0.79468   0.79505   0.80902   0.80980   0.82770

 Mulliken charges:
               1
     1  O   -0.502711
     2  H    0.250783
     3  H    0.251928
     4  O   -0.502652
     5  H    0.250563
     6  H    0.252088
 Sum of Mulliken charges =  -0.00000

 Dipole moment (field-independent basis, Debye):
    X=             -0.5058    Y=             -0.0682    Z=              0.0000  Tot=              0.5104
 Quadrupole moment (field-independent basis, Debye-Ang):
   XX=             -7.9484   YY=              8.6168   ZZ=            -14.7101
   XY=             -0.8845   XZ=              0.0000   YZ=              0.0000

 Normal termination of Gaussian 16 at Fri Aug 26 22:03:28 2022.
