 Gaussian 16, Revision A.03,
 Gaussian 16:  ES64L-G16RevA.03 25-Dec-2016

 ------------------
 #p CCSD(T)/cc-pVTZ
 ------------------

 ------------
 H2O_H2O_4071
 ------------
 Symbolic Z-matrix:
 Charge =  0 Multiplicity = 1

                         Standard orientation:
 ---------------------------------------------------------------------
 Center     Atomic      Atomic             Coordinates (Angstroms)
 Number     Number       Type             X           Y           Z
 ---------------------------------------------------------------------
      1          8           0        0.056091   -2.907703    0.000000
      2          1           0       -0.744412   -3.477529    0.000000
      3          1           0        0.854728   -3.480140    0.000000
      4          8           0        0.056091    2.999462    0.000000
      5          1           0       -0.346615    3.895751    0.000000
      6          1           0       -0.661154    2.327846    0.000000
 ---------------------------------------------------------------------

 SCF Done:  E(RHF) =  -152.107563131     A.U. after   10 cycles
 E2 =    -0.5258749699D+00 EUMP2 =    -0.15263343810113D+03
 CCSD(T)
 CCSD(T)= -0.15266065419D+03

 The electronic state is 1-A'.
 Alpha  occ. eigenvalues --  -20.55682 -20.55068  -1.32981  -1.32367  -0.70387
 Alpha  occ. eigenvalues --   -0.69764  -0.56436  -0.55817  -0.50094  -0.49482
 Alpha virt. eigenvalues --    0.13949   0.14657   0.20083   0.20760   0.54168
 Alpha virt. eigenvalues --    0.54805   0.57104   0.57711   0.67624   0.68492
 Alpha virt. eigenvalues --    0.78787   0.79388   0.80212   0.80788   0.82270

 Mulliken charges:
               1
     1  O   -0.509821
     2  H    0.253455
     3  H    0.256377
     4  O   -0.509400
     5  H    0.251762
     6  H    0.257627
 Sum of Mulliken charges =  -0.00000

 Dipole moment (field-independent basis, Debye):
    X=             -1.9260    Y=             -1.6083    Z=              0.0000  Tot=              2.5092
 Quadrupole moment (field-independent basis, Debye-Ang):
   XX=             -9.7838   YY=              3.9570   ZZ=            -14.7125
   XY=             -5.5592   XZ=              0.0000   YZ=              0.0000

 Normal termination of Gaussian 16 at Sat Aug 27 05:13:23 2022.
