 Gaussian 16, Revision A.03,
 Gaussian 16:  ES64L-G16RevA.03 25-Dec-2016

 ------------------
 #p CCSD(T)/cc-pVTZ
 ------------------

 ------------
 H2O_H2O_3933
 ------------
 Symbolic Z-matrix:
 Charge =  0 Multiplicity = 1

                         Standard orientation:
 ---------------------------------------------------------------------
 Center     Atomic      Atomic             Coordinates (Angstroms)
 Number     Number       Type             X           Y           Z
 ---------------------------------------------------------------------
      1          8           0        0.028563   -2.882772    0.000000
      2          1           0       -0.771493   -3.453223    0.000000
      3          1           0        0.827648   -3.454584    0.000000
      4          8           0        0.028563    2.898026    0.000000
      5          1           0        0.436208    3.792081    0.000000
      6          1           0       -0.949371    2.993687    0.000000
 ---------------------------------------------------------------------

 SCF Done:  E(RHF) =  -152.106763826     A.U. after   10 cycles
 E2 =    -0.5259442068D+00 EUMP2 =    -0.15263270803321D+03
 CCSD(T)
 CCSD(T)= -0.15265994136D+03

 The electronic state is 1-A'.
 Alpha  occ. eigenvalues --  -20.55196 -20.55091  -1.32492  -1.32386  -0.69900
 Alpha  occ. eigenvalues --   -0.69791  -0.55909  -0.55803  -0.49599  -0.49493
 Alpha virt. eigenvalues --    0.14397   0.14561   0.20461   0.20586   0.54665
 Alpha virt. eigenvalues --    0.54789   0.57530   0.57639   0.68216   0.68554
 Alpha virt. eigenvalues --    0.79280   0.79384   0.80724   0.80841   0.82658

 Mulliken charges:
               1
     1  O   -0.505081
     2  H    0.251707
     3  H    0.253374
     4  O   -0.504957
     5  H    0.251277
     6  H    0.253679
 Sum of Mulliken charges =  -0.00000

 Dipole moment (field-independent basis, Debye):
    X=             -0.9798    Y=             -0.2671    Z=              0.0000  Tot=              1.0156
 Quadrupole moment (field-independent basis, Debye-Ang):
   XX=             -8.3185   YY=             10.0339   ZZ=            -14.7107
   XY=             -2.0812   XZ=              0.0000   YZ=              0.0000

 Normal termination of Gaussian 16 at Sat Aug 27 04:24:03 2022.
