 Gaussian 16, Revision A.03,
 Gaussian 16:  ES64L-G16RevA.03 25-Dec-2016

 ------------------
 #p CCSD(T)/cc-pVTZ
 ------------------

 ------------
 H2O_H2O_2964
 ------------
 Symbolic Z-matrix:
 Charge =  0 Multiplicity = 1

                         Standard orientation:
 ---------------------------------------------------------------------
 Center     Atomic      Atomic             Coordinates (Angstroms)
 Number     Number       Type             X           Y           Z
 ---------------------------------------------------------------------
      1          8           0        0.045348   -2.348325    0.000000
      2          1           0       -0.755162   -2.918141    0.000000
      3          1           0        0.843978   -2.920772    0.000000
      4          8           0        0.045348    2.392866    0.000000
      5          1           0        0.080602    3.374835    0.000000
      6          1           0       -0.894981    2.107754    0.000000
 ---------------------------------------------------------------------

 SCF Done:  E(RHF) =  -152.106775371     A.U. after   10 cycles
 E2 =    -0.5260050042D+00 EUMP2 =    -0.15263278037570D+03
 CCSD(T)
 CCSD(T)= -0.15266000800D+03

 The electronic state is 1-A'.
 Alpha  occ. eigenvalues --  -20.55275 -20.54801  -1.32569  -1.32091  -0.69978
 Alpha  occ. eigenvalues --   -0.69486  -0.55984  -0.55507  -0.49676  -0.49201
 Alpha virt. eigenvalues --    0.13956   0.15134   0.20303   0.21026   0.54405
 Alpha virt. eigenvalues --    0.55044   0.57455   0.57886   0.66779   0.70731
 Alpha virt. eigenvalues --    0.79200   0.79671   0.80498   0.81252   0.82929

 Mulliken charges:
               1
     1  O   -0.504911
     2  H    0.250212
     3  H    0.254826
     4  O   -0.504496
     5  H    0.248623
     6  H    0.255746
 Sum of Mulliken charges =  -0.00000

 Dipole moment (field-independent basis, Debye):
    X=             -1.5471    Y=             -0.7911    Z=              0.0000  Tot=              1.7376
 Quadrupole moment (field-independent basis, Debye-Ang):
   XX=             -9.1002   YY=              4.4380   ZZ=            -14.7114
   XY=             -2.9241   XZ=              0.0000   YZ=              0.0000

 Normal termination of Gaussian 16 at Fri Aug 26 17:51:57 2022.
