 Gaussian 16, Revision A.03,
 Gaussian 16:  ES64L-G16RevA.03 25-Dec-2016

 ------------------
 #p CCSD(T)/cc-pVTZ
 ------------------

 ------------
 H2O_H2O_1967
 ------------
 Symbolic Z-matrix:
 Charge =  0 Multiplicity = 1

                         Standard orientation:
 ---------------------------------------------------------------------
 Center     Atomic      Atomic             Coordinates (Angstroms)
 Number     Number       Type             X           Y           Z
 ---------------------------------------------------------------------
      1          8           0        0.051300   -1.806214    0.000000
      2          1           0       -0.749639   -2.375426    0.000000
      3          1           0        0.849498   -2.379262    0.000000
      4          8           0        0.051300    1.869673    0.000000
      5          1           0       -0.104965    2.839770    0.000000
      6          1           0       -0.815686    1.407243    0.000000
 ---------------------------------------------------------------------

 SCF Done:  E(RHF) =  -152.107033417     A.U. after   10 cycles
 E2 =    -0.5264139775D+00 EUMP2 =    -0.15263344739418D+03
 CCSD(T)
 CCSD(T)= -0.15266063250D+03

 The electronic state is 1-A'.
 Alpha  occ. eigenvalues --  -20.55452 -20.54222  -1.32727  -1.31498  -0.70142
 Alpha  occ. eigenvalues --   -0.68872  -0.56136  -0.54891  -0.49839  -0.48616
 Alpha virt. eigenvalues --    0.13429   0.16200   0.20076   0.22412   0.53899
 Alpha virt. eigenvalues --    0.54505   0.57332   0.58544   0.64671   0.75936
 Alpha virt. eigenvalues --    0.78573   0.78721   0.80102   0.80628   0.84904

 Mulliken charges:
               1
     1  O   -0.497621
     2  H    0.245309
     3  H    0.254913
     4  O   -0.502400
     5  H    0.242126
     6  H    0.257673
 Sum of Mulliken charges =  -0.00000

 Dipole moment (field-independent basis, Debye):
    X=             -1.7195    Y=             -1.1754    Z=              0.0000  Tot=              2.0829
 Quadrupole moment (field-independent basis, Debye-Ang):
   XX=             -9.4667   YY=              0.0695   ZZ=            -14.7148
   XY=             -2.6953   XZ=              0.0000   YZ=              0.0000

 Normal termination of Gaussian 16 at Sat Aug 27 07:49:46 2022.
