 Gaussian 16, Revision A.03,
 Gaussian 16:  ES64L-G16RevA.03 25-Dec-2016

 ------------------
 #p CCSD(T)/cc-pVTZ
 ------------------

 ------------
 H2O_H2O_1405
 ------------
 Symbolic Z-matrix:
 Charge =  0 Multiplicity = 1

                         Standard orientation:
 ---------------------------------------------------------------------
 Center     Atomic      Atomic             Coordinates (Angstroms)
 Number     Number       Type             X           Y           Z
 ---------------------------------------------------------------------
      1          8           0        0.018361   -1.544898    0.000000
      2          1           0       -0.781792   -2.115213    0.000000
      3          1           0        0.817349   -2.116846    0.000000
      4          8           0        0.018361    1.550922    0.000000
      5          1           0        0.592730    2.348172    0.000000
      6          1           0       -0.922070    1.835690    0.000000
 ---------------------------------------------------------------------

 SCF Done:  E(RHF) =  -152.102344438     A.U. after   11 cycles
 E2 =    -0.5272119150D+00 EUMP2 =    -0.15262955635249D+03
 CCSD(T)
 CCSD(T)= -0.15265683582D+03

 The electronic state is 1-A'.
 Alpha  occ. eigenvalues --  -20.54057 -20.53917  -1.31398  -1.31164  -0.68817
 Alpha  occ. eigenvalues --   -0.68606  -0.55553  -0.53366  -0.48574  -0.48155
 Alpha virt. eigenvalues --    0.14290   0.16597   0.20534   0.21843   0.52195
 Alpha virt. eigenvalues --    0.58259   0.58504   0.59057   0.64991   0.76600
 Alpha virt. eigenvalues --    0.77971   0.78354   0.79253   0.82408   0.85978

 Mulliken charges:
               1
     1  O   -0.476210
     2  H    0.235354
     3  H    0.241052
     4  O   -0.474780
     5  H    0.234492
     6  H    0.240092
 Sum of Mulliken charges =  -0.00000

 Dipole moment (field-independent basis, Debye):
    X=             -0.6033    Y=             -0.1135    Z=              0.0000  Tot=              0.6139
 Quadrupole moment (field-independent basis, Debye-Ang):
   XX=             -8.0952   YY=             -0.1181   ZZ=            -14.7102
   XY=             -0.4606   XZ=              0.0000   YZ=              0.0000

 Normal termination of Gaussian 16 at Sat Aug 27 04:33:11 2022.
