 Gaussian 16, Revision A.03,
 Gaussian 16:  ES64L-G16RevA.03 25-Dec-2016

 ------------------
 #p CCSD(T)/cc-pVTZ
 ------------------

 ------------
 H2O_H2O_1323
 ------------
 Symbolic Z-matrix:
 Charge =  0 Multiplicity = 1

                         Standard orientation:
 ---------------------------------------------------------------------
 Center     Atomic      Atomic             Coordinates (Angstroms)
 Number     Number       Type             X           Y           Z
 ---------------------------------------------------------------------
      1          8           0        0.057166   -1.437209    0.000000
      2          1           0       -0.744280   -2.005706    0.000000
      3          1           0        0.854853   -2.010970    0.000000
      4          8           0        0.057166    1.543589    0.000000
      5          1           0       -0.457697    2.380502    0.000000
      6          1           0       -0.567538    0.785136    0.000000
 ---------------------------------------------------------------------

 SCF Done:  E(RHF) =  -152.109153383     A.U. after   10 cycles
 E2 =    -0.5276002364D+00 EUMP2 =    -0.15263675361907D+03
 CCSD(T)
 CCSD(T)= -0.15266381672D+03

 The electronic state is 1-A'.
 Alpha  occ. eigenvalues --  -20.56622 -20.53086  -1.33963  -1.30429  -0.71350
 Alpha  occ. eigenvalues --   -0.68051  -0.57256  -0.53937  -0.51073  -0.47557
 Alpha virt. eigenvalues --    0.12970   0.17400   0.19541   0.25741   0.51887
 Alpha virt. eigenvalues --    0.56014   0.56780   0.58983   0.69153   0.74568
 Alpha virt. eigenvalues --    0.75015   0.77955   0.82010   0.82581   0.83995

 Mulliken charges:
               1
     1  O   -0.490736
     2  H    0.245008
     3  H    0.260338
     4  O   -0.516366
     5  H    0.235651
     6  H    0.266105
 Sum of Mulliken charges =  -0.00000

 Dipole moment (field-independent basis, Debye):
    X=             -1.8653    Y=             -2.1173    Z=              0.0000  Tot=              2.8218
 Quadrupole moment (field-independent basis, Debye-Ang):
   XX=             -9.8531   YY=             -3.9322   ZZ=            -14.7273
   XY=             -3.1213   XZ=              0.0000   YZ=              0.0000

 Normal termination of Gaussian 16 at Sat Aug 27 03:54:54 2022.
