 Gaussian 16, Revision A.03,
 Gaussian 16:  ES64L-G16RevA.03 25-Dec-2016

 ------------------
 #p CCSD(T)/cc-pVTZ
 ------------------

 ------------
 H2O_H2O_1314
 ------------
 Symbolic Z-matrix:
 Charge =  0 Multiplicity = 1

                         Standard orientation:
 ---------------------------------------------------------------------
 Center     Atomic      Atomic             Coordinates (Angstroms)
 Number     Number       Type             X           Y           Z
 ---------------------------------------------------------------------
      1          8           0        0.045369   -1.470841    0.000000
      2          1           0       -0.755691   -2.039882    0.000000
      3          1           0        0.843445   -2.044060    0.000000
      4          8           0        0.045369    1.515294    0.000000
      5          1           0        0.081574    2.497229    0.000000
      6          1           0       -0.895234    1.231091    0.000000
 ---------------------------------------------------------------------

 SCF Done:  E(RHF) =  -152.104292534     A.U. after   10 cycles
 E2 =    -0.5274121238D+00 EUMP2 =    -0.15263170465786D+03
 CCSD(T)
 CCSD(T)= -0.15265891513D+03

 The electronic state is 1-A'.
 Alpha  occ. eigenvalues --  -20.54891 -20.53677  -1.32214  -1.30925  -0.69639
 Alpha  occ. eigenvalues --   -0.68349  -0.55903  -0.53776  -0.49341  -0.48002
 Alpha virt. eigenvalues --    0.13834   0.16840   0.20170   0.22816   0.53842
 Alpha virt. eigenvalues --    0.56977   0.57712   0.58438   0.66968   0.75993
 Alpha virt. eigenvalues --    0.77037   0.77100   0.80182   0.82432   0.85310

 Mulliken charges:
               1
     1  O   -0.481281
     2  H    0.235666
     3  H    0.249168
     4  O   -0.481842
     5  H    0.229215
     6  H    0.249075
 Sum of Mulliken charges =  -0.00000

 Dipole moment (field-independent basis, Debye):
    X=             -1.4766    Y=             -0.8510    Z=              0.0000  Tot=              1.7042
 Quadrupole moment (field-independent basis, Debye-Ang):
   XX=             -9.1473   YY=             -1.4918   ZZ=            -14.7169
   XY=             -1.5972   XZ=              0.0000   YZ=              0.0000

 Normal termination of Gaussian 16 at Sat Aug 27 03:50:36 2022.
