 Gaussian 16, Revision A.03,
 Gaussian 16:  ES64L-G16RevA.03 25-Dec-2016

 ------------------
 #p CCSD(T)/cc-pVTZ
 ------------------

 ------------
 H2O_H2O_1428
 ------------
 Symbolic Z-matrix:
 Charge =  0 Multiplicity = 1

                         Standard orientation:
 ---------------------------------------------------------------------
 Center     Atomic      Atomic             Coordinates (Angstroms)
 Number     Number       Type             X           Y           Z
 ---------------------------------------------------------------------
      1          8           0        0.011143   -1.560281    0.000000
      2          1           0       -0.788779   -2.130922    0.000000
      3          1           0        0.810363   -2.131904    0.000000
      4          8           0        0.011143    1.562462    0.000000
      5          1           0        0.684368    2.278195    0.000000
      6          1           0       -0.884239    1.967181    0.000000
 ---------------------------------------------------------------------

 SCF Done:  E(RHF) =  -152.102274888     A.U. after   10 cycles
 E2 =    -0.5271674383D+00 EUMP2 =    -0.15262944232617D+03
 CCSD(T)
 CCSD(T)= -0.15265672650D+03

 The electronic state is 1-A'.
 Alpha  occ. eigenvalues --  -20.53999 -20.53949  -1.31355  -1.31181  -0.68771
 Alpha  occ. eigenvalues --   -0.68630  -0.55509  -0.53373  -0.48537  -0.48165
 Alpha virt. eigenvalues --    0.14336   0.16562   0.20563   0.21764   0.52119
 Alpha virt. eigenvalues --    0.58242   0.58578   0.59213   0.64385   0.76299
 Alpha virt. eigenvalues --    0.78090   0.78201   0.79427   0.82348   0.86029

 Mulliken charges:
               1
     1  O   -0.475735
     2  H    0.236202
     3  H    0.239604
     4  O   -0.475227
     5  H    0.236012
     6  H    0.239144
 Sum of Mulliken charges =  -0.00000

 Dipole moment (field-independent basis, Debye):
    X=             -0.3668    Y=             -0.0410    Z=              0.0000  Tot=              0.3691
 Quadrupole moment (field-independent basis, Debye-Ang):
   XX=             -7.9627   YY=              0.0736   ZZ=            -14.7096
   XY=             -0.2713   XZ=              0.0000   YZ=              0.0000

 Normal termination of Gaussian 16 at Sat Aug 27 04:42:30 2022.
