 Gaussian 16, Revision A.03,
 Gaussian 16:  ES64L-G16RevA.03 25-Dec-2016

 ------------------
 #p CCSD(T)/cc-pVTZ
 ------------------

 -----------
 H2O_H2O_617
 -----------
 Symbolic Z-matrix:
 Charge =  0 Multiplicity = 1

                         Standard orientation:
 ---------------------------------------------------------------------
 Center     Atomic      Atomic             Coordinates (Angstroms)
 Number     Number       Type             X           Y           Z
 ---------------------------------------------------------------------
      1          8           0        0.051348   -1.088317    0.000000
      2          1           0       -0.750465   -1.656296    0.000000
      3          1           0        0.848664   -1.662593    0.000000
      4          8           0        0.051348    1.151618    0.000000
      5          1           0       -0.103424    2.121954    0.000000
      6          1           0       -0.816348    0.690522    0.000000
 ---------------------------------------------------------------------

 SCF Done:  E(RHF) =  -152.085500241     A.U. after   11 cycles
 E2 =    -0.5318829540D+00 EUMP2 =    -0.15261738319454D+03
 CCSD(T)
 CCSD(T)= -0.15264438993D+03

 The electronic state is 1-A'.
 Alpha  occ. eigenvalues --  -20.54808 -20.52131  -1.33219  -1.29327  -0.70574
 Alpha  occ. eigenvalues --   -0.68223  -0.56086  -0.50923  -0.50246  -0.46242
 Alpha virt. eigenvalues --    0.13700   0.18047   0.19861   0.24360   0.52264
 Alpha virt. eigenvalues --    0.57096   0.59629   0.61820   0.71584   0.74816
 Alpha virt. eigenvalues --    0.78859   0.82975   0.83519   0.84570   0.87708

 Mulliken charges:
               1
     1  O   -0.448329
     2  H    0.219144
     3  H    0.239707
     4  O   -0.456593
     5  H    0.197425
     6  H    0.248646
 Sum of Mulliken charges =  -0.00000

 Dipole moment (field-independent basis, Debye):
    X=             -1.5497    Y=             -1.2938    Z=              0.0000  Tot=              2.0188
 Quadrupole moment (field-independent basis, Debye-Ang):
   XX=             -9.5422   YY=             -4.9257   ZZ=            -14.7167
   XY=             -1.4910   XZ=              0.0000   YZ=              0.0000

 Normal termination of Gaussian 16 at Fri Aug 26 18:16:34 2022.
