 Gaussian 16, Revision A.03,
 Gaussian 16:  ES64L-G16RevA.03 25-Dec-2016

 ------------------
 #p CCSD(T)/cc-pVTZ
 ------------------

 ------------
 H2O_H2O_1874
 ------------
 Symbolic Z-matrix:
 Charge =  0 Multiplicity = 1

                         Standard orientation:
 ---------------------------------------------------------------------
 Center     Atomic      Atomic             Coordinates (Angstroms)
 Number     Number       Type             X           Y           Z
 ---------------------------------------------------------------------
      1          8           0        0.057271   -1.725631    0.000000
      2          1           0       -0.743873   -2.294555    0.000000
      3          1           0        0.855263   -2.298966    0.000000
      4          8           0        0.057271    1.839542    0.000000
      5          1           0       -0.511654    2.640686    0.000000
      6          1           0       -0.516065    1.041549    0.000000
 ---------------------------------------------------------------------

 SCF Done:  E(RHF) =  -152.109713285     A.U. after   10 cycles
 E2 =    -0.5264826641D+00 EUMP2 =    -0.15263619594905D+03
 CCSD(T)
 CCSD(T)= -0.15266331174D+03

 The electronic state is 1-A'.
 Alpha  occ. eigenvalues --  -20.56430 -20.53874  -1.33694  -1.31187  -0.71094
 Alpha  occ. eigenvalues --   -0.68566  -0.57199  -0.54673  -0.50819  -0.48323
 Alpha virt. eigenvalues --    0.12866   0.16631   0.19640   0.24568   0.52938
 Alpha virt. eigenvalues --    0.55934   0.56442   0.58083   0.67292   0.74377
 Alpha virt. eigenvalues --    0.77319   0.78013   0.79661   0.80790   0.84153

 Mulliken charges:
               1
     1  O   -0.500651
     2  H    0.249250
     3  H    0.259320
     4  O   -0.517141
     5  H    0.243952
     6  H    0.265271
 Sum of Mulliken charges =  -0.00000

 Dipole moment (field-independent basis, Debye):
    X=             -1.9177    Y=             -2.1548    Z=              0.0000  Tot=              2.8846
 Quadrupole moment (field-independent basis, Debye-Ang):
   XX=             -9.8600   YY=             -3.0063   ZZ=            -14.7218
   XY=             -3.8099   XZ=              0.0000   YZ=              0.0000

 Normal termination of Gaussian 16 at Sat Aug 27 07:17:54 2022.
