 Gaussian 16, Revision A.03,
 Gaussian 16:  ES64L-G16RevA.03 25-Dec-2016

 ------------------
 #p CCSD(T)/cc-pVTZ
 ------------------

 ------------
 H2O_H2O_1050
 ------------
 Symbolic Z-matrix:
 Charge =  0 Multiplicity = 1

                         Standard orientation:
 ---------------------------------------------------------------------
 Center     Atomic      Atomic             Coordinates (Angstroms)
 Number     Number       Type             X           Y           Z
 ---------------------------------------------------------------------
      1          8           0        0.000000   -0.000000    1.362027
      2          1           0        0.000000    0.799571    1.933159
      3          1           0       -0.000000   -0.799571    1.933159
      4          8           0        0.000000   -0.000000   -1.362027
      5          1           0       -0.000000   -0.799571   -1.933159
      6          1           0        0.000000    0.799571   -1.933159
 ---------------------------------------------------------------------

 SCF Done:  E(RHF) =  -152.097665693     A.U. after   10 cycles
 E2 =    -0.5281633207D+00 EUMP2 =    -0.15262582901393D+03
 CCSD(T)
 CCSD(T)= -0.15265315010D+03

 The electronic state is 1-AG.
 Alpha  occ. eigenvalues --  -20.53445 -20.53444  -1.31069  -1.30586  -0.68434
 Alpha  occ. eigenvalues --   -0.68095  -0.56182  -0.51570  -0.48321  -0.47444
 Alpha virt. eigenvalues --    0.14467   0.17142   0.20569   0.22106   0.50763
 Alpha virt. eigenvalues --    0.58574   0.58799   0.61762   0.71411   0.76468
 Alpha virt. eigenvalues --    0.77010   0.78222   0.79681   0.83513   0.86342

 Mulliken charges:
               1
     1  O   -0.464964
     2  H    0.232482
     3  H    0.232482
     4  O   -0.464964
     5  H    0.232482
     6  H    0.232482
 Sum of Mulliken charges =  -0.00000

 Dipole moment (field-independent basis, Debye):
    X=             -0.0000    Y=              0.0000    Z=             -0.0000  Tot=              0.0000
 Quadrupole moment (field-independent basis, Debye-Ang):
   XX=            -14.7159   YY=             -7.9383   ZZ=             -1.7325
   XY=              0.0000   XZ=             -0.0000   YZ=             -0.0000

 \MP4DQ=-152.6346144\MP4SDQ=-152.6378064\CCSD=-152.6371712\CCSD(T)=-152
 Normal termination of Gaussian 16 at Sat Aug 27 01:40:44 2022.
