 Gaussian 16, Revision A.03,
 Gaussian 16:  ES64L-G16RevA.03 25-Dec-2016

 ------------------
 #p CCSD(T)/cc-pVTZ
 ------------------

 ------------
 H2O_H2O_2583
 ------------
 Symbolic Z-matrix:
 Charge =  0 Multiplicity = 1

                         Standard orientation:
 ---------------------------------------------------------------------
 Center     Atomic      Atomic             Coordinates (Angstroms)
 Number     Number       Type             X           Y           Z
 ---------------------------------------------------------------------
      1          8           0        0.028565   -2.164801    0.000000
      2          1           0       -0.771652   -2.735028    0.000000
      3          1           0        0.827489   -2.736837    0.000000
      4          8           0        0.028565    2.180040    0.000000
      5          1           0        0.436461    3.073979    0.000000
      6          1           0       -0.949342    2.275976    0.000000
 ---------------------------------------------------------------------

 SCF Done:  E(RHF) =  -152.105900566     A.U. after   10 cycles
 E2 =    -0.5261302717D+00 EUMP2 =    -0.15263203083768D+03
 CCSD(T)
 CCSD(T)= -0.15265927258D+03

 The electronic state is 1-A'.
 Alpha  occ. eigenvalues --  -20.54881 -20.54689  -1.32170  -1.31976  -0.69583
 Alpha  occ. eigenvalues --   -0.69381  -0.55561  -0.55321  -0.49271  -0.49078
 Alpha virt. eigenvalues --    0.14133   0.15347   0.20515   0.21033   0.54456
 Alpha virt. eigenvalues --    0.55434   0.57750   0.57993   0.64996   0.72792
 Alpha virt. eigenvalues --    0.79516   0.79876   0.80938   0.81201   0.82377

 Mulliken charges:
               1
     1  O   -0.499581
     2  H    0.248001
     3  H    0.251666
     4  O   -0.499221
     5  H    0.247181
     6  H    0.251954
 Sum of Mulliken charges =  -0.00000

 Dipole moment (field-independent basis, Debye):
    X=             -0.9703    Y=             -0.2726    Z=              0.0000  Tot=              1.0079
 Quadrupole moment (field-independent basis, Debye-Ang):
   XX=             -8.3327   YY=              4.6124   ZZ=            -14.7101
   XY=             -1.3887   XZ=              0.0000   YZ=              0.0000

 Normal termination of Gaussian 16 at Fri Aug 26 14:03:43 2022.
