 Gaussian 16, Revision A.03,
 Gaussian 16:  ES64L-G16RevA.03 25-Dec-2016

 ------------------
 #p CCSD(T)/cc-pVTZ
 ------------------

 -----------
 H2O_H2O_280
 -----------
 Symbolic Z-matrix:
 Charge =  0 Multiplicity = 1

                         Standard orientation:
 ---------------------------------------------------------------------
 Center     Atomic      Atomic             Coordinates (Angstroms)
 Number     Number       Type             X           Y           Z
 ---------------------------------------------------------------------
      1          8           0        0.018363   -0.946594    0.000000
      2          1           0       -0.782157   -1.516394    0.000000
      3          1           0        0.816983   -1.519056    0.000000
      4          8           0        0.018363    0.952595    0.000000
      5          1           0        0.593245    1.749475    0.000000
      6          1           0       -0.921885    1.237968    0.000000
 ---------------------------------------------------------------------

 SCF Done:  E(RHF) =  -152.029739270     A.U. after   11 cycles
 E2 =    -0.5380142165D+00 EUMP2 =    -0.15256775348617D+03
 CCSD(T)
 CCSD(T)= -0.15259423374D+03

 The electronic state is 1-A'.
 Alpha  occ. eigenvalues --  -20.51711 -20.51529  -1.32776  -1.28053  -0.69099
 Alpha  occ. eigenvalues --   -0.66516  -0.61998  -0.49830  -0.44441  -0.41593
 Alpha virt. eigenvalues --    0.14601   0.18603   0.20313   0.23059   0.51202
 Alpha virt. eigenvalues --    0.58685   0.59031   0.66111   0.69350   0.78346
 Alpha virt. eigenvalues --    0.79302   0.83266   0.84176   0.86436   0.87769

 Mulliken charges:
               1
     1  O   -0.419614
     2  H    0.202784
     3  H    0.215627
     4  O   -0.403138
     5  H    0.180332
     6  H    0.224009
 Sum of Mulliken charges =  -0.00000

 Dipole moment (field-independent basis, Debye):
    X=             -0.5275    Y=             -0.1335    Z=              0.0000  Tot=              0.5441
 Quadrupole moment (field-independent basis, Debye-Ang):
   XX=             -8.3956   YY=             -6.4924   ZZ=            -14.7481
   XY=             -0.1865   XZ=              0.0000   YZ=              0.0000

 Normal termination of Gaussian 16 at Fri Aug 26 14:49:09 2022.
