 Gaussian 16, Revision A.03,
 Gaussian 16:  ES64L-G16RevA.03 25-Dec-2016

 ------------------
 #p CCSD(T)/cc-pVTZ
 ------------------

 ------------
 H2O_H2O_4216
 ------------
 Symbolic Z-matrix:
 Charge =  0 Multiplicity = 1

                         Standard orientation:
 ---------------------------------------------------------------------
 Center     Atomic      Atomic             Coordinates (Angstroms)
 Number     Number       Type             X           Y           Z
 ---------------------------------------------------------------------
      1          8           0        0.049501   -3.006369    0.000000
      2          1           0       -0.750870   -3.576379    0.000000
      3          1           0        0.848270   -3.578623    0.000000
      4          8           0        0.049501    3.063344    0.000000
      5          1           0       -0.043955    4.041491    0.000000
      6          1           0       -0.845469    2.657716    0.000000
 ---------------------------------------------------------------------

 SCF Done:  E(RHF) =  -152.107235159     A.U. after   10 cycles
 E2 =    -0.5258992348D+00 EUMP2 =    -0.15263313439404D+03
 CCSD(T)
 CCSD(T)= -0.15266035786D+03

 The electronic state is 1-A'.
 Alpha  occ. eigenvalues --  -20.55481 -20.55121  -1.32779  -1.32417  -0.70185
 Alpha  occ. eigenvalues --   -0.69818  -0.56218  -0.55856  -0.49889  -0.49529
 Alpha virt. eigenvalues --    0.14162   0.14556   0.20243   0.20633   0.54376
 Alpha virt. eigenvalues --    0.54760   0.57281   0.57642   0.67944   0.68394
 Alpha virt. eigenvalues --    0.78991   0.79345   0.80425   0.80806   0.82363

 Mulliken charges:
               1
     1  O   -0.507876
     2  H    0.252697
     3  H    0.255180
     4  O   -0.507618
     5  H    0.251672
     6  H    0.255945
 Sum of Mulliken charges =  -0.00000

 Dipole moment (field-independent basis, Debye):
    X=             -1.7002    Y=             -0.9967    Z=              0.0000  Tot=              1.9708
 Quadrupole moment (field-independent basis, Debye-Ang):
   XX=             -9.3455   YY=              7.6546   ZZ=            -14.7117
   XY=             -4.5013   XZ=              0.0000   YZ=              0.0000

 Normal termination of Gaussian 16 at Sat Aug 27 06:04:34 2022.
