 Gaussian 16, Revision A.03,
 Gaussian 16:  ES64L-G16RevA.03 25-Dec-2016

 ------------------
 #p CCSD(T)/cc-pVTZ
 ------------------

 ------------
 H2O_H2O_3703
 ------------
 Symbolic Z-matrix:
 Charge =  0 Multiplicity = 1

                         Standard orientation:
 ---------------------------------------------------------------------
 Center     Atomic      Atomic             Coordinates (Angstroms)
 Number     Number       Type             X           Y           Z
 ---------------------------------------------------------------------
      1          8           0        0.011143   -2.770206    0.000000
      2          1           0       -0.788626   -3.341061    0.000000
      3          1           0        0.810516   -3.341614    0.000000
      4          8           0        0.011143    2.772393    0.000000
      5          1           0        0.684175    3.488307    0.000000
      6          1           0       -0.884347    3.176873    0.000000
 ---------------------------------------------------------------------

 SCF Done:  E(RHF) =  -152.106520143     A.U. after   10 cycles
 E2 =    -0.5259700730D+00 EUMP2 =    -0.15263249021621D+03
 CCSD(T)
 CCSD(T)= -0.15265972846D+03

 The electronic state is 1-A'.
 Alpha  occ. eigenvalues --  -20.55066 -20.55050  -1.32361  -1.32344  -0.69769
 Alpha  occ. eigenvalues --   -0.69752  -0.55767  -0.55750  -0.49466  -0.49449
 Alpha virt. eigenvalues --    0.14469   0.14621   0.20544   0.20604   0.54783
 Alpha virt. eigenvalues --    0.54840   0.57636   0.57668   0.68215   0.68791
 Alpha virt. eigenvalues --    0.79411   0.79428   0.80854   0.80887   0.82773

 Mulliken charges:
               1
     1  O   -0.503637
     2  H    0.251453
     3  H    0.252184
     4  O   -0.503612
     5  H    0.251312
     6  H    0.252300
 Sum of Mulliken charges =  -0.00000

 Dipole moment (field-independent basis, Debye):
    X=             -0.3818    Y=             -0.0383    Z=              0.0000  Tot=              0.3838
 Quadrupole moment (field-independent basis, Debye-Ang):
   XX=             -7.8863   YY=              9.9891   ZZ=            -14.7103
   XY=             -0.7209   XZ=              0.0000   YZ=              0.0000

 Normal termination of Gaussian 16 at Sat Aug 27 02:37:25 2022.
