 Gaussian 16, Revision A.03,
 Gaussian 16:  ES64L-G16RevA.03 25-Dec-2016

 ------------------
 #p CCSD(T)/cc-pVTZ
 ------------------

 ------------
 H2O_H2O_4921
 ------------
 Symbolic Z-matrix:
 Charge =  0 Multiplicity = 1

                         Standard orientation:
 ---------------------------------------------------------------------
 Center     Atomic      Atomic             Coordinates (Angstroms)
 Number     Number       Type             X           Y           Z
 ---------------------------------------------------------------------
      1          8           0        0.056081   -3.359752    0.000000
      2          1           0       -0.744298   -3.929751    0.000000
      3          1           0        0.854842   -3.932015    0.000000
      4          8           0        0.056081    3.451535    0.000000
      5          1           0       -0.346820    4.347736    0.000000
      6          1           0       -0.661018    2.779764    0.000000
 ---------------------------------------------------------------------

 SCF Done:  E(RHF) =  -152.107524390     A.U. after   10 cycles
 E2 =    -0.5258639675D+00 EUMP2 =    -0.15263338835752D+03
 CCSD(T)
 CCSD(T)= -0.15266060631D+03

 The electronic state is 1-A'.
 Alpha  occ. eigenvalues --  -20.55670 -20.55218  -1.32969  -1.32517  -0.70375
 Alpha  occ. eigenvalues --   -0.69918  -0.56422  -0.55967  -0.50082  -0.49631
 Alpha virt. eigenvalues --    0.14016   0.14468   0.20097   0.20574   0.54185
 Alpha virt. eigenvalues --    0.54653   0.57114   0.57565   0.67757   0.68225
 Alpha virt. eigenvalues --    0.78798   0.79243   0.80227   0.80704   0.82151

 Mulliken charges:
               1
     1  O   -0.509571
     2  H    0.253826
     3  H    0.255745
     4  O   -0.509332
     5  H    0.252727
     6  H    0.256605
 Sum of Mulliken charges =   0.00000

 Dipole moment (field-independent basis, Debye):
    X=             -1.9295    Y=             -1.6000    Z=              0.0000  Tot=              2.5066
 Quadrupole moment (field-independent basis, Debye-Ang):
   XX=             -9.7847   YY=              6.1145   ZZ=            -14.7123
   XY=             -6.4255   XZ=              0.0000   YZ=              0.0000

 Normal termination of Gaussian 16 at Sat Aug 27 10:08:11 2022.
