 Gaussian 16, Revision A.03,
 Gaussian 16:  ES64L-G16RevA.03 25-Dec-2016

 ------------------
 #p CCSD(T)/cc-pVTZ
 ------------------

 ------------
 H2O_H2O_2695
 ------------
 Symbolic Z-matrix:
 Charge =  0 Multiplicity = 1

                         Standard orientation:
 ---------------------------------------------------------------------
 Center     Atomic      Atomic             Coordinates (Angstroms)
 Number     Number       Type             X           Y           Z
 ---------------------------------------------------------------------
      1          8           0        0.055257   -2.180409    0.000000
      2          1           0       -0.745532   -2.749831    0.000000
      3          1           0        0.853606   -2.753248    0.000000
      4          8           0        0.055257    2.264835    0.000000
      5          1           0       -0.287503    3.185717    0.000000
      6          1           0       -0.704690    1.641951    0.000000
 ---------------------------------------------------------------------

 SCF Done:  E(RHF) =  -152.107698558     A.U. after   10 cycles
 E2 =    -0.5260223652D+00 EUMP2 =    -0.15263372092351D+03
 CCSD(T)
 CCSD(T)= -0.15266091730D+03

 The electronic state is 1-A'.
 Alpha  occ. eigenvalues --  -20.55702 -20.54618  -1.32990  -1.31912  -0.70397
 Alpha  occ. eigenvalues --   -0.69293  -0.56438  -0.55359  -0.50103  -0.49031
 Alpha virt. eigenvalues --    0.13333   0.15537   0.20014   0.21659   0.54040
 Alpha virt. eigenvalues --    0.54764   0.57133   0.58115   0.66343   0.72013
 Alpha virt. eigenvalues --    0.78778   0.79703   0.79835   0.81140   0.82619

 Mulliken charges:
               1
     1  O   -0.507653
     2  H    0.251129
     3  H    0.257520
     4  O   -0.509061
     5  H    0.248122
     6  H    0.259942
 Sum of Mulliken charges =  -0.00000

 Dipole moment (field-independent basis, Debye):
    X=             -1.8799    Y=             -1.5187    Z=              0.0000  Tot=              2.4167
 Quadrupole moment (field-independent basis, Debye-Ang):
   XX=             -9.7227   YY=              0.9676   ZZ=            -14.7141
   XY=             -3.9798   XZ=              0.0000   YZ=              0.0000

 Normal termination of Gaussian 16 at Fri Aug 26 15:10:29 2022.
