 Gaussian 16, Revision A.03,
 Gaussian 16:  ES64L-G16RevA.03 25-Dec-2016

 ------------------
 #p CCSD(T)/cc-pVTZ
 ------------------

 ------------
 H2O_H2O_3405
 ------------
 Symbolic Z-matrix:
 Charge =  0 Multiplicity = 1

                         Standard orientation:
 ---------------------------------------------------------------------
 Center     Atomic      Atomic             Coordinates (Angstroms)
 Number     Number       Type             X           Y           Z
 ---------------------------------------------------------------------
      1          8           0        0.018360   -2.608563    0.000000
      2          1           0       -0.781556   -3.179211    0.000000
      3          1           0        0.817585   -3.180178    0.000000
      4          8           0        0.018360    2.614602    0.000000
      5          1           0        0.592397    3.412090    0.000000
      6          1           0       -0.922190    2.898980    0.000000
 ---------------------------------------------------------------------

 SCF Done:  E(RHF) =  -152.106390379     A.U. after   10 cycles
 E2 =    -0.5259922912D+00 EUMP2 =    -0.15263238266981D+03
 CCSD(T)
 CCSD(T)= -0.15265962301D+03

 The electronic state is 1-A'.
 Alpha  occ. eigenvalues --  -20.55026 -20.54975  -1.32320  -1.32268  -0.69729
 Alpha  occ. eigenvalues --   -0.69676  -0.55719  -0.55666  -0.49424  -0.49373
 Alpha virt. eigenvalues --    0.14437   0.14743   0.20552   0.20678   0.54798
 Alpha virt. eigenvalues --    0.54942   0.57663   0.57736   0.67904   0.69257
 Alpha virt. eigenvalues --    0.79451   0.79505   0.80888   0.80979   0.82767

 Mulliken charges:
               1
     1  O   -0.502884
     2  H    0.250731
     3  H    0.252154
     4  O   -0.502794
     5  H    0.250440
     6  H    0.252353
 Sum of Mulliken charges =  -0.00000

 Dipole moment (field-independent basis, Debye):
    X=             -0.6282    Y=             -0.1062    Z=              0.0000  Tot=              0.6371
 Quadrupole moment (field-independent basis, Debye-Ang):
   XX=             -8.0226   YY=              8.4903   ZZ=            -14.7102
   XY=             -1.1109   XZ=              0.0000   YZ=              0.0000

 Normal termination of Gaussian 16 at Fri Aug 26 22:03:55 2022.
