 Gaussian 16, Revision A.03,
 Gaussian 16:  ES64L-G16RevA.03 25-Dec-2016

 ------------------
 #p CCSD(T)/cc-pVTZ
 ------------------

 -----------
 H2O_H2O_644
 -----------
 Symbolic Z-matrix:
 Charge =  0 Multiplicity = 1

                         Standard orientation:
 ---------------------------------------------------------------------
 Center     Atomic      Atomic             Coordinates (Angstroms)
 Number     Number       Type             X           Y           Z
 ---------------------------------------------------------------------
      1          8           0        0.054241   -1.094138    0.000000
      2          1           0       -0.747671   -1.661979    0.000000
      3          1           0        0.851458   -1.668551    0.000000
      4          8           0        0.054241    1.171202    0.000000
      5          1           0       -0.225699    2.113083    0.000000
      6          1           0       -0.745946    0.600932    0.000000
 ---------------------------------------------------------------------

 SCF Done:  E(RHF) =  -152.087503607     A.U. after   11 cycles
 E2 =    -0.5319665098D+00 EUMP2 =    -0.15261947011636D+03
 CCSD(T)
 CCSD(T)= -0.15264640422D+03

 The electronic state is 1-A'.
 Alpha  occ. eigenvalues --  -20.55447 -20.51864  -1.33821  -1.29181  -0.71201
 Alpha  occ. eigenvalues --   -0.68469  -0.55424  -0.51819  -0.50774  -0.46152
 Alpha virt. eigenvalues --    0.13462   0.18214   0.19675   0.25007   0.51557
 Alpha virt. eigenvalues --    0.56627   0.60401   0.62018   0.71717   0.74362
 Alpha virt. eigenvalues --    0.78306   0.82761   0.84130   0.84324   0.87491

 Mulliken charges:
               1
     1  O   -0.444138
     2  H    0.220260
     3  H    0.242067
     4  O   -0.473449
     5  H    0.201806
     6  H    0.253454
 Sum of Mulliken charges =  -0.00000

 Dipole moment (field-independent basis, Debye):
    X=             -1.6447    Y=             -1.6119    Z=              0.0000  Tot=              2.3029
 Quadrupole moment (field-independent basis, Debye-Ang):
   XX=             -9.6991   YY=             -5.1440   ZZ=            -14.7112
   XY=             -1.8275   XZ=              0.0000   YZ=              0.0000

 Normal termination of Gaussian 16 at Fri Aug 26 18:37:28 2022.
