 Gaussian 16, Revision A.03,
 Gaussian 16:  ES64L-G16RevA.03 25-Dec-2016

 ------------------
 #p CCSD(T)/cc-pVTZ
 ------------------

 ------------
 H2O_H2O_4024
 ------------
 Symbolic Z-matrix:
 Charge =  0 Multiplicity = 1

                         Standard orientation:
 ---------------------------------------------------------------------
 Center     Atomic      Atomic             Coordinates (Angstroms)
 Number     Number       Type             X           Y           Z
 ---------------------------------------------------------------------
      1          8           0        0.057209   -2.869015    0.000000
      2          1           0       -0.743320   -3.438803    0.000000
      3          1           0        0.855819   -3.441490    0.000000
      4          8           0        0.057209    2.983049    0.000000
      5          1           0       -0.512579    3.783579    0.000000
      6          1           0       -0.515266    2.184438    0.000000
 ---------------------------------------------------------------------

 SCF Done:  E(RHF) =  -152.107791947     A.U. after   10 cycles
 E2 =    -0.5258570045D+00 EUMP2 =    -0.15263364895138D+03
 CCSD(T)
 CCSD(T)= -0.15266085994D+03

 The electronic state is 1-A'.
 Alpha  occ. eigenvalues --  -20.55814 -20.55041  -1.33114  -1.32342  -0.70520
 Alpha  occ. eigenvalues --   -0.69738  -0.56580  -0.55798  -0.50229  -0.49459
 Alpha virt. eigenvalues --    0.13805   0.14719   0.19983   0.20837   0.54033
 Alpha virt. eigenvalues --    0.54818   0.56988   0.57742   0.67407   0.68554
 Alpha virt. eigenvalues --    0.78653   0.79408   0.80071   0.80688   0.82315

 Mulliken charges:
               1
     1  O   -0.511155
     2  H    0.254136
     3  H    0.257043
     4  O   -0.510605
     5  H    0.252006
     6  H    0.258575
 Sum of Mulliken charges =  -0.00000

 Dipole moment (field-independent basis, Debye):
    X=             -1.9642    Y=             -2.0003    Z=              0.0000  Tot=              2.8034
 Quadrupole moment (field-independent basis, Debye-Ang):
   XX=             -9.8639   YY=              1.5896   ZZ=            -14.7131
   XY=             -6.0163   XZ=              0.0000   YZ=              0.0000

 Normal termination of Gaussian 16 at Sat Aug 27 04:56:39 2022.
