 Gaussian 16, Revision A.03,
 Gaussian 16:  ES64L-G16RevA.03 25-Dec-2016

 ------------------
 #p CCSD(T)/cc-pVTZ
 ------------------

 -----------
 H2O_H2O_250
 -----------
 Symbolic Z-matrix:
 Charge =  0 Multiplicity = 1

                         Standard orientation:
 ---------------------------------------------------------------------
 Center     Atomic      Atomic             Coordinates (Angstroms)
 Number     Number       Type             X           Y           Z
 ---------------------------------------------------------------------
      1          8           0        0.000000   -0.000000    0.936558
      2          1           0        0.000000    0.799571    1.507690
      3          1           0       -0.000000   -0.799571    1.507690
      4          8           0        0.000000   -0.000000   -0.936558
      5          1           0       -0.000000   -0.799571   -1.507690
      6          1           0        0.000000    0.799571   -1.507690
 ---------------------------------------------------------------------

 SCF Done:  E(RHF) =  -152.020368203     A.U. after   11 cycles
 E2 =    -0.5390301483D+00 EUMP2 =    -0.15255939835129D+03
 CCSD(T)
 CCSD(T)= -0.15258575833D+03

 The electronic state is 1-AG.
 Alpha  occ. eigenvalues --  -20.51377 -20.51376  -1.32825  -1.27884  -0.68874
 Alpha  occ. eigenvalues --   -0.65964  -0.63200  -0.49867  -0.44202  -0.40394
 Alpha virt. eigenvalues --    0.14679   0.18848   0.20335   0.22915   0.50280
 Alpha virt. eigenvalues --    0.59235   0.59291   0.67074   0.68757   0.78786
 Alpha virt. eigenvalues --    0.80026   0.83594   0.84499   0.86570   0.87491

 Mulliken charges:
               1
     1  O   -0.407808
     2  H    0.203904
     3  H    0.203904
     4  O   -0.407808
     5  H    0.203904
     6  H    0.203904
 Sum of Mulliken charges =   0.00000

 Dipole moment (field-independent basis, Debye):
    X=             -0.0000    Y=              0.0000    Z=             -0.0000  Tot=              0.0000
 Quadrupole moment (field-independent basis, Debye-Ang):
   XX=            -14.7583   YY=             -8.2457   ZZ=             -6.7245
   XY=              0.0000   XZ=             -0.0000   YZ=             -0.0000

 \MP4DQ=-152.5656155\MP4SDQ=-152.5693621\CCSD=-152.5684661\CCSD(T)=-152
 Normal termination of Gaussian 16 at Fri Aug 26 14:30:58 2022.
