 Gaussian 16, Revision A.03,
 Gaussian 16:  ES64L-G16RevA.03 25-Dec-2016

 ------------------
 #p CCSD(T)/cc-pVTZ
 ------------------

 ------------
 H2O_H2O_2756
 ------------
 Symbolic Z-matrix:
 Charge =  0 Multiplicity = 1

                         Standard orientation:
 ---------------------------------------------------------------------
 Center     Atomic      Atomic             Coordinates (Angstroms)
 Number     Number       Type             X           Y           Z
 ---------------------------------------------------------------------
      1          8           0        0.021860   -2.261446    0.000000
      2          1           0       -0.778185   -2.831914    0.000000
      3          1           0        0.820956   -2.833242    0.000000
      4          8           0        0.021860    2.270105    0.000000
      5          1           0        0.542697    3.103312    0.000000
      6          1           0       -0.935226    2.492574    0.000000
 ---------------------------------------------------------------------

 SCF Done:  E(RHF) =  -152.105921426     A.U. after   10 cycles
 E2 =    -0.5260901067D+00 EUMP2 =    -0.15263201153311D+03
 CCSD(T)
 CCSD(T)= -0.15265925687D+03

 The electronic state is 1-A'.
 Alpha  occ. eigenvalues --  -20.54865 -20.54767  -1.32156  -1.32056  -0.69568
 Alpha  occ. eigenvalues --   -0.69464  -0.55547  -0.55409  -0.49257  -0.49158
 Alpha virt. eigenvalues --    0.14271   0.15172   0.20567   0.20908   0.54688
 Alpha virt. eigenvalues --    0.55343   0.57760   0.57929   0.65822   0.71766
 Alpha virt. eigenvalues --    0.79564   0.79766   0.81029   0.81201   0.82380

 Mulliken charges:
               1
     1  O   -0.499999
     2  H    0.248760
     3  H    0.251264
     4  O   -0.499770
     5  H    0.248269
     6  H    0.251477
 Sum of Mulliken charges =  -0.00000

 Dipole moment (field-independent basis, Debye):
    X=             -0.7441    Y=             -0.1540    Z=              0.0000  Tot=              0.7599
 Quadrupole moment (field-independent basis, Debye-Ang):
   XX=             -8.1194   YY=              5.6379   ZZ=            -14.7099
   XY=             -1.0861   XZ=              0.0000   YZ=              0.0000

 Normal termination of Gaussian 16 at Fri Aug 26 15:48:48 2022.
