 Gaussian 16, Revision A.03,
 Gaussian 16:  ES64L-G16RevA.03 25-Dec-2016

 ------------------
 #p CCSD(T)/cc-pVTZ
 ------------------

 ------------
 H2O_H2O_4358
 ------------
 Symbolic Z-matrix:
 Charge =  0 Multiplicity = 1

                         Standard orientation:
 ---------------------------------------------------------------------
 Center     Atomic      Atomic             Coordinates (Angstroms)
 Number     Number       Type             X           Y           Z
 ---------------------------------------------------------------------
      1          8           0        0.028563   -3.108800    0.000000
      2          1           0       -0.771459   -3.679301    0.000000
      3          1           0        0.827683   -3.680563    0.000000
      4          8           0        0.028563    3.124059    0.000000
      5          1           0        0.436152    4.018137    0.000000
      6          1           0       -0.949377    3.219659    0.000000
 ---------------------------------------------------------------------

 SCF Done:  E(RHF) =  -152.106908443     A.U. after   10 cycles
 E2 =    -0.5259239617D+00 EUMP2 =    -0.15263283240474D+03
 CCSD(T)
 CCSD(T)= -0.15266006310D+03

 The electronic state is 1-A'.
 Alpha  occ. eigenvalues --  -20.55259 -20.55168  -1.32555  -1.32464  -0.69962
 Alpha  occ. eigenvalues --   -0.69869  -0.55979  -0.55889  -0.49663  -0.49572
 Alpha virt. eigenvalues --    0.14371   0.14473   0.20424   0.20521   0.54605
 Alpha virt. eigenvalues --    0.54705   0.57480   0.57571   0.68232   0.68358
 Alpha virt. eigenvalues --    0.79216   0.79306   0.80657   0.80757   0.82586

 Mulliken charges:
               1
     1  O   -0.505925
     2  H    0.252289
     3  H    0.253636
     4  O   -0.505838
     5  H    0.251931
     6  H    0.253907
 Sum of Mulliken charges =  -0.00000

 Dipole moment (field-independent basis, Debye):
    X=             -0.9812    Y=             -0.2664    Z=              0.0000  Tot=              1.0167
 Quadrupole moment (field-independent basis, Debye-Ang):
   XX=             -8.3166   YY=             11.7251   ZZ=            -14.7109
   XY=             -2.3009   XZ=              0.0000   YZ=              0.0000

 Normal termination of Gaussian 16 at Sat Aug 27 06:51:48 2022.
