 Gaussian 16, Revision A.03,
 Gaussian 16:  ES64L-G16RevA.03 25-Dec-2016

 ------------------
 #p CCSD(T)/cc-pVTZ
 ------------------

 ------------
 H2O_H2O_1657
 ------------
 Symbolic Z-matrix:
 Charge =  0 Multiplicity = 1

                         Standard orientation:
 ---------------------------------------------------------------------
 Center     Atomic      Atomic             Coordinates (Angstroms)
 Number     Number       Type             X           Y           Z
 ---------------------------------------------------------------------
      1          8           0        0.025268   -1.674766    0.000000
      2          1           0       -0.775041   -2.244863    0.000000
      3          1           0        0.824100   -2.246932    0.000000
      4          8           0        0.025268    1.686481    0.000000
      5          1           0        0.490896    2.551753    0.000000
      6          1           0       -0.944245    1.846326    0.000000
 ---------------------------------------------------------------------

 SCF Done:  E(RHF) =  -152.104017088     A.U. after   10 cycles
 E2 =    -0.5268100317D+00 EUMP2 =    -0.15263082711965D+03
 CCSD(T)
 CCSD(T)= -0.15265807722D+03

 The electronic state is 1-A'.
 Alpha  occ. eigenvalues --  -20.54394 -20.54148  -1.31683  -1.31413  -0.69108
 Alpha  occ. eigenvalues --   -0.68830  -0.55432  -0.54161  -0.48808  -0.48475
 Alpha virt. eigenvalues --    0.14131   0.16298   0.20501   0.21682   0.52886
 Alpha virt. eigenvalues --    0.57070   0.58076   0.58543   0.63004   0.76684
 Alpha virt. eigenvalues --    0.78608   0.78785   0.79946   0.81580   0.84753

 Mulliken charges:
               1
     1  O   -0.483623
     2  H    0.238952
     3  H    0.245177
     4  O   -0.483314
     5  H    0.237787
     6  H    0.245020
 Sum of Mulliken charges =  -0.00000

 Dipole moment (field-independent basis, Debye):
    X=             -0.8395    Y=             -0.2187    Z=              0.0000  Tot=              0.8675
 Quadrupole moment (field-independent basis, Debye-Ang):
   XX=             -8.2585   YY=              0.8765   ZZ=            -14.7099
   XY=             -0.7871   XZ=              0.0000   YZ=              0.0000

 Normal termination of Gaussian 16 at Sat Aug 27 06:03:21 2022.
