 Gaussian 16, Revision A.03,
 Gaussian 16:  ES64L-G16RevA.03 25-Dec-2016

 ------------------
 #p CCSD(T)/cc-pVTZ
 ------------------

 ------------
 H2O_H2O_1879
 ------------
 Symbolic Z-matrix:
 Charge =  0 Multiplicity = 1

                         Standard orientation:
 ---------------------------------------------------------------------
 Center     Atomic      Atomic             Coordinates (Angstroms)
 Number     Number       Type             X           Y           Z
 ---------------------------------------------------------------------
      1          8           0        0.014783   -1.798689    0.000000
      2          1           0       -0.785191   -2.369256    0.000000
      3          1           0        0.813951   -2.370386    0.000000
      4          8           0        0.014783    1.802561    0.000000
      5          1           0        0.639826    2.560735    0.000000
      6          1           0       -0.905120    2.147938    0.000000
 ---------------------------------------------------------------------

 SCF Done:  E(RHF) =  -152.104415998     A.U. after   10 cycles
 E2 =    -0.5265681357D+00 EUMP2 =    -0.15263098413385D+03
 CCSD(T)
 CCSD(T)= -0.15265823440D+03

 The electronic state is 1-A'.
 Alpha  occ. eigenvalues --  -20.54407 -20.54335  -1.31692  -1.31606  -0.69114
 Alpha  occ. eigenvalues --   -0.69027  -0.55334  -0.54503  -0.48815  -0.48670
 Alpha virt. eigenvalues --    0.14180   0.16015   0.20586   0.21389   0.53484
 Alpha virt. eigenvalues --    0.56957   0.57995   0.58361   0.61444   0.75848
 Alpha virt. eigenvalues --    0.79132   0.79655   0.80586   0.81007   0.83391

 Mulliken charges:
               1
     1  O   -0.487622
     2  H    0.242358
     3  H    0.245391
     4  O   -0.487610
     5  H    0.241972
     6  H    0.245512
 Sum of Mulliken charges =  -0.00000

 Dipole moment (field-independent basis, Debye):
    X=             -0.4951    Y=             -0.0716    Z=              0.0000  Tot=              0.5003
 Quadrupole moment (field-independent basis, Debye-Ang):
   XX=             -7.9872   YY=              2.0837   ZZ=            -14.7092
   XY=             -0.4830   XZ=              0.0000   YZ=              0.0000

 Normal termination of Gaussian 16 at Sat Aug 27 07:19:35 2022.
