 Gaussian 16, Revision A.03,
 Gaussian 16:  ES64L-G16RevA.03 25-Dec-2016

 ------------------
 #p CCSD(T)/cc-pVTZ
 ------------------

 -----------
 H2O_H2O_485
 -----------
 Symbolic Z-matrix:
 Charge =  0 Multiplicity = 1

                         Standard orientation:
 ---------------------------------------------------------------------
 Center     Atomic      Atomic             Coordinates (Angstroms)
 Number     Number       Type             X           Y           Z
 ---------------------------------------------------------------------
      1          8           0        0.034802   -1.043506    0.000000
      2          1           0       -0.766386   -1.612368    0.000000
      3          1           0        0.832749   -1.616903    0.000000
      4          8           0        0.034802    1.066913    0.000000
      5          1           0        0.324126    2.005954    0.000000
      6          1           0       -0.947316    1.036060    0.000000
 ---------------------------------------------------------------------

 SCF Done:  E(RHF) =  -152.070362560     A.U. after   11 cycles
 E2 =    -0.5331157418D+00 EUMP2 =    -0.15260347830194D+03
 CCSD(T)
 CCSD(T)= -0.15263047600D+03

 The electronic state is 1-A'.
 Alpha  occ. eigenvalues --  -20.52984 -20.52196  -1.32102  -1.29086  -0.69161
 Alpha  occ. eigenvalues --   -0.67386  -0.58667  -0.49301  -0.46947  -0.45719
 Alpha virt. eigenvalues --    0.14350   0.17950   0.20291   0.23255   0.52779
 Alpha virt. eigenvalues --    0.57866   0.58446   0.63523   0.70787   0.76638
 Alpha virt. eigenvalues --    0.78615   0.81684   0.83697   0.85965   0.87865

 Mulliken charges:
               1
     1  O   -0.449907
     2  H    0.214766
     3  H    0.233096
     4  O   -0.421302
     5  H    0.186689
     6  H    0.236657
 Sum of Mulliken charges =  -0.00000

 Dipole moment (field-independent basis, Debye):
    X=             -1.0289    Y=             -0.4730    Z=              0.0000  Tot=              1.1324
 Quadrupole moment (field-independent basis, Debye-Ang):
   XX=             -8.7806   YY=             -5.0809   ZZ=            -14.7320
   XY=             -0.5413   XZ=              0.0000   YZ=              0.0000

 Normal termination of Gaussian 16 at Fri Aug 26 16:53:49 2022.
