 Gaussian 16, Revision A.03,
 Gaussian 16:  ES64L-G16RevA.03 25-Dec-2016

 ------------------
 #p CCSD(T)/cc-pVTZ
 ------------------

 ------------
 H2O_H2O_1211
 ------------
 Symbolic Z-matrix:
 Charge =  0 Multiplicity = 1

                         Standard orientation:
 ---------------------------------------------------------------------
 Center     Atomic      Atomic             Coordinates (Angstroms)
 Number     Number       Type             X           Y           Z
 ---------------------------------------------------------------------
      1          8           0        0.037689   -1.426498    0.000000
      2          1           0       -0.763165   -1.995829    0.000000
      3          1           0        0.835973   -1.999427    0.000000
      4          8           0        0.037689    1.454675    0.000000
      5          1           0        0.264417    2.410761    0.000000
      6          1           0       -0.940252    1.359081    0.000000
 ---------------------------------------------------------------------

 SCF Done:  E(RHF) =  -152.102265056     A.U. after   11 cycles
 E2 =    -0.5276782216D+00 EUMP2 =    -0.15262994327761D+03
 CCSD(T)
 CCSD(T)= -0.15265719128D+03

 The electronic state is 1-A'.
 Alpha  occ. eigenvalues --  -20.54394 -20.53624  -1.31759  -1.30870  -0.69179
 Alpha  occ. eigenvalues --   -0.68312  -0.55896  -0.53121  -0.48915  -0.47889
 Alpha virt. eigenvalues --    0.14065   0.16886   0.20332   0.22517   0.53119
 Alpha virt. eigenvalues --    0.58060   0.58204   0.59022   0.67720   0.76313
 Alpha virt. eigenvalues --    0.77005   0.77370   0.80776   0.82861   0.85675

 Mulliken charges:
               1
     1  O   -0.476938
     2  H    0.232918
     3  H    0.245436
     4  O   -0.471605
     5  H    0.226478
     6  H    0.243711
 Sum of Mulliken charges =  -0.00000

 Dipole moment (field-independent basis, Debye):
    X=             -1.2192    Y=             -0.5388    Z=              0.0000  Tot=              1.3330
 Quadrupole moment (field-independent basis, Debye-Ang):
   XX=             -8.7737   YY=             -1.4839   ZZ=            -14.7157
   XY=             -1.0721   XZ=              0.0000   YZ=              0.0000

 Normal termination of Gaussian 16 at Sat Aug 27 03:01:04 2022.
