 Gaussian 16, Revision A.03,
 Gaussian 16:  ES64L-G16RevA.03 25-Dec-2016

 ------------------
 #p CCSD(T)/cc-pVTZ
 ------------------

 ------------
 H2O_H2O_2161
 ------------
 Symbolic Z-matrix:
 Charge =  0 Multiplicity = 1

                         Standard orientation:
 ---------------------------------------------------------------------
 Center     Atomic      Atomic             Coordinates (Angstroms)
 Number     Number       Type             X           Y           Z
 ---------------------------------------------------------------------
      1          8           0        0.037681   -1.931719    0.000000
      2          1           0       -0.762840   -2.501518    0.000000
      3          1           0        0.836299   -2.504182    0.000000
      4          8           0        0.037681    1.959940    0.000000
      5          1           0        0.263850    2.916159    0.000000
      6          1           0       -0.940205    1.863775    0.000000
 ---------------------------------------------------------------------

 SCF Done:  E(RHF) =  -152.105831159     A.U. after   10 cycles
 E2 =    -0.5263132116D+00 EUMP2 =    -0.15263214437069D+03
 CCSD(T)
 CCSD(T)= -0.15265937032D+03

 The electronic state is 1-A'.
 Alpha  occ. eigenvalues --  -20.54918 -20.54458  -1.32199  -1.31734  -0.69616
 Alpha  occ. eigenvalues --   -0.69131  -0.55607  -0.55031  -0.49303  -0.48839
 Alpha virt. eigenvalues --    0.13847   0.15819   0.20386   0.21462   0.53542
 Alpha virt. eigenvalues --    0.55445   0.57744   0.58234   0.63620   0.75339
 Alpha virt. eigenvalues --    0.79238   0.79915   0.80337   0.81108   0.83140

 Mulliken charges:
               1
     1  O   -0.496547
     2  H    0.245373
     3  H    0.251759
     4  O   -0.496788
     5  H    0.243748
     6  H    0.252455
 Sum of Mulliken charges =  -0.00000

 Dipole moment (field-independent basis, Debye):
    X=             -1.2702    Y=             -0.5145    Z=              0.0000  Tot=              1.3705
 Quadrupole moment (field-independent basis, Debye-Ang):
   XX=             -8.7161   YY=              2.3648   ZZ=            -14.7111
   XY=             -1.6989   XZ=              0.0000   YZ=              0.0000

 Normal termination of Gaussian 16 at Sat Aug 27 08:56:05 2022.
