 Gaussian 16, Revision A.03,
 Gaussian 16:  ES64L-G16RevA.03 25-Dec-2016

 ------------------
 #p CCSD(T)/cc-pVTZ
 ------------------

 ------------
 H2O_H2O_2694
 ------------
 Symbolic Z-matrix:
 Charge =  0 Multiplicity = 1

                         Standard orientation:
 ---------------------------------------------------------------------
 Center     Atomic      Atomic             Coordinates (Angstroms)
 Number     Number       Type             X           Y           Z
 ---------------------------------------------------------------------
      1          8           0        0.054163   -2.184288    0.000000
      2          1           0       -0.746602   -2.753745    0.000000
      3          1           0        0.852536   -2.757094    0.000000
      4          8           0        0.054163    2.261571    0.000000
      5          1           0       -0.227675    3.202887    0.000000
      6          1           0       -0.744872    1.689689    0.000000
 ---------------------------------------------------------------------

 SCF Done:  E(RHF) =  -152.107504963     A.U. after   10 cycles
 E2 =    -0.5260287459D+00 EUMP2 =    -0.15263353370894D+03
 CCSD(T)
 CCSD(T)= -0.15266073552D+03

 The electronic state is 1-A'.
 Alpha  occ. eigenvalues --  -20.55618 -20.54632  -1.32907  -1.31925  -0.70315
 Alpha  occ. eigenvalues --   -0.69307  -0.56347  -0.55365  -0.50019  -0.49042
 Alpha virt. eigenvalues --    0.13416   0.15507   0.20061   0.21567   0.54058
 Alpha virt. eigenvalues --    0.54793   0.57200   0.58080   0.66286   0.72135
 Alpha virt. eigenvalues --    0.78859   0.79814   0.79827   0.81330   0.82642

 Mulliken charges:
               1
     1  O   -0.507012
     2  H    0.250754
     3  H    0.257093
     4  O   -0.508054
     5  H    0.247957
     6  H    0.259263
 Sum of Mulliken charges =  -0.00000

 Dipole moment (field-independent basis, Debye):
    X=             -1.8426    Y=             -1.3888    Z=              0.0000  Tot=              2.3074
 Quadrupole moment (field-independent basis, Debye-Ang):
   XX=             -9.6481   YY=              1.4546   ZZ=            -14.7136
   XY=             -3.7802   XZ=              0.0000   YZ=              0.0000

 5018\MP4DQ=-152.6426201\MP4SDQ=-152.6456829\CCSD=-152.6450907\CCSD(T)=
 Normal termination of Gaussian 16 at Fri Aug 26 15:10:01 2022.
