 Gaussian 16, Revision A.03,
 Gaussian 16:  ES64L-G16RevA.03 25-Dec-2016

 ------------------
 #p CCSD(T)/cc-pVTZ
 ------------------

 ------------
 H2O_H2O_2913
 ------------
 Symbolic Z-matrix:
 Charge =  0 Multiplicity = 1

                         Standard orientation:
 ---------------------------------------------------------------------
 Center     Atomic      Atomic             Coordinates (Angstroms)
 Number     Number       Type             X           Y           Z
 ---------------------------------------------------------------------
      1          8           0        0.042971   -2.324864    0.000000
      2          1           0       -0.757500   -2.894735    0.000000
      3          1           0        0.841640   -2.897256    0.000000
      4          8           0        0.042971    2.363641    0.000000
      5          1           0        0.142306    3.341208    0.000000
      6          1           0       -0.913976    2.140573    0.000000
 ---------------------------------------------------------------------

 SCF Done:  E(RHF) =  -152.106638892     A.U. after   10 cycles
 E2 =    -0.5260203556D+00 EUMP2 =    -0.15263265924728D+03
 CCSD(T)
 CCSD(T)= -0.15265988958D+03

 The electronic state is 1-A'.
 Alpha  occ. eigenvalues --  -20.55211 -20.54789  -1.32504  -1.32079  -0.69914
 Alpha  occ. eigenvalues --   -0.69476  -0.55912  -0.55488  -0.49610  -0.49188
 Alpha virt. eigenvalues --    0.13997   0.15153   0.20342   0.21017   0.54437
 Alpha virt. eigenvalues --    0.55080   0.57507   0.57895   0.66640   0.70967
 Alpha virt. eigenvalues --    0.79263   0.79687   0.80571   0.81315   0.82875

 Mulliken charges:
               1
     1  O   -0.504125
     2  H    0.249865
     3  H    0.254375
     4  O   -0.503696
     5  H    0.248414
     6  H    0.255167
 Sum of Mulliken charges =  -0.00000

 Dipole moment (field-independent basis, Debye):
    X=             -1.4652    Y=             -0.6891    Z=              0.0000  Tot=              1.6192
 Quadrupole moment (field-independent basis, Debye-Ang):
   XX=             -8.9696   YY=              4.6124   ZZ=            -14.7112
   XY=             -2.6548   XZ=              0.0000   YZ=              0.0000

 Normal termination of Gaussian 16 at Fri Aug 26 17:24:26 2022.
