 Gaussian 16, Revision A.03,
 Gaussian 16:  ES64L-G16RevA.03 25-Dec-2016

 ------------------
 #p CCSD(T)/cc-pVTZ
 ------------------

 ------------
 H2O_H2O_2849
 ------------
 Symbolic Z-matrix:
 Charge =  0 Multiplicity = 1

                         Standard orientation:
 ---------------------------------------------------------------------
 Center     Atomic      Atomic             Coordinates (Angstroms)
 Number     Number       Type             X           Y           Z
 ---------------------------------------------------------------------
      1          8           0        0.057235   -2.244134    0.000000
      2          1           0       -0.743554   -2.813557    0.000000
      3          1           0        0.855584   -2.816973    0.000000
      4          8           0        0.057235    2.358116    0.000000
      5          1           0       -0.512187    3.158907    0.000000
      6          1           0       -0.515604    1.559767    0.000000
 ---------------------------------------------------------------------

 SCF Done:  E(RHF) =  -152.108372445     A.U. after   10 cycles
 E2 =    -0.5259612204D+00 EUMP2 =    -0.15263433366578D+03
 CCSD(T)
 CCSD(T)= -0.15266151499D+03

 The electronic state is 1-A'.
 Alpha  occ. eigenvalues --  -20.56000 -20.54634  -1.33287  -1.31937  -0.70692
 Alpha  occ. eigenvalues --   -0.69318  -0.56767  -0.55402  -0.50406  -0.49060
 Alpha virt. eigenvalues --    0.13104   0.15512   0.19857   0.21794   0.53868
 Alpha virt. eigenvalues --    0.54861   0.56887   0.58134   0.66665   0.70728
 Alpha virt. eigenvalues --    0.78490   0.79421   0.79791   0.80233   0.82775

 Mulliken charges:
               1
     1  O   -0.510822
     2  H    0.253230
     3  H    0.258854
     4  O   -0.512490
     5  H    0.249481
     6  H    0.261746
 Sum of Mulliken charges =  -0.00000

 Dipole moment (field-independent basis, Debye):
    X=             -1.9512    Y=             -2.0463    Z=              0.0000  Tot=              2.8275
 Quadrupole moment (field-independent basis, Debye-Ang):
   XX=             -9.8619   YY=             -0.8999   ZZ=            -14.7156
   XY=             -4.8023   XZ=              0.0000   YZ=              0.0000

 Normal termination of Gaussian 16 at Fri Aug 26 16:45:27 2022.
