 Gaussian 16, Revision A.03,
 Gaussian 16:  ES64L-G16RevA.03 25-Dec-2016

 ------------------
 #p CCSD(T)/cc-pVTZ
 ------------------

 ------------
 H2O_H2O_1040
 ------------
 Symbolic Z-matrix:
 Charge =  0 Multiplicity = 1

                         Standard orientation:
 ---------------------------------------------------------------------
 Center     Atomic      Atomic             Coordinates (Angstroms)
 Number     Number       Type             X           Y           Z
 ---------------------------------------------------------------------
      1          8           0        0.047565   -1.321314    0.000000
      2          1           0       -0.753736   -1.890016    0.000000
      3          1           0        0.845398   -1.894870    0.000000
      4          8           0        0.047565    1.371791    0.000000
      5          1           0        0.019886    2.354002    0.000000
      6          1           0       -0.872583    1.027068    0.000000
 ---------------------------------------------------------------------

 SCF Done:  E(RHF) =  -152.101883876     A.U. after   11 cycles
 E2 =    -0.5283247124D+00 EUMP2 =    -0.15263020858815D+03
 CCSD(T)
 CCSD(T)= -0.15265740536D+03

 The electronic state is 1-A'.
 Alpha  occ. eigenvalues --  -20.54870 -20.53241  -1.32328  -1.30481  -0.69741
 Alpha  occ. eigenvalues --   -0.68052  -0.56155  -0.52982  -0.49472  -0.47511
 Alpha virt. eigenvalues --    0.13813   0.17238   0.20085   0.23367   0.53511
 Alpha virt. eigenvalues --    0.57626   0.58248   0.58769   0.70013   0.75828
 Alpha virt. eigenvalues --    0.76551   0.77513   0.82311   0.82946   0.85235

 Mulliken charges:
               1
     1  O   -0.475830
     2  H    0.232165
     3  H    0.249065
     4  O   -0.474680
     5  H    0.221097
     6  H    0.248183
 Sum of Mulliken charges =  -0.00000

 Dipole moment (field-independent basis, Debye):
    X=             -1.5147    Y=             -0.9853    Z=              0.0000  Tot=              1.8070
 Quadrupole moment (field-independent basis, Debye-Ang):
   XX=             -9.2916   YY=             -2.7563   ZZ=            -14.7219
   XY=             -1.5401   XZ=              0.0000   YZ=              0.0000

 Normal termination of Gaussian 16 at Sat Aug 27 01:36:30 2022.
