 Gaussian 16, Revision A.03,
 Gaussian 16:  ES64L-G16RevA.03 25-Dec-2016

 ------------------
 #p CCSD(T)/cc-pVTZ
 ------------------

 -----------
 H2O_H2O_365
 -----------
 Symbolic Z-matrix:
 Charge =  0 Multiplicity = 1

                         Standard orientation:
 ---------------------------------------------------------------------
 Center     Atomic      Atomic             Coordinates (Angstroms)
 Number     Number       Type             X           Y           Z
 ---------------------------------------------------------------------
      1          8           0        0.047593   -0.962379    0.000000
      2          1           0       -0.754336   -1.530196    0.000000
      3          1           0        0.844793   -1.536816    0.000000
      4          8           0        0.047593    1.012751    0.000000
      5          1           0        0.020997    1.994992    0.000000
      6          1           0       -0.872935    0.669044    0.000000
 ---------------------------------------------------------------------

 SCF Done:  E(RHF) =  -152.052356233     A.U. after   11 cycles
 E2 =    -0.5361892213D+00 EUMP2 =    -0.15258854545439D+03
 CCSD(T)
 CCSD(T)= -0.15261524372D+03

 The electronic state is 1-A'.
 Alpha  occ. eigenvalues --  -20.53704 -20.51638  -1.33823  -1.28421  -0.71067
 Alpha  occ. eigenvalues --   -0.68416  -0.57140  -0.50617  -0.46772  -0.45185
 Alpha virt. eigenvalues --    0.13957   0.18373   0.19899   0.24073   0.52697
 Alpha virt. eigenvalues --    0.57115   0.59093   0.63636   0.72184   0.76090
 Alpha virt. eigenvalues --    0.80293   0.82842   0.82898   0.84559   0.88283

 Mulliken charges:
               1
     1  O   -0.420583
     2  H    0.200967
     3  H    0.225055
     4  O   -0.414769
     5  H    0.169396
     6  H    0.239935
 Sum of Mulliken charges =  -0.00000

 Dipole moment (field-independent basis, Debye):
    X=             -1.3650    Y=             -1.0467    Z=              0.0000  Tot=              1.7201
 Quadrupole moment (field-independent basis, Debye-Ang):
   XX=             -9.3783   YY=             -6.1172   ZZ=            -14.7012
   XY=             -0.9959   XZ=              0.0000   YZ=              0.0000

 Normal termination of Gaussian 16 at Fri Aug 26 15:41:43 2022.
