 Gaussian 16, Revision A.03,
 Gaussian 16:  ES64L-G16RevA.03 25-Dec-2016

 ------------------
 #p CCSD(T)/cc-pVTZ
 ------------------

 ------------
 H2O_H2O_3253
 ------------
 Symbolic Z-matrix:
 Charge =  0 Multiplicity = 1

                         Standard orientation:
 ---------------------------------------------------------------------
 Center     Atomic      Atomic             Coordinates (Angstroms)
 Number     Number       Type             X           Y           Z
 ---------------------------------------------------------------------
      1          8           0        0.011143   -2.530880    0.000000
      2          1           0       -0.788645   -3.101709    0.000000
      3          1           0        0.810497   -3.102314    0.000000
      4          8           0        0.011143    2.533066    0.000000
      5          1           0        0.684199    3.248958    0.000000
      6          1           0       -0.884334    2.937575    0.000000
 ---------------------------------------------------------------------

 SCF Done:  E(RHF) =  -152.106232340     A.U. after   10 cycles
 E2 =    -0.5260129066D+00 EUMP2 =    -0.15263224524683D+03
 CCSD(T)
 CCSD(T)= -0.15265948848D+03

 The electronic state is 1-A'.
 Alpha  occ. eigenvalues --  -20.54956 -20.54936  -1.32249  -1.32229  -0.69659
 Alpha  occ. eigenvalues --   -0.69638  -0.55645  -0.55615  -0.49352  -0.49332
 Alpha virt. eigenvalues --    0.14446   0.14816   0.20584   0.20711   0.54834
 Alpha virt. eigenvalues --    0.55015   0.57710   0.57773   0.67653   0.69647
 Alpha virt. eigenvalues --    0.79515   0.79552   0.80945   0.81036   0.82734

 Mulliken charges:
               1
     1  O   -0.501951
     2  H    0.250506
     3  H    0.251446
     4  O   -0.501911
     5  H    0.250341
     6  H    0.251569
 Sum of Mulliken charges =  -0.00000

 Dipole moment (field-independent basis, Debye):
    X=             -0.3809    Y=             -0.0385    Z=              0.0000  Tot=              0.3828
 Quadrupole moment (field-independent basis, Debye-Ang):
   XX=             -7.8913   YY=              8.0757   ZZ=            -14.7099
   XY=             -0.6308   XZ=              0.0000   YZ=              0.0000

 Normal termination of Gaussian 16 at Fri Aug 26 20:45:37 2022.
