 Gaussian 16, Revision A.03,
 Gaussian 16:  ES64L-G16RevA.03 25-Dec-2016

 ------------------
 #p CCSD(T)/cc-pVTZ
 ------------------

 ------------
 H2O_H2O_4125
 ------------
 Symbolic Z-matrix:
 Charge =  0 Multiplicity = 1

                         Standard orientation:
 ---------------------------------------------------------------------
 Center     Atomic      Atomic             Coordinates (Angstroms)
 Number     Number       Type             X           Y           Z
 ---------------------------------------------------------------------
      1          8           0        0.000000   -0.000000    2.997424
      2          1           0        0.000000    0.799571    3.568556
      3          1           0       -0.000000   -0.799571    3.568556
      4          8           0        0.000000   -0.000000   -2.997424
      5          1           0       -0.000000   -0.799571   -3.568556
      6          1           0        0.000000    0.799571   -3.568556
 ---------------------------------------------------------------------

 SCF Done:  E(RHF) =  -152.106699907     A.U. after   10 cycles
 E2 =    -0.5259449127D+00 EUMP2 =    -0.15263264481955D+03
 CCSD(T)
 CCSD(T)= -0.15265987978D+03

 The electronic state is 1-AG.
 Alpha  occ. eigenvalues --  -20.55136 -20.55136  -1.32432  -1.32432  -0.69839
 Alpha  occ. eigenvalues --   -0.69839  -0.55846  -0.55846  -0.49538  -0.49538
 Alpha virt. eigenvalues --    0.14455   0.14509   0.20509   0.20531   0.54724
 Alpha virt. eigenvalues --    0.54739   0.57582   0.57593   0.68324   0.68475
 Alpha virt. eigenvalues --    0.79340   0.79341   0.80784   0.80789   0.82715

 Mulliken charges:
               1
     1  O   -0.504689
     2  H    0.252344
     3  H    0.252344
     4  O   -0.504689
     5  H    0.252344
     6  H    0.252344
 Sum of Mulliken charges =  -0.00000

 Dipole moment (field-independent basis, Debye):
    X=             -0.0000    Y=              0.0000    Z=              0.0000  Tot=              0.0000
 Quadrupole moment (field-independent basis, Debye-Ang):
   XX=            -14.7105   YY=             -7.8049   ZZ=             11.9431
   XY=              0.0000   XZ=              0.0000   YZ=             -0.0000

 1\MP4DQ=-152.6417701\MP4SDQ=-152.6448313\CCSD=-152.6442425\CCSD(T)=-15
 Normal termination of Gaussian 16 at Sat Aug 27 05:31:09 2022.
