 Gaussian 16, Revision A.03,
 Gaussian 16:  ES64L-G16RevA.03 25-Dec-2016

 ------------------
 #p CCSD(T)/cc-pVTZ
 ------------------

 ------------
 H2O_H2O_1997
 ------------
 Symbolic Z-matrix:
 Charge =  0 Multiplicity = 1

                         Standard orientation:
 ---------------------------------------------------------------------
 Center     Atomic      Atomic             Coordinates (Angstroms)
 Number     Number       Type             X           Y           Z
 ---------------------------------------------------------------------
      1          8           0        0.056755   -1.800198    0.000000
      2          1           0       -0.744318   -2.369221    0.000000
      3          1           0        0.854818   -2.373436    0.000000
      4          8           0        0.056755    1.899216    0.000000
      5          1           0       -0.402839    2.767710    0.000000
      6          1           0       -0.615746    1.182803    0.000000
 ---------------------------------------------------------------------

 SCF Done:  E(RHF) =  -152.108735846     A.U. after   10 cycles
 E2 =    -0.5263616764D+00 EUMP2 =    -0.15263509752192D+03
 CCSD(T)
 CCSD(T)= -0.15266224212D+03

 The electronic state is 1-A'.
 Alpha  occ. eigenvalues --  -20.56086 -20.54086  -1.33354  -1.31384  -0.70761
 Alpha  occ. eigenvalues --   -0.68751  -0.56820  -0.54852  -0.50475  -0.48514
 Alpha virt. eigenvalues --    0.13029   0.16373   0.19793   0.23530   0.53588
 Alpha virt. eigenvalues --    0.55211   0.56776   0.58445   0.66199   0.74477
 Alpha virt. eigenvalues --    0.77992   0.79115   0.79225   0.80564   0.84408

 Mulliken charges:
               1
     1  O   -0.501384
     2  H    0.248478
     3  H    0.258040
     4  O   -0.512515
     5  H    0.244225
     6  H    0.263155
 Sum of Mulliken charges =  -0.00000

 Dipole moment (field-independent basis, Debye):
    X=             -1.9057    Y=             -1.8484    Z=              0.0000  Tot=              2.6548
 Quadrupole moment (field-independent basis, Debye-Ang):
   XX=             -9.8259   YY=             -1.7925   ZZ=            -14.7187
   XY=             -3.6386   XZ=              0.0000   YZ=              0.0000

 Normal termination of Gaussian 16 at Sat Aug 27 07:59:53 2022.
