 Gaussian 16, Revision A.03,
 Gaussian 16:  ES64L-G16RevA.03 25-Dec-2016

 ------------------
 #p CCSD(T)/cc-pVTZ
 ------------------

 ------------
 H2O_H2O_4848
 ------------
 Symbolic Z-matrix:
 Charge =  0 Multiplicity = 1

                         Standard orientation:
 ---------------------------------------------------------------------
 Center     Atomic      Atomic             Coordinates (Angstroms)
 Number     Number       Type             X           Y           Z
 ---------------------------------------------------------------------
      1          8           0        0.057069   -3.311823    0.000000
      2          1           0       -0.743334   -3.881789    0.000000
      3          1           0        0.855806   -3.884120    0.000000
      4          8           0        0.057069    3.418413    0.000000
      5          1           0       -0.459328    4.254380    0.000000
      6          1           0       -0.566243    2.658815    0.000000
 ---------------------------------------------------------------------

 SCF Done:  E(RHF) =  -152.107620203     A.U. after   10 cycles
 E2 =    -0.5258558307D+00 EUMP2 =    -0.15263347603402D+03
 CCSD(T)
 CCSD(T)= -0.15266069195D+03

 The electronic state is 1-A'.
 Alpha  occ. eigenvalues --  -20.55735 -20.55201  -1.33035  -1.32501  -0.70441
 Alpha  occ. eigenvalues --   -0.69901  -0.56492  -0.55953  -0.50149  -0.49615
 Alpha virt. eigenvalues --    0.13956   0.14494   0.20044   0.20611   0.54118
 Alpha virt. eigenvalues --    0.54669   0.57055   0.57589   0.67675   0.68238
 Alpha virt. eigenvalues --    0.78731   0.79257   0.80158   0.80720   0.82084

 Mulliken charges:
               1
     1  O   -0.510140
     2  H    0.254090
     3  H    0.256051
     4  O   -0.509850
     5  H    0.252798
     6  H    0.257051
 Sum of Mulliken charges =  -0.00000

 Dipole moment (field-independent basis, Debye):
    X=             -1.9632    Y=             -1.8589    Z=              0.0000  Tot=              2.7036
 Quadrupole moment (field-independent basis, Debye-Ang):
   XX=             -9.8554   YY=              4.2241   ZZ=            -14.7125
   XY=             -6.7256   XZ=              0.0000   YZ=              0.0000

 Normal termination of Gaussian 16 at Sat Aug 27 09:40:41 2022.
