 Gaussian 16, Revision A.03,
 Gaussian 16:  ES64L-G16RevA.03 25-Dec-2016

 ------------------
 #p CCSD(T)/cc-pVTZ
 ------------------

 ------------
 H2O_H2O_4000
 ------------
 Symbolic Z-matrix:
 Charge =  0 Multiplicity = 1

                         Standard orientation:
 ---------------------------------------------------------------------
 Center     Atomic      Atomic             Coordinates (Angstroms)
 Number     Number       Type             X           Y           Z
 ---------------------------------------------------------------------
      1          8           0        0.000000   -0.000000    2.930945
      2          1           0        0.000000    0.799571    3.502077
      3          1           0       -0.000000   -0.799571    3.502077
      4          8           0        0.000000   -0.000000   -2.930945
      5          1           0       -0.000000   -0.799571   -3.502077
      6          1           0        0.000000    0.799571   -3.502077
 ---------------------------------------------------------------------

 SCF Done:  E(RHF) =  -152.106645972     A.U. after   10 cycles
 E2 =    -0.5259518854D+00 EUMP2 =    -0.15263259785759D+03
 CCSD(T)
 CCSD(T)= -0.15265983384D+03

 The electronic state is 1-AG.
 Alpha  occ. eigenvalues --  -20.55113 -20.55113  -1.32408  -1.32408  -0.69816
 Alpha  occ. eigenvalues --   -0.69816  -0.55821  -0.55819  -0.49514  -0.49514
 Alpha virt. eigenvalues --    0.14464   0.14537   0.20522   0.20551   0.54744
 Alpha virt. eigenvalues --    0.54766   0.57600   0.57613   0.68317   0.68543
 Alpha virt. eigenvalues --    0.79363   0.79365   0.80807   0.80816   0.82737

 Mulliken charges:
               1
     1  O   -0.504372
     2  H    0.252186
     3  H    0.252186
     4  O   -0.504372
     5  H    0.252186
     6  H    0.252186
 Sum of Mulliken charges =  -0.00000

 Dipole moment (field-independent basis, Debye):
    X=             -0.0000    Y=              0.0000    Z=              0.0000  Tot=              0.0000
 Quadrupole moment (field-independent basis, Debye-Ang):
   XX=            -14.7104   YY=             -7.8059   ZZ=             11.4096
   XY=              0.0000   XZ=              0.0000   YZ=             -0.0000

 \MP4DQ=-152.6417228\MP4SDQ=-152.6447844\CCSD=-152.6441955\CCSD(T)=-152
 Normal termination of Gaussian 16 at Sat Aug 27 04:49:02 2022.
