 Gaussian 16, Revision A.03,
 Gaussian 16:  ES64L-G16RevA.03 25-Dec-2016

 ------------------
 #p CCSD(T)/cc-pVTZ
 ------------------

 ------------
 H2O_H2O_4539
 ------------
 Symbolic Z-matrix:
 Charge =  0 Multiplicity = 1

                         Standard orientation:
 ---------------------------------------------------------------------
 Center     Atomic      Atomic             Coordinates (Angstroms)
 Number     Number       Type             X           Y           Z
 ---------------------------------------------------------------------
      1          8           0        0.045338   -3.185948    0.000000
      2          1           0       -0.754927   -3.756107    0.000000
      3          1           0        0.844214   -3.758051    0.000000
      4          8           0        0.045338    3.230527    0.000000
      5          1           0        0.080171    4.212512    0.000000
      6          1           0       -0.894868    2.945010    0.000000
 ---------------------------------------------------------------------

 SCF Done:  E(RHF) =  -152.107177122     A.U. after   10 cycles
 E2 =    -0.5258989419D+00 EUMP2 =    -0.15263307606349D+03
 CCSD(T)
 CCSD(T)= -0.15266030112D+03

 The electronic state is 1-A'.
 Alpha  occ. eigenvalues --  -20.55434 -20.55184  -1.32731  -1.32480  -0.70138
 Alpha  occ. eigenvalues --   -0.69882  -0.56168  -0.55916  -0.49841  -0.49591
 Alpha virt. eigenvalues --    0.14220   0.14477   0.20286   0.20551   0.54426
 Alpha virt. eigenvalues --    0.54693   0.57325   0.57576   0.68033   0.68301
 Alpha virt. eigenvalues --    0.79038   0.79285   0.80474   0.80744   0.82400

 Mulliken charges:
               1
     1  O   -0.507519
     2  H    0.252785
     3  H    0.254734
     4  O   -0.507347
     5  H    0.252065
     6  H    0.255282
 Sum of Mulliken charges =  -0.00000

 Dipole moment (field-independent basis, Debye):
    X=             -1.5584    Y=             -0.7782    Z=              0.0000  Tot=              1.7419
 Quadrupole moment (field-independent basis, Debye-Ang):
   XX=             -9.0967   YY=              9.8572   ZZ=            -14.7115
   XY=             -4.2137   XZ=              0.0000   YZ=              0.0000

 Normal termination of Gaussian 16 at Sat Aug 27 07:53:53 2022.
