 Gaussian 16, Revision A.03,
 Gaussian 16:  ES64L-G16RevA.03 25-Dec-2016

 ------------------
 #p CCSD(T)/cc-pVTZ
 ------------------

 ------------
 H2O_H2O_2280
 ------------
 Symbolic Z-matrix:
 Charge =  0 Multiplicity = 1

                         Standard orientation:
 ---------------------------------------------------------------------
 Center     Atomic      Atomic             Coordinates (Angstroms)
 Number     Number       Type             X           Y           Z
 ---------------------------------------------------------------------
      1          8           0        0.018361   -2.010250    0.000000
      2          1           0       -0.781658   -2.580754    0.000000
      3          1           0        0.817483   -2.582010    0.000000
      4          8           0        0.018361    2.016283    0.000000
      5          1           0        0.592541    2.813668    0.000000
      6          1           0       -0.922138    2.300830    0.000000
 ---------------------------------------------------------------------

 SCF Done:  E(RHF) =  -152.105306492     A.U. after   10 cycles
 E2 =    -0.5262712835D+00 EUMP2 =    -0.15263157777513D+03
 CCSD(T)
 CCSD(T)= -0.15265882343D+03

 The electronic state is 1-A'.
 Alpha  occ. eigenvalues --  -20.54653 -20.54564  -1.31938  -1.31846  -0.69355
 Alpha  occ. eigenvalues --   -0.69259  -0.55393  -0.55048  -0.49040  -0.48940
 Alpha virt. eigenvalues --    0.14157   0.15601   0.20588   0.21135   0.54247
 Alpha virt. eigenvalues --    0.55970   0.57874   0.58134   0.62852   0.74491
 Alpha virt. eigenvalues --    0.79512   0.80232   0.80692   0.81250   0.82147

 Mulliken charges:
               1
     1  O   -0.495220
     2  H    0.246219
     3  H    0.249079
     4  O   -0.495057
     5  H    0.245736
     6  H    0.249244
 Sum of Mulliken charges =  -0.00000

 Dipole moment (field-independent basis, Debye):
    X=             -0.6207    Y=             -0.1092    Z=              0.0000  Tot=              0.6303
 Quadrupole moment (field-independent basis, Debye-Ang):
   XX=             -8.0437   YY=              3.7480   ZZ=            -14.7096
   XY=             -0.7419   XZ=              0.0000   YZ=              0.0000

 Normal termination of Gaussian 16 at Sat Aug 27 09:37:32 2022.
