 Gaussian 16, Revision A.03,
 Gaussian 16:  ES64L-G16RevA.03 25-Dec-2016

 ------------------
 #p CCSD(T)/cc-pVTZ
 ------------------

 -----------
 H2O_H2O_640
 -----------
 Symbolic Z-matrix:
 Charge =  0 Multiplicity = 1

                         Standard orientation:
 ---------------------------------------------------------------------
 Center     Atomic      Atomic             Coordinates (Angstroms)
 Number     Number       Type             X           Y           Z
 ---------------------------------------------------------------------
      1          8           0        0.047579   -1.108607    0.000000
      2          1           0       -0.754046   -1.676853    0.000000
      3          1           0        0.845086   -1.682619    0.000000
      4          8           0        0.047579    1.159030    0.000000
      5          1           0        0.020459    2.141257    0.000000
      6          1           0       -0.872765    0.814831    0.000000
 ---------------------------------------------------------------------

 SCF Done:  E(RHF) =  -152.087005426     A.U. after   11 cycles
 E2 =    -0.5312769379D+00 EUMP2 =    -0.15261828236360D+03
 CCSD(T)
 CCSD(T)= -0.15264536847D+03

 The electronic state is 1-A'.
 Alpha  occ. eigenvalues --  -20.54343 -20.52411  -1.32616  -1.29552  -0.69937
 Alpha  occ. eigenvalues --   -0.67957  -0.56698  -0.50446  -0.49737  -0.46419
 Alpha virt. eigenvalues --    0.13902   0.17842   0.20032   0.23848   0.52895
 Alpha virt. eigenvalues --    0.57504   0.58757   0.61606   0.71324   0.75231
 Alpha virt. eigenvalues --    0.78892   0.82061   0.83194   0.85090   0.87750

 Mulliken charges:
               1
     1  O   -0.456527
     2  H    0.221094
     3  H    0.240496
     4  O   -0.448640
     5  H    0.198028
     6  H    0.245549
 Sum of Mulliken charges =  -0.00000

 Dipole moment (field-independent basis, Debye):
    X=             -1.4416    Y=             -1.0110    Z=              0.0000  Tot=              1.7608
 Quadrupole moment (field-independent basis, Debye-Ang):
   XX=             -9.3369   YY=             -4.5485   ZZ=            -14.7230
   XY=             -1.2173   XZ=              0.0000   YZ=              0.0000

 Normal termination of Gaussian 16 at Fri Aug 26 18:35:19 2022.
