 Gaussian 16, Revision A.03,
 Gaussian 16:  ES64L-G16RevA.03 25-Dec-2016

 ------------------
 #p CCSD(T)/cc-pVTZ
 ------------------

 ------------
 H2O_H2O_2194
 ------------
 Symbolic Z-matrix:
 Charge =  0 Multiplicity = 1

                         Standard orientation:
 ---------------------------------------------------------------------
 Center     Atomic      Atomic             Coordinates (Angstroms)
 Number     Number       Type             X           Y           Z
 ---------------------------------------------------------------------
      1          8           0        0.054174   -1.918387    0.000000
      2          1           0       -0.746753   -2.487615    0.000000
      3          1           0        0.852384   -2.491419    0.000000
      4          8           0        0.054174    1.995639    0.000000
      5          1           0       -0.227396    2.937033    0.000000
      6          1           0       -0.745024    1.423984    0.000000
 ---------------------------------------------------------------------

 SCF Done:  E(RHF) =  -152.107632926     A.U. after   10 cycles
 E2 =    -0.5262347667D+00 EUMP2 =    -0.15263386769244D+03
 CCSD(T)
 CCSD(T)= -0.15266104839D+03

 The electronic state is 1-A'.
 Alpha  occ. eigenvalues --  -20.55668 -20.54338  -1.32945  -1.31625  -0.70356
 Alpha  occ. eigenvalues --   -0.68997  -0.56375  -0.55061  -0.50059  -0.48746
 Alpha virt. eigenvalues --    0.13261   0.16022   0.19999   0.22375   0.54195
 Alpha virt. eigenvalues --    0.54333   0.57166   0.58497   0.65387   0.74760
 Alpha virt. eigenvalues --    0.78650   0.79184   0.80254   0.81060   0.83958

 Mulliken charges:
               1
     1  O   -0.502504
     2  H    0.248169
     3  H    0.256736
     4  O   -0.507331
     5  H    0.244929
     6  H    0.260000
 Sum of Mulliken charges =  -0.00000

 Dipole moment (field-independent basis, Debye):
    X=             -1.8270    Y=             -1.4179    Z=              0.0000  Tot=              2.3127
 Quadrupole moment (field-independent basis, Debye-Ang):
   XX=             -9.6502   YY=              0.0263   ZZ=            -14.7152
   XY=             -3.2970   XZ=              0.0000   YZ=              0.0000

 Normal termination of Gaussian 16 at Sat Aug 27 09:08:37 2022.
