 Gaussian 16, Revision A.03,
 Gaussian 16:  ES64L-G16RevA.03 25-Dec-2016

 ------------------
 #p CCSD(T)/cc-pVTZ
 ------------------

 ------------
 H2O_H2O_3240
 ------------
 Symbolic Z-matrix:
 Charge =  0 Multiplicity = 1

                         Standard orientation:
 ---------------------------------------------------------------------
 Center     Atomic      Atomic             Coordinates (Angstroms)
 Number     Number       Type             X           Y           Z
 ---------------------------------------------------------------------
      1          8           0        0.047529   -2.491284    0.000000
      2          1           0       -0.752969   -3.061117    0.000000
      3          1           0        0.846171   -3.063714    0.000000
      4          8           0        0.047529    2.541895    0.000000
      5          1           0        0.018463    3.524067    0.000000
      6          1           0       -0.872131    2.195873    0.000000
 ---------------------------------------------------------------------

 SCF Done:  E(RHF) =  -152.106973193     A.U. after   10 cycles
 E2 =    -0.5259617192D+00 EUMP2 =    -0.15263293491229D+03
 CCSD(T)
 CCSD(T)= -0.15266016076D+03

 The electronic state is 1-A'.
 Alpha  occ. eigenvalues --  -20.55362 -20.54887  -1.32658  -1.32180  -0.70066
 Alpha  occ. eigenvalues --   -0.69576  -0.56084  -0.55606  -0.49766  -0.49291
 Alpha virt. eigenvalues --    0.14018   0.14954   0.20275   0.20916   0.54425
 Alpha virt. eigenvalues --    0.54980   0.57380   0.57826   0.67316   0.69670
 Alpha virt. eigenvalues --    0.79114   0.79579   0.80481   0.80996   0.82753

 Mulliken charges:
               1
     1  O   -0.506251
     2  H    0.251109
     3  H    0.255206
     4  O   -0.505810
     5  H    0.249565
     6  H    0.256181
 Sum of Mulliken charges =  -0.00000

 Dipole moment (field-independent basis, Debye):
    X=             -1.6252    Y=             -0.8946    Z=              0.0000  Tot=              1.8551
 Quadrupole moment (field-independent basis, Debye-Ang):
   XX=             -9.2258   YY=              4.9746   ZZ=            -14.7116
   XY=             -3.3899   XZ=              0.0000   YZ=              0.0000

 Normal termination of Gaussian 16 at Fri Aug 26 20:38:28 2022.
