 Gaussian 16, Revision A.03,
 Gaussian 16:  ES64L-G16RevA.03 25-Dec-2016

 ------------------
 #p CCSD(T)/cc-pVTZ
 ------------------

 ------------
 H2O_H2O_3842
 ------------
 Symbolic Z-matrix:
 Charge =  0 Multiplicity = 1

                         Standard orientation:
 ---------------------------------------------------------------------
 Center     Atomic      Atomic             Coordinates (Angstroms)
 Number     Number       Type             X           Y           Z
 ---------------------------------------------------------------------
      1          8           0        0.051273   -2.803361    0.000000
      2          1           0       -0.749186   -3.373249    0.000000
      3          1           0        0.849954   -3.375736    0.000000
      4          8           0        0.051273    2.866907    0.000000
      5          1           0       -0.105810    3.836872    0.000000
      6          1           0       -0.815323    2.403747    0.000000
 ---------------------------------------------------------------------

 SCF Done:  E(RHF) =  -152.107258432     A.U. after   10 cycles
 E2 =    -0.5259071094D+00 EUMP2 =    -0.15263316554128D+03
 CCSD(T)
 CCSD(T)= -0.15266038778D+03

 The electronic state is 1-A'.
 Alpha  occ. eigenvalues --  -20.55502 -20.55039  -1.32800  -1.32334  -0.70207
 Alpha  occ. eigenvalues --   -0.69732  -0.56240  -0.55773  -0.49910  -0.49447
 Alpha virt. eigenvalues --    0.14088   0.14680   0.20215   0.20743   0.54346
 Alpha virt. eigenvalues --    0.54845   0.57260   0.57721   0.67784   0.68626
 Alpha virt. eigenvalues --    0.78970   0.79425   0.80399   0.80849   0.82426

 Mulliken charges:
               1
     1  O   -0.508024
     2  H    0.252457
     3  H    0.255577
     4  O   -0.507660
     5  H    0.251090
     6  H    0.256560
 Sum of Mulliken charges =  -0.00000

 Dipole moment (field-independent basis, Debye):
    X=             -1.7589    Y=             -1.1153    Z=              0.0000  Tot=              2.0827
 Quadrupole moment (field-independent basis, Debye-Ang):
   XX=             -9.4576   YY=              5.9034   ZZ=            -14.7119
   XY=             -4.4197   XZ=              0.0000   YZ=              0.0000

 Normal termination of Gaussian 16 at Sat Aug 27 03:43:29 2022.
