 Gaussian 16, Revision A.03,
 Gaussian 16:  ES64L-G16RevA.03 25-Dec-2016

 ------------------
 #p CCSD(T)/cc-pVTZ
 ------------------

 ------------
 H2O_H2O_3650
 ------------
 Symbolic Z-matrix:
 Charge =  0 Multiplicity = 1

                         Standard orientation:
 ---------------------------------------------------------------------
 Center     Atomic      Atomic             Coordinates (Angstroms)
 Number     Number       Type             X           Y           Z
 ---------------------------------------------------------------------
      1          8           0        0.000000   -0.000000    2.744802
      2          1           0        0.000000    0.799571    3.315934
      3          1           0       -0.000000   -0.799571    3.315934
      4          8           0        0.000000   -0.000000   -2.744802
      5          1           0       -0.000000   -0.799571   -3.315934
      6          1           0        0.000000    0.799571   -3.315934
 ---------------------------------------------------------------------

 SCF Done:  E(RHF) =  -152.106467368     A.U. after   10 cycles
 E2 =    -0.5259758847D+00 EUMP2 =    -0.15263244325234D+03
 CCSD(T)
 CCSD(T)= -0.15265968254D+03

 The electronic state is 1-AG.
 Alpha  occ. eigenvalues --  -20.55040 -20.55040  -1.32334  -1.32334  -0.69743
 Alpha  occ. eigenvalues --   -0.69742  -0.55740  -0.55734  -0.49439  -0.49438
 Alpha virt. eigenvalues --    0.14479   0.14639   0.20557   0.20614   0.54800
 Alpha virt. eigenvalues --    0.54859   0.57653   0.57680   0.68197   0.68860
 Alpha virt. eigenvalues --    0.79435   0.79442   0.80873   0.80906   0.82783

 Mulliken charges:
               1
     1  O   -0.503325
     2  H    0.251662
     3  H    0.251662
     4  O   -0.503325
     5  H    0.251662
     6  H    0.251662
 Sum of Mulliken charges =   0.00000

 Dipole moment (field-independent basis, Debye):
    X=             -0.0000    Y=              0.0000    Z=              0.0000  Tot=              0.0000
 Quadrupole moment (field-independent basis, Debye-Ang):
   XX=            -14.7102   YY=             -7.8090   ZZ=              9.9125
   XY=              0.0000   XZ=              0.0000   YZ=             -0.0000

 \MP4DQ=-152.6415667\MP4SDQ=-152.6446301\CCSD=-152.6440405\CCSD(T)=-152
 Normal termination of Gaussian 16 at Sat Aug 27 02:12:53 2022.
