 Gaussian 16, Revision A.03,
 Gaussian 16:  ES64L-G16RevA.03 25-Dec-2016

 ------------------
 #p CCSD(T)/cc-pVTZ
 ------------------

 ------------
 H2O_H2O_1582
 ------------
 Symbolic Z-matrix:
 Charge =  0 Multiplicity = 1

                         Standard orientation:
 ---------------------------------------------------------------------
 Center     Atomic      Atomic             Coordinates (Angstroms)
 Number     Number       Type             X           Y           Z
 ---------------------------------------------------------------------
      1          8           0        0.025268   -1.634879    0.000000
      2          1           0       -0.775059   -2.204951    0.000000
      3          1           0        0.824082   -2.207070    0.000000
      4          8           0        0.025268    1.646592    0.000000
      5          1           0        0.490923    2.511850    0.000000
      6          1           0       -0.944240    1.806469    0.000000
 ---------------------------------------------------------------------

 SCF Done:  E(RHF) =  -152.103697374     A.U. after   10 cycles
 E2 =    -0.5269135963D+00 EUMP2 =    -0.15263061097024D+03
 CCSD(T)
 CCSD(T)= -0.15265786585D+03

 The electronic state is 1-A'.
 Alpha  occ. eigenvalues --  -20.54337 -20.54082  -1.31632  -1.31345  -0.69058
 Alpha  occ. eigenvalues --   -0.68765  -0.55462  -0.53983  -0.48765  -0.48396
 Alpha virt. eigenvalues --    0.14155   0.16386   0.20497   0.21755   0.52759
 Alpha virt. eigenvalues --    0.57387   0.58114   0.58615   0.63509   0.76808
 Alpha virt. eigenvalues --    0.78416   0.78642   0.79670   0.81810   0.85290

 Mulliken charges:
               1
     1  O   -0.481824
     2  H    0.237853
     3  H    0.244490
     4  O   -0.481136
     5  H    0.236541
     6  H    0.244077
 Sum of Mulliken charges =  -0.00000

 Dipole moment (field-independent basis, Debye):
    X=             -0.8369    Y=             -0.2194    Z=              0.0000  Tot=              0.8652
 Quadrupole moment (field-independent basis, Debye-Ang):
   XX=             -8.2639   YY=              0.5469   ZZ=            -14.7100
   XY=             -0.7541   XZ=              0.0000   YZ=              0.0000

 Normal termination of Gaussian 16 at Sat Aug 27 05:35:58 2022.
