 Gaussian 16, Revision A.03,
 Gaussian 16:  ES64L-G16RevA.03 25-Dec-2016

 ------------------
 #p CCSD(T)/cc-pVTZ
 ------------------

 ------------
 H2O_H2O_1251
 ------------
 Symbolic Z-matrix:
 Charge =  0 Multiplicity = 1

                         Standard orientation:
 ---------------------------------------------------------------------
 Center     Atomic      Atomic             Coordinates (Angstroms)
 Number     Number       Type             X           Y           Z
 ---------------------------------------------------------------------
      1          8           0        0.003735   -1.468263    0.000000
      2          1           0       -0.795961   -2.039219    0.000000
      3          1           0        0.803181   -2.039570    0.000000
      4          8           0        0.003735    1.468506    0.000000
      5          1           0        0.764378    2.090542    0.000000
      6          1           0       -0.831364    1.986302    0.000000
 ---------------------------------------------------------------------

 SCF Done:  E(RHF) =  -152.100587659     A.U. after   10 cycles
 E2 =    -0.5275437572D+00 EUMP2 =    -0.15262813141624D+03
 CCSD(T)
 CCSD(T)= -0.15265543796D+03

 The electronic state is 1-A'.
 Alpha  occ. eigenvalues --  -20.53747 -20.53741  -1.31202  -1.30930  -0.68603
 Alpha  occ. eigenvalues --   -0.68403  -0.55727  -0.52642  -0.48414  -0.47862
 Alpha virt. eigenvalues --    0.14417   0.16818   0.20568   0.21909   0.51401
 Alpha virt. eigenvalues --    0.58377   0.58699   0.60449   0.67280   0.76203
 Alpha virt. eigenvalues --    0.77570   0.77912   0.79194   0.82924   0.86186

 Mulliken charges:
               1
     1  O   -0.470354
     2  H    0.234497
     3  H    0.235855
     4  O   -0.470223
     5  H    0.234559
     6  H    0.235666
 Sum of Mulliken charges =  -0.00000

 Dipole moment (field-independent basis, Debye):
    X=             -0.1217    Y=             -0.0046    Z=              0.0000  Tot=              0.1218
 Quadrupole moment (field-independent basis, Debye-Ang):
   XX=             -7.9158   YY=             -0.7339   ZZ=            -14.7113
   XY=             -0.0777   XZ=              0.0000   YZ=              0.0000

 Normal termination of Gaussian 16 at Sat Aug 27 03:22:29 2022.
