 Gaussian 16, Revision A.03,
 Gaussian 16:  ES64L-G16RevA.03 25-Dec-2016

 ------------------
 #p CCSD(T)/cc-pVTZ
 ------------------

 -----------
 H2O_H2O_956
 -----------
 Symbolic Z-matrix:
 Charge =  0 Multiplicity = 1

                         Standard orientation:
 ---------------------------------------------------------------------
 Center     Atomic      Atomic             Coordinates (Angstroms)
 Number     Number       Type             X           Y           Z
 ---------------------------------------------------------------------
      1          8           0        0.021862   -1.304154    0.000000
      2          1           0       -0.778529   -1.874136    0.000000
      3          1           0        0.820611   -1.876435    0.000000
      4          8           0        0.021862    1.312786    0.000000
      5          1           0        0.543206    2.145678    0.000000
      6          1           0       -0.935088    1.535838    0.000000
 ---------------------------------------------------------------------

 SCF Done:  E(RHF) =  -152.096446412     A.U. after   11 cycles
 E2 =    -0.5286018379D+00 EUMP2 =    -0.15262504825026D+03
 CCSD(T)
 CCSD(T)= -0.15265234449D+03

 The electronic state is 1-A'.
 Alpha  occ. eigenvalues --  -20.53524 -20.53278  -1.31177  -1.30453  -0.68526
 Alpha  occ. eigenvalues --   -0.67984  -0.56485  -0.51205  -0.48442  -0.47290
 Alpha virt. eigenvalues --    0.14384   0.17242   0.20515   0.22373   0.51415
 Alpha virt. eigenvalues --    0.58584   0.58805   0.61728   0.71259   0.76677
 Alpha virt. eigenvalues --    0.76681   0.78783   0.82463   0.83671   0.86249

 Mulliken charges:
               1
     1  O   -0.466621
     2  H    0.228238
     3  H    0.237603
     4  O   -0.458663
     5  H    0.223847
     6  H    0.235596
 Sum of Mulliken charges =  -0.00000

 Dipole moment (field-independent basis, Debye):
    X=             -0.6932    Y=             -0.1660    Z=              0.0000  Tot=              0.7128
 Quadrupole moment (field-independent basis, Debye-Ang):
   XX=             -8.2442   YY=             -2.3354   ZZ=            -14.7198
   XY=             -0.4016   XZ=              0.0000   YZ=              0.0000

 Normal termination of Gaussian 16 at Fri Aug 26 21:30:12 2022.
