 Gaussian 16, Revision A.03,
 Gaussian 16:  ES64L-G16RevA.03 25-Dec-2016

 ------------------
 #p CCSD(T)/cc-pVTZ
 ------------------

 -----------
 H2O_H2O_321
 -----------
 Symbolic Z-matrix:
 Charge =  0 Multiplicity = 1

                         Standard orientation:
 ---------------------------------------------------------------------
 Center     Atomic      Atomic             Coordinates (Angstroms)
 Number     Number       Type             X           Y           Z
 ---------------------------------------------------------------------
      1          8           0        0.056246   -0.913516    0.000000
      2          1           0       -0.746186   -1.480621    0.000000
      3          1           0        0.852936   -1.488660    0.000000
      4          8           0        0.056246    1.004893    0.000000
      5          1           0       -0.343415    1.902544    0.000000
      6          1           0       -0.663274    0.335716    0.000000
 ---------------------------------------------------------------------

 SCF Done:  E(RHF) =  -152.027192861     A.U. after   11 cycles
 E2 =    -0.5399687041D+00 EUMP2 =    -0.15256716156561D+03
 CCSD(T)
 CCSD(T)= -0.15259315973D+03

 The electronic state is 1-A'.
 Alpha  occ. eigenvalues --  -20.55859 -20.49558  -1.37182  -1.27202  -0.74884
 Alpha  occ. eigenvalues --   -0.70676  -0.53014  -0.52252  -0.48613  -0.44135
 Alpha virt. eigenvalues --    0.13107   0.18801   0.19574   0.26150   0.50042
 Alpha virt. eigenvalues --    0.54908   0.62138   0.66544   0.72621   0.75485
 Alpha virt. eigenvalues --    0.79345   0.80120   0.83932   0.85227   0.88037

 Mulliken charges:
               1
     1  O   -0.365786
     2  H    0.190119
     3  H    0.228666
     4  O   -0.481247
     5  H    0.169614
     6  H    0.258634
 Sum of Mulliken charges =  -0.00000

 Dipole moment (field-independent basis, Debye):
    X=             -1.5855    Y=             -2.1524    Z=              0.0000  Tot=              2.6734
 Quadrupole moment (field-independent basis, Debye-Ang):
   XX=             -9.8055   YY=             -7.2061   ZZ=            -14.6318
   XY=             -1.7817   XZ=              0.0000   YZ=              0.0000

 Normal termination of Gaussian 16 at Fri Aug 26 15:14:25 2022.
