 Gaussian 16, Revision A.03,
 Gaussian 16:  ES64L-G16RevA.03 25-Dec-2016

 ------------------
 #p CCSD(T)/cc-pVTZ
 ------------------

 ------------
 H2O_H2O_3795
 ------------
 Symbolic Z-matrix:
 Charge =  0 Multiplicity = 1

                         Standard orientation:
 ---------------------------------------------------------------------
 Center     Atomic      Atomic             Coordinates (Angstroms)
 Number     Number       Type             X           Y           Z
 ---------------------------------------------------------------------
      1          8           0        0.055239   -2.765403    0.000000
      2          1           0       -0.745297   -3.335182    0.000000
      3          1           0        0.853842   -3.337887    0.000000
      4          8           0        0.055239    2.849879    0.000000
      5          1           0       -0.287931    3.770608    0.000000
      6          1           0       -0.704432    2.226656    0.000000
 ---------------------------------------------------------------------

 SCF Done:  E(RHF) =  -152.107501686     A.U. after   10 cycles
 E2 =    -0.5258896949D+00 EUMP2 =    -0.15263339138060D+03
 CCSD(T)
 CCSD(T)= -0.15266060798D+03

 The electronic state is 1-A'.
 Alpha  occ. eigenvalues --  -20.55641 -20.55010  -1.32940  -1.32308  -0.70346
 Alpha  occ. eigenvalues --   -0.69703  -0.56392  -0.55755  -0.50052  -0.49422
 Alpha virt. eigenvalues --    0.13929   0.14749   0.20108   0.20829   0.54202
 Alpha virt. eigenvalues --    0.54860   0.57140   0.57754   0.67547   0.68705
 Alpha virt. eigenvalues --    0.78830   0.79446   0.80248   0.80761   0.82454

 Mulliken charges:
               1
     1  O   -0.509443
     2  H    0.253045
     3  H    0.256424
     4  O   -0.508981
     5  H    0.251220
     6  H    0.257734
 Sum of Mulliken charges =  -0.00000

 Dipole moment (field-independent basis, Debye):
    X=             -1.8948    Y=             -1.4845    Z=              0.0000  Tot=              2.4071
 Quadrupole moment (field-independent basis, Debye-Ang):
   XX=             -9.7233   YY=              3.9241   ZZ=            -14.7125
   XY=             -5.0735   XZ=              0.0000   YZ=              0.0000

 Normal termination of Gaussian 16 at Sat Aug 27 03:23:23 2022.
