 Gaussian 16, Revision A.03,
 Gaussian 16:  ES64L-G16RevA.03 25-Dec-2016

 ------------------
 #p CCSD(T)/cc-pVTZ
 ------------------

 ------------
 H2O_H2O_2719
 ------------
 Symbolic Z-matrix:
 Charge =  0 Multiplicity = 1

                         Standard orientation:
 ---------------------------------------------------------------------
 Center     Atomic      Atomic             Coordinates (Angstroms)
 Number     Number       Type             X           Y           Z
 ---------------------------------------------------------------------
      1          8           0        0.054163   -2.197584    0.000000
      2          1           0       -0.746595   -2.767050    0.000000
      3          1           0        0.852543   -2.770379    0.000000
      4          8           0        0.054163    2.274868    0.000000
      5          1           0       -0.227687    3.216179    0.000000
      6          1           0       -0.744866    1.702976    0.000000
 ---------------------------------------------------------------------

 SCF Done:  E(RHF) =  -152.107499933     A.U. after   10 cycles
 E2 =    -0.5260221961D+00 EUMP2 =    -0.15263352212940D+03
 CCSD(T)
 CCSD(T)= -0.15266072474D+03

 The electronic state is 1-A'.
 Alpha  occ. eigenvalues --  -20.55616 -20.54645  -1.32905  -1.31937  -0.70314
 Alpha  occ. eigenvalues --   -0.69320  -0.56346  -0.55378  -0.50018  -0.49055
 Alpha virt. eigenvalues --    0.13429   0.15484   0.20063   0.21536   0.54063
 Alpha virt. eigenvalues --    0.54807   0.57200   0.58062   0.66327   0.71991
 Alpha virt. eigenvalues --    0.78862   0.79813   0.79832   0.81263   0.82668

 Mulliken charges:
               1
     1  O   -0.507148
     2  H    0.250843
     3  H    0.257089
     4  O   -0.508067
     5  H    0.248066
     6  H    0.259216
 Sum of Mulliken charges =  -0.00000

 Dipole moment (field-independent basis, Debye):
    X=             -1.8432    Y=             -1.3877    Z=              0.0000  Tot=              2.3072
 Quadrupole moment (field-independent basis, Debye-Ang):
   XX=             -9.6480   YY=              1.5255   ZZ=            -14.7136
   XY=             -3.8044   XZ=              0.0000   YZ=              0.0000

 Normal termination of Gaussian 16 at Fri Aug 26 15:25:59 2022.
