 Gaussian 16, Revision A.03,
 Gaussian 16:  ES64L-G16RevA.03 25-Dec-2016

 ------------------
 #p CCSD(T)/cc-pVTZ
 ------------------

 ------------
 H2O_H2O_2042
 ------------
 Symbolic Z-matrix:
 Charge =  0 Multiplicity = 1

                         Standard orientation:
 ---------------------------------------------------------------------
 Center     Atomic      Atomic             Coordinates (Angstroms)
 Number     Number       Type             X           Y           Z
 ---------------------------------------------------------------------
      1          8           0        0.051298   -1.846098    0.000000
      2          1           0       -0.749612   -2.415351    0.000000
      3          1           0        0.849526   -2.419106    0.000000
      4          8           0        0.051298    1.909563    0.000000
      5          1           0       -0.105016    2.879652    0.000000
      6          1           0       -0.815664    1.447089    0.000000
 ---------------------------------------------------------------------

 SCF Done:  E(RHF) =  -152.107062635     A.U. after   10 cycles
 E2 =    -0.5263525397D+00 EUMP2 =    -0.15263341517446D+03
 CCSD(T)
 CCSD(T)= -0.15266060330D+03

 The electronic state is 1-A'.
 Alpha  occ. eigenvalues --  -20.55453 -20.54278  -1.32729  -1.31556  -0.70143
 Alpha  occ. eigenvalues --   -0.68931  -0.56138  -0.54957  -0.49840  -0.48675
 Alpha virt. eigenvalues --    0.13420   0.16117   0.20086   0.22289   0.53861
 Alpha virt. eigenvalues --    0.54533   0.57335   0.58516   0.64732   0.75708
 Alpha virt. eigenvalues --    0.78683   0.78909   0.80487   0.80540   0.84902

 Mulliken charges:
               1
     1  O   -0.498912
     2  H    0.246024
     3  H    0.255175
     4  O   -0.503108
     5  H    0.242980
     6  H    0.257842
 Sum of Mulliken charges =  -0.00000

 Dipole moment (field-independent basis, Debye):
    X=             -1.7232    Y=             -1.1706    Z=              0.0000  Tot=              2.0832
 Quadrupole moment (field-independent basis, Debye-Ang):
   XX=             -9.4653   YY=              0.3096   ZZ=            -14.7145
   XY=             -2.7636   XZ=              0.0000   YZ=              0.0000

 Normal termination of Gaussian 16 at Sat Aug 27 08:15:43 2022.
