 Gaussian 16, Revision A.03,
 Gaussian 16:  ES64L-G16RevA.03 25-Dec-2016

 ------------------
 #p CCSD(T)/cc-pVTZ
 ------------------

 ------------
 H2O_H2O_4395
 ------------
 Symbolic Z-matrix:
 Charge =  0 Multiplicity = 1

                         Standard orientation:
 ---------------------------------------------------------------------
 Center     Atomic      Atomic             Coordinates (Angstroms)
 Number     Number       Type             X           Y           Z
 ---------------------------------------------------------------------
      1          8           0        0.055231   -3.084495    0.000000
      2          1           0       -0.745206   -3.654412    0.000000
      3          1           0        0.853934   -3.656841    0.000000
      4          8           0        0.055231    3.168990    0.000000
      5          1           0       -0.288098    4.089659    0.000000
      6          1           0       -0.704331    2.545636    0.000000
 ---------------------------------------------------------------------

 SCF Done:  E(RHF) =  -152.107483766     A.U. after   10 cycles
 E2 =    -0.5258745691D+00 EUMP2 =    -0.15263335833470D+03
 CCSD(T)
 CCSD(T)= -0.15266057668D+03

 The electronic state is 1-A'.
 Alpha  occ. eigenvalues --  -20.55637 -20.55138  -1.32937  -1.32436  -0.70343
 Alpha  occ. eigenvalues --   -0.69835  -0.56388  -0.55883  -0.50049  -0.49550
 Alpha virt. eigenvalues --    0.14028   0.14556   0.20121   0.20660   0.54217
 Alpha virt. eigenvalues --    0.54739   0.57143   0.57643   0.67764   0.68341
 Alpha virt. eigenvalues --    0.78831   0.79323   0.80260   0.80782   0.82205

 Mulliken charges:
               1
     1  O   -0.509345
     2  H    0.253443
     3  H    0.255904
     4  O   -0.509035
     5  H    0.252121
     6  H    0.256912
 Sum of Mulliken charges =   0.00000

 Dipole moment (field-independent basis, Debye):
    X=             -1.8982    Y=             -1.4772    Z=              0.0000  Tot=              2.4052
 Quadrupole moment (field-independent basis, Debye-Ang):
   XX=             -9.7240   YY=              5.5317   ZZ=            -14.7122
   XY=             -5.6744   XZ=              0.0000   YZ=              0.0000

 Normal termination of Gaussian 16 at Sat Aug 27 07:05:13 2022.
