 Gaussian 16, Revision A.03,
 Gaussian 16:  ES64L-G16RevA.03 25-Dec-2016

 ------------------
 #p CCSD(T)/cc-pVTZ
 ------------------

 ------------
 H2O_H2O_1903
 ------------
 Symbolic Z-matrix:
 Charge =  0 Multiplicity = 1

                         Standard orientation:
 ---------------------------------------------------------------------
 Center     Atomic      Atomic             Coordinates (Angstroms)
 Number     Number       Type             X           Y           Z
 ---------------------------------------------------------------------
      1          8           0        0.011143   -1.812902    0.000000
      2          1           0       -0.788730   -2.383611    0.000000
      3          1           0        0.810412   -2.384457    0.000000
      4          8           0        0.011143    1.815085    0.000000
      5          1           0        0.684306    2.530876    0.000000
      6          1           0       -0.884273    2.219728    0.000000
 ---------------------------------------------------------------------

 SCF Done:  E(RHF) =  -152.104418597     A.U. after   10 cycles
 E2 =    -0.5265466408D+00 EUMP2 =    -0.15263096523778D+03
 CCSD(T)
 CCSD(T)= -0.15265821674D+03

 The electronic state is 1-A'.
 Alpha  occ. eigenvalues --  -20.54395 -20.54355  -1.31682  -1.31624  -0.69104
 Alpha  occ. eigenvalues --   -0.69047  -0.55321  -0.54525  -0.48809  -0.48685
 Alpha virt. eigenvalues --    0.14198   0.15981   0.20603   0.21353   0.53607
 Alpha virt. eigenvalues --    0.57039   0.57981   0.58347   0.61221   0.75749
 Alpha virt. eigenvalues --    0.79184   0.79811   0.80594   0.80956   0.83274

 Mulliken charges:
               1
     1  O   -0.487918
     2  H    0.242872
     3  H    0.245114
     4  O   -0.487907
     5  H    0.242618
     6  H    0.245221
 Sum of Mulliken charges =  -0.00000

 Dipole moment (field-independent basis, Debye):
    X=             -0.3735    Y=             -0.0403    Z=              0.0000  Tot=              0.3757
 Quadrupole moment (field-independent basis, Debye-Ang):
   XX=             -7.9279   YY=              2.2432   ZZ=            -14.7091
   XY=             -0.3632   XZ=              0.0000   YZ=              0.0000

 Normal termination of Gaussian 16 at Sat Aug 27 07:27:26 2022.
