 Gaussian 16, Revision A.03,
 Gaussian 16:  ES64L-G16RevA.03 25-Dec-2016

 ------------------
 #p CCSD(T)/cc-pVTZ
 ------------------

 ------------
 H2O_H2O_2343
 ------------
 Symbolic Z-matrix:
 Charge =  0 Multiplicity = 1

                         Standard orientation:
 ---------------------------------------------------------------------
 Center     Atomic      Atomic             Coordinates (Angstroms)
 Number     Number       Type             X           Y           Z
 ---------------------------------------------------------------------
      1          8           0        0.052844   -2.001949    0.000000
      2          1           0       -0.747998   -2.571297    0.000000
      3          1           0        0.851140   -2.574863    0.000000
      4          8           0        0.052844    2.072228    0.000000
      5          1           0       -0.166695    3.029990    0.000000
      6          1           0       -0.781954    1.553943    0.000000
 ---------------------------------------------------------------------

 SCF Done:  E(RHF) =  -152.107348726     A.U. after   10 cycles
 E2 =    -0.5261612635D+00 EUMP2 =    -0.15263350998941D+03
 CCSD(T)
 CCSD(T)= -0.15266070441D+03

 The electronic state is 1-A'.
 Alpha  occ. eigenvalues --  -20.55550 -20.54457  -1.32832  -1.31744  -0.70242
 Alpha  occ. eigenvalues --   -0.69122  -0.56256  -0.55173  -0.49943  -0.48862
 Alpha virt. eigenvalues --    0.13360   0.15828   0.20070   0.21957   0.53992
 Alpha virt. eigenvalues --    0.54596   0.57263   0.58336   0.65486   0.74293
 Alpha virt. eigenvalues --    0.78851   0.79524   0.80078   0.81826   0.83282

 Mulliken charges:
               1
     1  O   -0.503619
     2  H    0.248717
     3  H    0.256434
     4  O   -0.506340
     5  H    0.245843
     6  H    0.258966
 Sum of Mulliken charges =  -0.00000

 Dipole moment (field-independent basis, Debye):
    X=             -1.7877    Y=             -1.2790    Z=              0.0000  Tot=              2.1981
 Quadrupole moment (field-independent basis, Debye-Ang):
   XX=             -9.5615   YY=              0.8705   ZZ=            -14.7141
   XY=             -3.2420   XZ=              0.0000   YZ=              0.0000

 Normal termination of Gaussian 16 at Sat Aug 27 09:59:18 2022.
