 Gaussian 16, Revision A.03,
 Gaussian 16:  ES64L-G16RevA.03 25-Dec-2016

 ------------------
 #p CCSD(T)/cc-pVTZ
 ------------------

 ------------
 H2O_H2O_1908
 ------------
 Symbolic Z-matrix:
 Charge =  0 Multiplicity = 1

                         Standard orientation:
 ---------------------------------------------------------------------
 Center     Atomic      Atomic             Coordinates (Angstroms)
 Number     Number       Type             X           Y           Z
 ---------------------------------------------------------------------
      1          8           0        0.028567   -1.805818    0.000000
      2          1           0       -0.771778   -2.375866    0.000000
      3          1           0        0.827363   -2.378034    0.000000
      4          8           0        0.028567    1.821044    0.000000
      5          1           0        0.436663    2.714892    0.000000
      6          1           0       -0.949319    1.917199    0.000000
 ---------------------------------------------------------------------

 SCF Done:  E(RHF) =  -152.104935897     A.U. after   10 cycles
 E2 =    -0.5265293080D+00 EUMP2 =    -0.15263146520547D+03
 CCSD(T)
 CCSD(T)= -0.15265870216D+03

 The electronic state is 1-A'.
 Alpha  occ. eigenvalues --  -20.54612 -20.54330  -1.31892  -1.31601  -0.69313
 Alpha  occ. eigenvalues --   -0.69009  -0.55427  -0.54662  -0.48999  -0.48691
 Alpha virt. eigenvalues --    0.14024   0.16029   0.20486   0.21503   0.53271
 Alpha virt. eigenvalues --    0.56164   0.57942   0.58360   0.62501   0.76119
 Alpha virt. eigenvalues --    0.79070   0.79435   0.80701   0.80885   0.83445

 Mulliken charges:
               1
     1  O   -0.489993
     2  H    0.242352
     3  H    0.248130
     4  O   -0.490135
     5  H    0.241192
     6  H    0.248454
 Sum of Mulliken charges =  -0.00000

 Dipole moment (field-independent basis, Debye):
    X=             -0.9571    Y=             -0.2810    Z=              0.0000  Tot=              0.9975
 Quadrupole moment (field-independent basis, Debye-Ang):
   XX=             -8.3533   YY=              1.8422   ZZ=            -14.7101
   XY=             -1.0461   XZ=              0.0000   YZ=              0.0000

 Normal termination of Gaussian 16 at Sat Aug 27 07:29:04 2022.
