 Gaussian 16, Revision A.03,
 Gaussian 16:  ES64L-G16RevA.03 25-Dec-2016

 ------------------
 #p CCSD(T)/cc-pVTZ
 ------------------

 -----------
 H2O_H2O_249
 -----------
 Symbolic Z-matrix:
 Charge =  0 Multiplicity = 1

                         Standard orientation:
 ---------------------------------------------------------------------
 Center     Atomic      Atomic             Coordinates (Angstroms)
 Number     Number       Type             X           Y           Z
 ---------------------------------------------------------------------
      1          8           0        0.057418   -0.861552    0.000000
      2          1           0       -0.745199   -1.428395    0.000000
      3          1           0        0.853920   -1.436956    0.000000
      4          8           0        0.057418    0.975165    0.000000
      5          1           0       -0.509425    1.777782    0.000000
      6          1           0       -0.517986    0.178663    0.000000
 ---------------------------------------------------------------------

 SCF Done:  E(RHF) =  -151.979201099     A.U. after   11 cycles
 E2 =    -0.5440797043D+00 EUMP2 =    -0.15252328080303D+03
 CCSD(T)
 CCSD(T)= -0.15254826906D+03

 The electronic state is 1-A'.
 Alpha  occ. eigenvalues --  -20.57898 -20.46497  -1.41429  -1.25501  -0.79167
 Alpha  occ. eigenvalues --   -0.73187  -0.55805  -0.49877  -0.46176  -0.42281
 Alpha virt. eigenvalues --    0.12254   0.17764   0.20587   0.27936   0.48178
 Alpha virt. eigenvalues --    0.53093   0.63707   0.69939   0.73635   0.74343
 Alpha virt. eigenvalues --    0.77292   0.78389   0.84164   0.85783   0.88608

 Mulliken charges:
               1
     1  O   -0.303935
     2  H    0.188877
     3  H    0.233499
     4  O   -0.560204
     5  H    0.163844
     6  H    0.277919
 Sum of Mulliken charges =  -0.00000

 Dipole moment (field-independent basis, Debye):
    X=             -1.5610    Y=             -3.0985    Z=              0.0000  Tot=              3.4695
 Quadrupole moment (field-independent basis, Debye-Ang):
   XX=             -9.7997   YY=             -8.3054   ZZ=            -14.5516
   XY=             -2.1266   XZ=              0.0000   YZ=              0.0000

 Normal termination of Gaussian 16 at Fri Aug 26 14:30:12 2022.
