 Gaussian 16, Revision A.03,
 Gaussian 16:  ES64L-G16RevA.03 25-Dec-2016

 ------------------
 #p CCSD(T)/cc-pVTZ
 ------------------

 ------------
 H2O_H2O_1662
 ------------
 Symbolic Z-matrix:
 Charge =  0 Multiplicity = 1

                         Standard orientation:
 ---------------------------------------------------------------------
 Center     Atomic      Atomic             Coordinates (Angstroms)
 Number     Number       Type             X           Y           Z
 ---------------------------------------------------------------------
      1          8           0        0.040420   -1.663048    0.000000
      2          1           0       -0.760332   -2.232524    0.000000
      3          1           0        0.838807   -2.235834    0.000000
      4          8           0        0.040420    1.696337    0.000000
      5          1           0        0.203956    2.665234    0.000000
      6          1           0       -0.929147    1.536812    0.000000
 ---------------------------------------------------------------------

 SCF Done:  E(RHF) =  -152.105117816     A.U. after   10 cycles
 E2 =    -0.5267819691D+00 EUMP2 =    -0.15263189978458D+03
 CCSD(T)
 CCSD(T)= -0.15265911912D+03

 The electronic state is 1-A'.
 Alpha  occ. eigenvalues --  -20.54818 -20.54089  -1.32099  -1.31350  -0.69523
 Alpha  occ. eigenvalues --   -0.68745  -0.55644  -0.54414  -0.49211  -0.48445
 Alpha virt. eigenvalues --    0.13859   0.16379   0.20308   0.22076   0.53316
 Alpha virt. eigenvalues --    0.55832   0.57811   0.58626   0.64074   0.76980
 Alpha virt. eigenvalues --    0.78361   0.78578   0.79485   0.81470   0.85404

 Mulliken charges:
               1
     1  O   -0.487397
     2  H    0.239692
     3  H    0.249388
     4  O   -0.488458
     5  H    0.236726
     6  H    0.250049
 Sum of Mulliken charges =  -0.00000

 Dipole moment (field-independent basis, Debye):
    X=             -1.3410    Y=             -0.6230    Z=              0.0000  Tot=              1.4787
 Quadrupole moment (field-independent basis, Debye-Ang):
   XX=             -8.8672   YY=              0.2308   ZZ=            -14.7124
   XY=             -1.5287   XZ=              0.0000   YZ=              0.0000

 Normal termination of Gaussian 16 at Sat Aug 27 06:05:12 2022.
