 Gaussian 16, Revision A.03,
 Gaussian 16:  ES64L-G16RevA.03 25-Dec-2016

 ------------------
 #p CCSD(T)/cc-pVTZ
 ------------------

 -----------
 H2O_H2O_875
 -----------
 Symbolic Z-matrix:
 Charge =  0 Multiplicity = 1

                         Standard orientation:
 ---------------------------------------------------------------------
 Center     Atomic      Atomic             Coordinates (Angstroms)
 Number     Number       Type             X           Y           Z
 ---------------------------------------------------------------------
      1          8           0        0.000000   -0.000000    1.268956
      2          1           0        0.000000    0.799571    1.840088
      3          1           0       -0.000000   -0.799571    1.840088
      4          8           0        0.000000   -0.000000   -1.268956
      5          1           0       -0.000000   -0.799571   -1.840088
      6          1           0        0.000000    0.799571   -1.840088
 ---------------------------------------------------------------------

 SCF Done:  E(RHF) =  -152.093281028     A.U. after   10 cycles
 E2 =    -0.5289913925D+00 EUMP2 =    -0.15262227242028D+03
 CCSD(T)
 CCSD(T)= -0.15264958276D+03

 The electronic state is 1-AG.
 Alpha  occ. eigenvalues --  -20.53123 -20.53122  -1.31006  -1.30206  -0.68304
 Alpha  occ. eigenvalues --   -0.67767  -0.56834  -0.50302  -0.48294  -0.46981
 Alpha virt. eigenvalues --    0.14504   0.17449   0.20577   0.22284   0.50391
 Alpha virt. eigenvalues --    0.58773   0.58889   0.62964   0.73286   0.76722
 Alpha virt. eigenvalues --    0.76935   0.79082   0.82997   0.83927   0.86480

 Mulliken charges:
               1
     1  O   -0.460116
     2  H    0.230058
     3  H    0.230058
     4  O   -0.460116
     5  H    0.230058
     6  H    0.230058
 Sum of Mulliken charges =  -0.00000

 Dipole moment (field-independent basis, Debye):
    X=             -0.0000    Y=              0.0000    Z=              0.0000  Tot=              0.0000
 Quadrupole moment (field-independent basis, Debye-Ang):
   XX=            -14.7231   YY=             -7.9743   ZZ=             -2.6537
   XY=              0.0000   XZ=             -0.0000   YZ=              0.0000

 4DQ=-152.6309025\MP4SDQ=-152.6341363\CCSD=-152.6334871\CCSD(T)=-152.64
 Normal termination of Gaussian 16 at Fri Aug 26 20:46:29 2022.
