 Gaussian 16, Revision A.03,
 Gaussian 16:  ES64L-G16RevA.03 25-Dec-2016

 ------------------
 #p CCSD(T)/cc-pVTZ
 ------------------

 -----------
 H2O_H2O_820
 -----------
 Symbolic Z-matrix:
 Charge =  0 Multiplicity = 1

                         Standard orientation:
 ---------------------------------------------------------------------
 Center     Atomic      Atomic             Coordinates (Angstroms)
 Number     Number       Type             X           Y           Z
 ---------------------------------------------------------------------
      1          8           0        0.055331   -1.183316    0.000000
      2          1           0       -0.746448   -1.751345    0.000000
      3          1           0        0.852682   -1.757542    0.000000
      4          8           0        0.055331    1.267550    0.000000
      5          1           0       -0.285828    2.189025    0.000000
      6          1           0       -0.705699    0.645988    0.000000
 ---------------------------------------------------------------------

 SCF Done:  E(RHF) =  -152.098290525     A.U. after   11 cycles
 E2 =    -0.5301970513D+00 EUMP2 =    -0.15262848757628D+03
 CCSD(T)
 CCSD(T)= -0.15265549406D+03

 The electronic state is 1-A'.
 Alpha  occ. eigenvalues --  -20.55915 -20.52238  -1.33763  -1.29591  -0.71141
 Alpha  occ. eigenvalues --   -0.68185  -0.55893  -0.52892  -0.50798  -0.46629
 Alpha virt. eigenvalues --    0.13326   0.18000   0.19642   0.25184   0.51588
 Alpha virt. eigenvalues --    0.56608   0.60024   0.60719   0.71443   0.74051
 Alpha virt. eigenvalues --    0.76928   0.82820   0.83444   0.84130   0.86418

 Mulliken charges:
               1
     1  O   -0.461475
     2  H    0.230218
     3  H    0.249134
     4  O   -0.491059
     5  H    0.215060
     6  H    0.258123
 Sum of Mulliken charges =  -0.00000

 Dipole moment (field-independent basis, Debye):
    X=             -1.7214    Y=             -1.7433    Z=              0.0000  Tot=              2.4500
 Quadrupole moment (field-independent basis, Debye-Ang):
   XX=             -9.7524   YY=             -4.6300   ZZ=            -14.7197
   XY=             -2.1603   XZ=              0.0000   YZ=              0.0000

 Normal termination of Gaussian 16 at Fri Aug 26 20:18:34 2022.
