 Gaussian 16, Revision A.03,
 Gaussian 16:  ES64L-G16RevA.03 25-Dec-2016

 ------------------
 #p CCSD(T)/cc-pVTZ
 ------------------

 -----------
 H2O_H2O_552
 -----------
 Symbolic Z-matrix:
 Charge =  0 Multiplicity = 1

                         Standard orientation:
 ---------------------------------------------------------------------
 Center     Atomic      Atomic             Coordinates (Angstroms)
 Number     Number       Type             X           Y           Z
 ---------------------------------------------------------------------
      1          8           0        0.007455   -1.095583    0.000000
      2          1           0       -0.792450   -1.666247    0.000000
      3          1           0        0.806692   -1.667183    0.000000
      4          8           0        0.007455    1.096552    0.000000
      5          1           0        0.726030    1.766741    0.000000
      6          1           0       -0.859553    1.558939    0.000000
 ---------------------------------------------------------------------

 SCF Done:  E(RHF) =  -152.074146204     A.U. after   10 cycles
 E2 =    -0.5320103028D+00 EUMP2 =    -0.15260615650665D+03
 CCSD(T)
 CCSD(T)= -0.15263328273D+03

 The electronic state is 1-A'.
 Alpha  occ. eigenvalues --  -20.52350 -20.52321  -1.31282  -1.29230  -0.68266
 Alpha  occ. eigenvalues --   -0.66979  -0.59047  -0.48592  -0.46668  -0.45795
 Alpha virt. eigenvalues --    0.14601   0.18056   0.20552   0.22641   0.50257
 Alpha virt. eigenvalues --    0.59045   0.59131   0.65133   0.71409   0.77171
 Alpha virt. eigenvalues --    0.78229   0.81618   0.84370   0.86676   0.86980

 Mulliken charges:
               1
     1  O   -0.445817
     2  H    0.220756
     3  H    0.224749
     4  O   -0.443647
     5  H    0.217062
     6  H    0.226897
 Sum of Mulliken charges =  -0.00000

 Dipole moment (field-independent basis, Debye):
    X=             -0.2244    Y=             -0.0196    Z=              0.0000  Tot=              0.2252
 Quadrupole moment (field-independent basis, Debye-Ang):
   XX=             -8.1052   YY=             -4.5459   ZZ=            -14.7426
   XY=             -0.0789   XZ=              0.0000   YZ=              0.0000

 21854\MP4DQ=-152.6141304\MP4SDQ=-152.617513\CCSD=-152.6168047\CCSD(T)=
 Normal termination of Gaussian 16 at Fri Aug 26 17:34:45 2022.
