 Gaussian 16, Revision A.03,
 Gaussian 16:  ES64L-G16RevA.03 25-Dec-2016

 ------------------
 #p CCSD(T)/cc-pVTZ
 ------------------

 ------------
 H2O_H2O_3719
 ------------
 Symbolic Z-matrix:
 Charge =  0 Multiplicity = 1

                         Standard orientation:
 ---------------------------------------------------------------------
 Center     Atomic      Atomic             Coordinates (Angstroms)
 Number     Number       Type             X           Y           Z
 ---------------------------------------------------------------------
      1          8           0        0.054147   -2.729398    0.000000
      2          1           0       -0.746383   -3.299184    0.000000
      3          1           0        0.852757   -3.301874    0.000000
      4          8           0        0.054147    2.806725    0.000000
      5          1           0       -0.228079    3.747923    0.000000
      6          1           0       -0.744652    2.234514    0.000000
 ---------------------------------------------------------------------

 SCF Done:  E(RHF) =  -152.107416578     A.U. after   10 cycles
 E2 =    -0.5258996604D+00 EUMP2 =    -0.15263331623825D+03
 CCSD(T)
 CCSD(T)= -0.15266053447D+03

 The electronic state is 1-A'.
 Alpha  occ. eigenvalues --  -20.55593 -20.54997  -1.32891  -1.32294  -0.70297
 Alpha  occ. eigenvalues --   -0.69689  -0.56339  -0.55738  -0.50002  -0.49408
 Alpha virt. eigenvalues --    0.13959   0.14766   0.20141   0.20831   0.54248
 Alpha virt. eigenvalues --    0.54875   0.57182   0.57760   0.67569   0.68776
 Alpha virt. eigenvalues --    0.78879   0.79461   0.80295   0.80784   0.82497

 Mulliken charges:
               1
     1  O   -0.508938
     2  H    0.252741
     3  H    0.256226
     4  O   -0.508489
     5  H    0.250989
     6  H    0.257472
 Sum of Mulliken charges =  -0.00000

 Dipole moment (field-independent basis, Debye):
    X=             -1.8567    Y=             -1.3597    Z=              0.0000  Tot=              2.3013
 Quadrupole moment (field-independent basis, Debye-Ang):
   XX=             -9.6480   YY=              4.3513   ZZ=            -14.7123
   XY=             -4.7787   XZ=              0.0000   YZ=              0.0000

 Normal termination of Gaussian 16 at Sat Aug 27 02:44:58 2022.
