 Gaussian 16, Revision A.03,
 Gaussian 16:  ES64L-G16RevA.03 25-Dec-2016

 ------------------
 #p CCSD(T)/cc-pVTZ
 ------------------

 ------------
 H2O_H2O_3739
 ------------
 Symbolic Z-matrix:
 Charge =  0 Multiplicity = 1

                         Standard orientation:
 ---------------------------------------------------------------------
 Center     Atomic      Atomic             Coordinates (Angstroms)
 Number     Number       Type             X           Y           Z
 ---------------------------------------------------------------------
      1          8           0        0.045342   -2.760487    0.000000
      2          1           0       -0.755029   -3.330498    0.000000
      3          1           0        0.844112   -3.332740    0.000000
      4          8           0        0.045342    2.805050    0.000000
      5          1           0        0.080358    3.787028    0.000000
      6          1           0       -0.894917    2.519708    0.000000
 ---------------------------------------------------------------------

 SCF Done:  E(RHF) =  -152.107019318     A.U. after   10 cycles
 E2 =    -0.5259296884D+00 EUMP2 =    -0.15263294900652D+03
 CCSD(T)
 CCSD(T)= -0.15266017632D+03

 The electronic state is 1-A'.
 Alpha  occ. eigenvalues --  -20.55365 -20.55029  -1.32662  -1.32324  -0.70070
 Alpha  occ. eigenvalues --   -0.69723  -0.56092  -0.55753  -0.49771  -0.49434
 Alpha virt. eigenvalues --    0.14204   0.14676   0.20316   0.20710   0.54484
 Alpha virt. eigenvalues --    0.54860   0.57379   0.57717   0.67909   0.68708
 Alpha virt. eigenvalues --    0.79109   0.79439   0.80543   0.80890   0.82526

 Mulliken charges:
               1
     1  O   -0.506612
     2  H    0.251839
     3  H    0.254780
     4  O   -0.506295
     5  H    0.250777
     6  H    0.255512
 Sum of Mulliken charges =  -0.00000

 Dipole moment (field-independent basis, Debye):
    X=             -1.5546    Y=             -0.7824    Z=              0.0000  Tot=              1.7403
 Quadrupole moment (field-independent basis, Debye-Ang):
   XX=             -9.0976   YY=              7.1135   ZZ=            -14.7113
   XY=             -3.5567   XZ=              0.0000   YZ=              0.0000

 Normal termination of Gaussian 16 at Sat Aug 27 02:53:28 2022.
