 Gaussian 16, Revision A.03,
 Gaussian 16:  ES64L-G16RevA.03 25-Dec-2016

 ------------------
 #p CCSD(T)/cc-pVTZ
 ------------------

 ------------
 H2O_H2O_1914
 ------------
 Symbolic Z-matrix:
 Charge =  0 Multiplicity = 1

                         Standard orientation:
 ---------------------------------------------------------------------
 Center     Atomic      Atomic             Coordinates (Angstroms)
 Number     Number       Type             X           Y           Z
 ---------------------------------------------------------------------
      1          8           0        0.045359   -1.789921    0.000000
      2          1           0       -0.755440   -2.359331    0.000000
      3          1           0        0.843699   -2.362773    0.000000
      4          8           0        0.045359    1.834416    0.000000
      5          1           0        0.081112    2.816367    0.000000
      6          1           0       -0.895114    1.549781    0.000000
 ---------------------------------------------------------------------

 SCF Done:  E(RHF) =  -152.106150024     A.U. after   10 cycles
 E2 =    -0.5264848378D+00 EUMP2 =    -0.15263263486177D+03
 CCSD(T)
 CCSD(T)= -0.15265983978D+03

 The electronic state is 1-A'.
 Alpha  occ. eigenvalues --  -20.55113 -20.54251  -1.32389  -1.31521  -0.69808
 Alpha  occ. eigenvalues --   -0.68905  -0.55805  -0.54824  -0.49497  -0.48631
 Alpha virt. eigenvalues --    0.13658   0.16158   0.20229   0.22016   0.53421
 Alpha virt. eigenvalues --    0.55047   0.57599   0.58510   0.64001   0.76440
 Alpha virt. eigenvalues --    0.78752   0.78771   0.80399   0.80774   0.84866

 Mulliken charges:
               1
     1  O   -0.494331
     2  H    0.243507
     3  H    0.252530
     4  O   -0.496665
     5  H    0.240850
     6  H    0.254109
 Sum of Mulliken charges =  -0.00000

 Dipole moment (field-independent basis, Debye):
    X=             -1.5183    Y=             -0.8232    Z=              0.0000  Tot=              1.7271
 Quadrupole moment (field-independent basis, Debye-Ang):
   XX=             -9.1159   YY=              0.7538   ZZ=            -14.7129
   XY=             -2.0738   XZ=              0.0000   YZ=              0.0000

 492337\MP4DQ=-152.641642\MP4SDQ=-152.644735\CCSD=-152.6441294\CCSD(T)=
 Normal termination of Gaussian 16 at Sat Aug 27 07:31:03 2022.
