 Gaussian 16, Revision A.03,
 Gaussian 16:  ES64L-G16RevA.03 25-Dec-2016

 ------------------
 #p CCSD(T)/cc-pVTZ
 ------------------

 ------------
 H2O_H2O_3228
 ------------
 Symbolic Z-matrix:
 Charge =  0 Multiplicity = 1

                         Standard orientation:
 ---------------------------------------------------------------------
 Center     Atomic      Atomic             Coordinates (Angstroms)
 Number     Number       Type             X           Y           Z
 ---------------------------------------------------------------------
      1          8           0        0.011143   -2.517584    0.000000
      2          1           0       -0.788646   -3.088411    0.000000
      3          1           0        0.810496   -3.089020    0.000000
      4          8           0        0.011143    2.519770    0.000000
      5          1           0        0.684200    3.235660    0.000000
      6          1           0       -0.884333    2.924280    0.000000
 ---------------------------------------------------------------------

 SCF Done:  E(RHF) =  -152.106213585     A.U. after   10 cycles
 E2 =    -0.5260159130D+00 EUMP2 =    -0.15263222949842D+03
 CCSD(T)
 CCSD(T)= -0.15265947303D+03

 The electronic state is 1-A'.
 Alpha  occ. eigenvalues --  -20.54949 -20.54929  -1.32242  -1.32222  -0.69652
 Alpha  occ. eigenvalues --   -0.69631  -0.55637  -0.55606  -0.49345  -0.49325
 Alpha virt. eigenvalues --    0.14442   0.14830   0.20586   0.20718   0.54835
 Alpha virt. eigenvalues --    0.55028   0.57715   0.57779   0.67596   0.69721
 Alpha virt. eigenvalues --    0.79521   0.79560   0.80950   0.81045   0.82724

 Mulliken charges:
               1
     1  O   -0.501841
     2  H    0.250444
     3  H    0.251398
     4  O   -0.501800
     5  H    0.250278
     6  H    0.251521
 Sum of Mulliken charges =   0.00000

 Dipole moment (field-independent basis, Debye):
    X=             -0.3808    Y=             -0.0385    Z=              0.0000  Tot=              0.3828
 Quadrupole moment (field-independent basis, Debye-Ang):
   XX=             -7.8916   YY=              7.9691   ZZ=            -14.7099
   XY=             -0.6258   XZ=              0.0000   YZ=              0.0000

 Normal termination of Gaussian 16 at Fri Aug 26 20:32:36 2022.
