 Gaussian 16, Revision A.03,
 Gaussian 16:  ES64L-G16RevA.03 25-Dec-2016

 ------------------
 #p CCSD(T)/cc-pVTZ
 ------------------

 ------------
 H2O_H2O_4416
 ------------
 Symbolic Z-matrix:
 Charge =  0 Multiplicity = 1

                         Standard orientation:
 ---------------------------------------------------------------------
 Center     Atomic      Atomic             Coordinates (Angstroms)
 Number     Number       Type             X           Y           Z
 ---------------------------------------------------------------------
      1          8           0        0.049500   -3.112734    0.000000
      2          1           0       -0.750844   -3.682782    0.000000
      3          1           0        0.848296   -3.684949    0.000000
      4          8           0        0.049500    3.169713    0.000000
      5          1           0       -0.044003    4.147857    0.000000
      6          1           0       -0.845451    2.764043    0.000000
 ---------------------------------------------------------------------

 SCF Done:  E(RHF) =  -152.107258429     A.U. after   10 cycles
 E2 =    -0.5258937683D+00 EUMP2 =    -0.15263315219713D+03
 CCSD(T)
 CCSD(T)= -0.15266037539D+03

 The electronic state is 1-A'.
 Alpha  occ. eigenvalues --  -20.55491 -20.55157  -1.32789  -1.32454  -0.70196
 Alpha  occ. eigenvalues --   -0.69854  -0.56230  -0.55893  -0.49900  -0.49565
 Alpha virt. eigenvalues --    0.14164   0.14513   0.20238   0.20595   0.54367
 Alpha virt. eigenvalues --    0.54722   0.57273   0.57608   0.67955   0.68329
 Alpha virt. eigenvalues --    0.78980   0.79309   0.80413   0.80771   0.82343

 Mulliken charges:
               1
     1  O   -0.508007
     2  H    0.252881
     3  H    0.255126
     4  O   -0.507784
     5  H    0.251951
     6  H    0.255832
 Sum of Mulliken charges =   0.00000

 Dipole moment (field-independent basis, Debye):
    X=             -1.7011    Y=             -0.9955    Z=              0.0000  Tot=              1.9710
 Quadrupole moment (field-independent basis, Debye-Ang):
   XX=             -9.3454   YY=              8.2931   ZZ=            -14.7117
   XY=             -4.6809   XZ=              0.0000   YZ=              0.0000

 Normal termination of Gaussian 16 at Sat Aug 27 07:12:04 2022.
