 Gaussian 16, Revision A.03,
 Gaussian 16:  ES64L-G16RevA.03 25-Dec-2016

 ------------------
 #p CCSD(T)/cc-pVTZ
 ------------------

 ------------
 H2O_H2O_1911
 ------------
 Symbolic Z-matrix:
 Charge =  0 Multiplicity = 1

                         Standard orientation:
 ---------------------------------------------------------------------
 Center     Atomic      Atomic             Coordinates (Angstroms)
 Number     Number       Type             X           Y           Z
 ---------------------------------------------------------------------
      1          8           0        0.037683   -1.798765    0.000000
      2          1           0       -0.762908   -2.368466    0.000000
      3          1           0        0.836231   -2.371326    0.000000
      4          8           0        0.037683    1.826977    0.000000
      5          1           0        0.263969    2.783168    0.000000
      6          1           0       -0.940215    1.730931    0.000000
 ---------------------------------------------------------------------

 SCF Done:  E(RHF) =  -152.105461629     A.U. after   10 cycles
 E2 =    -0.5265097252D+00 EUMP2 =    -0.15263197135436D+03
 CCSD(T)
 CCSD(T)= -0.15265919419D+03

 The electronic state is 1-A'.
 Alpha  occ. eigenvalues --  -20.54831 -20.54299  -1.32109  -1.31568  -0.69530
 Alpha  occ. eigenvalues --   -0.68965  -0.55571  -0.54758  -0.49215  -0.48669
 Alpha virt. eigenvalues --    0.13856   0.16083   0.20370   0.21700   0.53205
 Alpha virt. eigenvalues --    0.55608   0.57808   0.58427   0.63305   0.76401
 Alpha virt. eigenvalues --    0.78940   0.79137   0.80614   0.80828   0.83978

 Mulliken charges:
               1
     1  O   -0.492004
     2  H    0.242684
     3  H    0.250286
     4  O   -0.492775
     5  H    0.240771
     6  H    0.251038
 Sum of Mulliken charges =  -0.00000

 Dipole moment (field-independent basis, Debye):
    X=             -1.2619    Y=             -0.5209    Z=              0.0000  Tot=              1.3652
 Quadrupole moment (field-independent basis, Debye-Ang):
   XX=             -8.7245   YY=              1.3915   ZZ=            -14.7113
   XY=             -1.5317   XZ=              0.0000   YZ=              0.0000

 Normal termination of Gaussian 16 at Sat Aug 27 07:30:03 2022.
