 Gaussian 16, Revision A.03,
 Gaussian 16:  ES64L-G16RevA.03 25-Dec-2016

 ------------------
 #p CCSD(T)/cc-pVTZ
 ------------------

 ------------
 H2O_H2O_3857
 ------------
 Symbolic Z-matrix:
 Charge =  0 Multiplicity = 1

                         Standard orientation:
 ---------------------------------------------------------------------
 Center     Atomic      Atomic             Coordinates (Angstroms)
 Number     Number       Type             X           Y           Z
 ---------------------------------------------------------------------
      1          8           0        0.025265   -2.844792    0.000000
      2          1           0       -0.774741   -3.415314    0.000000
      3          1           0        0.824400   -3.416534    0.000000
      4          8           0        0.025265    2.856534    0.000000
      5          1           0        0.490433    3.722053    0.000000
      6          1           0       -0.944333    3.015864    0.000000
 ---------------------------------------------------------------------

 SCF Done:  E(RHF) =  -152.106696826     A.U. after   10 cycles
 E2 =    -0.5259515265D+00 EUMP2 =    -0.15263264835260D+03
 CCSD(T)
 CCSD(T)= -0.15265988302D+03

 The electronic state is 1-A'.
 Alpha  occ. eigenvalues --  -20.55161 -20.55077  -1.32456  -1.32372  -0.69864
 Alpha  occ. eigenvalues --   -0.69777  -0.55870  -0.55786  -0.49562  -0.49479
 Alpha virt. eigenvalues --    0.14418   0.14578   0.20485   0.20592   0.54700
 Alpha virt. eigenvalues --    0.54803   0.57560   0.57649   0.68220   0.68618
 Alpha virt. eigenvalues --    0.79316   0.79399   0.80761   0.80855   0.82696

 Mulliken charges:
               1
     1  O   -0.504684
     2  H    0.251575
     3  H    0.253109
     4  O   -0.504578
     5  H    0.251204
     6  H    0.253374
 Sum of Mulliken charges =  -0.00000

 Dipole moment (field-independent basis, Debye):
    X=             -0.8664    Y=             -0.2057    Z=              0.0000  Tot=              0.8905
 Quadrupole moment (field-independent basis, Debye-Ang):
   XX=             -8.2076   YY=              9.9793   ZZ=            -14.7106
   XY=             -1.7788   XZ=              0.0000   YZ=              0.0000

 Normal termination of Gaussian 16 at Sat Aug 27 03:50:08 2022.
