 Gaussian 16, Revision A.03,
 Gaussian 16:  ES64L-G16RevA.03 25-Dec-2016

 ------------------
 #p CCSD(T)/cc-pVTZ
 ------------------

 ------------
 H2O_H2O_2607
 ------------
 Symbolic Z-matrix:
 Charge =  0 Multiplicity = 1

                         Standard orientation:
 ---------------------------------------------------------------------
 Center     Atomic      Atomic             Coordinates (Angstroms)
 Number     Number       Type             X           Y           Z
 ---------------------------------------------------------------------
      1          8           0        0.025266   -2.180003    0.000000
      2          1           0       -0.774872   -2.750339    0.000000
      3          1           0        0.824269   -2.751930    0.000000
      4          8           0        0.025266    2.191732    0.000000
      5          1           0        0.490636    3.057144    0.000000
      6          1           0       -0.944294    2.351288    0.000000
 ---------------------------------------------------------------------

 SCF Done:  E(RHF) =  -152.105843054     A.U. after   10 cycles
 E2 =    -0.5261272255D+00 EUMP2 =    -0.15263197027975D+03
 CCSD(T)
 CCSD(T)= -0.15265921413D+03

 The electronic state is 1-A'.
 Alpha  occ. eigenvalues --  -20.54849 -20.54704  -1.32138  -1.31991  -0.69551
 Alpha  occ. eigenvalues --   -0.69398  -0.55531  -0.55329  -0.49239  -0.49093
 Alpha virt. eigenvalues --    0.14184   0.15312   0.20544   0.20996   0.54537
 Alpha virt. eigenvalues --    0.55454   0.57769   0.57984   0.65049   0.72640
 Alpha virt. eigenvalues --    0.79546   0.79864   0.81013   0.81186   0.82310

 Mulliken charges:
               1
     1  O   -0.499329
     2  H    0.248100
     3  H    0.251287
     4  O   -0.499019
     5  H    0.247436
     6  H    0.251525
 Sum of Mulliken charges =   0.00000

 Dipole moment (field-independent basis, Debye):
    X=             -0.8585    Y=             -0.2096    Z=              0.0000  Tot=              0.8837
 Quadrupole moment (field-independent basis, Debye-Ang):
   XX=             -8.2220   YY=              4.8745   ZZ=            -14.7100
   XY=             -1.2119   XZ=              0.0000   YZ=              0.0000

 Normal termination of Gaussian 16 at Fri Aug 26 14:17:30 2022.
