 Gaussian 16, Revision A.03,
 Gaussian 16:  ES64L-G16RevA.03 25-Dec-2016

 ------------------
 #p CCSD(T)/cc-pVTZ
 ------------------

 ------------
 H2O_H2O_3325
 ------------
 Symbolic Z-matrix:
 Charge =  0 Multiplicity = 1

                         Standard orientation:
 ---------------------------------------------------------------------
 Center     Atomic      Atomic             Coordinates (Angstroms)
 Number     Number       Type             X           Y           Z
 ---------------------------------------------------------------------
      1          8           0        0.000000   -0.000000    2.571955
      2          1           0        0.000000    0.799571    3.143087
      3          1           0       -0.000000   -0.799571    3.143087
      4          8           0        0.000000   -0.000000   -2.571955
      5          1           0       -0.000000   -0.799571   -3.143087
      6          1           0        0.000000    0.799571   -3.143087
 ---------------------------------------------------------------------

 SCF Done:  E(RHF) =  -152.106256499     A.U. after   10 cycles
 E2 =    -0.5260065574D+00 EUMP2 =    -0.15263226305620D+03
 CCSD(T)
 CCSD(T)= -0.15265950607D+03

 The electronic state is 1-AG.
 Alpha  occ. eigenvalues --  -20.54959 -20.54959  -1.32252  -1.32252  -0.69662
 Alpha  occ. eigenvalues --   -0.69661  -0.55653  -0.55635  -0.49356  -0.49354
 Alpha virt. eigenvalues --    0.14467   0.14775   0.20588   0.20688   0.54841
 Alpha virt. eigenvalues --    0.54982   0.57707   0.57755   0.67812   0.69457
 Alpha virt. eigenvalues --    0.79509   0.79533   0.80939   0.81013   0.82758

 Mulliken charges:
               1
     1  O   -0.502089
     2  H    0.251045
     3  H    0.251045
     4  O   -0.502089
     5  H    0.251045
     6  H    0.251045
 Sum of Mulliken charges =   0.00000

 Dipole moment (field-independent basis, Debye):
    X=             -0.0000    Y=              0.0000    Z=              0.0000  Tot=              0.0000
 Quadrupole moment (field-independent basis, Debye-Ang):
   XX=            -14.7099   YY=             -7.8127   ZZ=              8.5174
   XY=              0.0000   XZ=              0.0000   YZ=             -0.0000

 9\MP4DQ=-152.6413843\MP4SDQ=-152.6444498\CCSD=-152.6438594\CCSD(T)=-15
 Normal termination of Gaussian 16 at Fri Aug 26 21:23:06 2022.
