 Gaussian 16, Revision A.03,
 Gaussian 16:  ES64L-G16RevA.03 25-Dec-2016

 ------------------
 #p CCSD(T)/cc-pVTZ
 ------------------

 ------------
 H2O_H2O_2187
 ------------
 Symbolic Z-matrix:
 Charge =  0 Multiplicity = 1

                         Standard orientation:
 ---------------------------------------------------------------------
 Center     Atomic      Atomic             Coordinates (Angstroms)
 Number     Number       Type             X           Y           Z
 ---------------------------------------------------------------------
      1          8           0        0.040415   -1.942250    0.000000
      2          1           0       -0.760169   -2.511962    0.000000
      3          1           0        0.838971   -2.514800    0.000000
      4          8           0        0.040415    1.975562    0.000000
      5          1           0        0.203666    2.944508    0.000000
      6          1           0       -0.929104    1.815752    0.000000
 ---------------------------------------------------------------------

 SCF Done:  E(RHF) =  -152.106028775     A.U. after   10 cycles
 E2 =    -0.5262896665D+00 EUMP2 =    -0.15263231844149D+03
 CCSD(T)
 CCSD(T)= -0.15265954053D+03

 The electronic state is 1-A'.
 Alpha  occ. eigenvalues --  -20.55000 -20.54461  -1.32281  -1.31738  -0.69697
 Alpha  occ. eigenvalues --   -0.69132  -0.55682  -0.55064  -0.49386  -0.48845
 Alpha virt. eigenvalues --    0.13784   0.15815   0.20344   0.21510   0.53551
 Alpha virt. eigenvalues --    0.55304   0.57686   0.58239   0.63928   0.75279
 Alpha virt. eigenvalues --    0.79205   0.79873   0.80286   0.81188   0.83290

 Mulliken charges:
               1
     1  O   -0.497603
     2  H    0.245780
     3  H    0.252505
     4  O   -0.498031
     5  H    0.243968
     6  H    0.253380
 Sum of Mulliken charges =  -0.00000

 Dipole moment (field-independent basis, Debye):
    X=             -1.3631    Y=             -0.6070    Z=              0.0000  Tot=              1.4921
 Quadrupole moment (field-independent basis, Debye-Ang):
   XX=             -8.8473   YY=              2.2429   ZZ=            -14.7114
   XY=             -1.9043   XZ=              0.0000   YZ=              0.0000

 Normal termination of Gaussian 16 at Sat Aug 27 09:06:19 2022.
