 Gaussian 16, Revision A.03,
 Gaussian 16:  ES64L-G16RevA.03 25-Dec-2016

 ------------------
 #p CCSD(T)/cc-pVTZ
 ------------------

 ------------
 H2O_H2O_4679
 ------------
 Symbolic Z-matrix:
 Charge =  0 Multiplicity = 1

                         Standard orientation:
 ---------------------------------------------------------------------
 Center     Atomic      Atomic             Coordinates (Angstroms)
 Number     Number       Type             X           Y           Z
 ---------------------------------------------------------------------
      1          8           0        0.014783   -3.287826    0.000000
      2          1           0       -0.785009   -3.858649    0.000000
      3          1           0        0.814133   -3.859268    0.000000
      4          8           0        0.014783    3.291707    0.000000
      5          1           0        0.639583    4.050081    0.000000
      6          1           0       -0.905231    3.636790    0.000000
 ---------------------------------------------------------------------

 SCF Done:  E(RHF) =  -152.106916693     A.U. after   10 cycles
 E2 =    -0.5259190499D+00 EUMP2 =    -0.15263283574322D+03
 CCSD(T)
 CCSD(T)= -0.15266006652D+03

 The electronic state is 1-A'.
 Alpha  occ. eigenvalues --  -20.55243 -20.55222  -1.32539  -1.32518  -0.69946
 Alpha  occ. eigenvalues --   -0.69925  -0.55964  -0.55943  -0.49647  -0.49626
 Alpha virt. eigenvalues --    0.14392   0.14417   0.20443   0.20465   0.54622
 Alpha virt. eigenvalues --    0.54645   0.57497   0.57518   0.68259   0.68291
 Alpha virt. eigenvalues --    0.79232   0.79253   0.80674   0.80697   0.82601

 Mulliken charges:
               1
     1  O   -0.505966
     2  H    0.252684
     3  H    0.253282
     4  O   -0.505947
     5  H    0.252547
     6  H    0.253400
 Sum of Mulliken charges =  -0.00000

 Dipole moment (field-independent basis, Debye):
    X=             -0.5082    Y=             -0.0676    Z=              0.0000  Tot=              0.5127
 Quadrupole moment (field-independent basis, Debye-Ang):
   XX=             -7.9393   YY=             13.9687   ZZ=            -14.7108
   XY=             -1.2251   XZ=              0.0000   YZ=              0.0000

 Normal termination of Gaussian 16 at Sat Aug 27 08:42:51 2022.
