 Gaussian 16, Revision A.03,
 Gaussian 16:  ES64L-G16RevA.03 25-Dec-2016

 ------------------
 #p CCSD(T)/cc-pVTZ
 ------------------

 ------------
 H2O_H2O_2047
 ------------
 Symbolic Z-matrix:
 Charge =  0 Multiplicity = 1

                         Standard orientation:
 ---------------------------------------------------------------------
 Center     Atomic      Atomic             Coordinates (Angstroms)
 Number     Number       Type             X           Y           Z
 ---------------------------------------------------------------------
      1          8           0        0.056753   -1.826788    0.000000
      2          1           0       -0.744299   -2.395841    0.000000
      3          1           0        0.854838   -2.399995    0.000000
      4          8           0        0.056753    1.925810    0.000000
      5          1           0       -0.402873    2.794286    0.000000
      6          1           0       -0.615721    1.209372    0.000000
 ---------------------------------------------------------------------

 SCF Done:  E(RHF) =  -152.108684708     A.U. after   10 cycles
 E2 =    -0.5263206583D+00 EUMP2 =    -0.15263500536669D+03
 CCSD(T)
 CCSD(T)= -0.15266215338D+03

 The electronic state is 1-A'.
 Alpha  occ. eigenvalues --  -20.56067 -20.54132  -1.33335  -1.31430  -0.70742
 Alpha  occ. eigenvalues --   -0.68797  -0.56802  -0.54897  -0.50456  -0.48560
 Alpha virt. eigenvalues --    0.13026   0.16311   0.19805   0.23390   0.53668
 Alpha virt. eigenvalues --    0.55131   0.56804   0.58494   0.66165   0.74330
 Alpha virt. eigenvalues --    0.78090   0.79141   0.79575   0.80482   0.84260

 Mulliken charges:
               1
     1  O   -0.502160
     2  H    0.248817
     3  H    0.258077
     4  O   -0.512469
     5  H    0.244660
     6  H    0.263076
 Sum of Mulliken charges =   0.00000

 Dipole moment (field-independent basis, Debye):
    X=             -1.9082    Y=             -1.8425    Z=              0.0000  Tot=              2.6525
 Quadrupole moment (field-independent basis, Debye-Ang):
   XX=             -9.8258   YY=             -1.6677   ZZ=            -14.7183
   XY=             -3.6888   XZ=              0.0000   YZ=              0.0000

 Normal termination of Gaussian 16 at Sat Aug 27 08:17:23 2022.
