 Gaussian 16, Revision A.03,
 Gaussian 16:  ES64L-G16RevA.03 25-Dec-2016

 ------------------
 #p CCSD(T)/cc-pVTZ
 ------------------

 -----------
 H2O_H2O_325
 -----------
 Symbolic Z-matrix:
 Charge =  0 Multiplicity = 1

                         Standard orientation:
 ---------------------------------------------------------------------
 Center     Atomic      Atomic             Coordinates (Angstroms)
 Number     Number       Type             X           Y           Z
 ---------------------------------------------------------------------
      1          8           0       -0.000000    0.000000    0.976446
      2          1           0        0.000000   -0.799571    1.547578
      3          1           0        0.000000    0.799571    1.547578
      4          8           0        0.000000   -0.000000   -0.976446
      5          1           0        0.000000    0.799571   -1.547578
      6          1           0        0.000000   -0.799571   -1.547578
 ---------------------------------------------------------------------

 SCF Done:  E(RHF) =  -152.039535043     A.U. after   11 cycles
 E2 =    -0.5365991018D+00 EUMP2 =    -0.15257613414483D+03
 CCSD(T)
 CCSD(T)= -0.15260279812D+03

 The electronic state is 1-AG.
 Alpha  occ. eigenvalues --  -20.51601 -20.51599  -1.32203  -1.28251  -0.68588
 Alpha  occ. eigenvalues --   -0.66223  -0.61912  -0.49369  -0.44630  -0.42321
 Alpha virt. eigenvalues --    0.14679   0.18619   0.20429   0.22847   0.50215
 Alpha virt. eigenvalues --    0.59200   0.59303   0.66654   0.69461   0.78357
 Alpha virt. eigenvalues --    0.79606   0.83185   0.84516   0.86653   0.87343

 Mulliken charges:
               1
     1  O   -0.420971
     2  H    0.210486
     3  H    0.210486
     4  O   -0.420971
     5  H    0.210486
     6  H    0.210486
 Sum of Mulliken charges =   0.00000

 Dipole moment (field-independent basis, Debye):
    X=              0.0000    Y=              0.0000    Z=             -0.0000  Tot=              0.0000
 Quadrupole moment (field-independent basis, Debye-Ang):
   XX=            -14.7553   YY=             -8.1888   ZZ=             -6.1128
   XY=              0.0000   XZ=             -0.0000   YZ=             -0.0000

 4DQ=-152.5829874\MP4SDQ=-152.5866045\CCSD=-152.5857824\CCSD(T)=-152.60
 Normal termination of Gaussian 16 at Fri Aug 26 15:17:05 2022.
