 Gaussian 16, Revision A.03,
 Gaussian 16:  ES64L-G16RevA.03 25-Dec-2016

 ------------------
 #p CCSD(T)/cc-pVTZ
 ------------------

 ------------
 H2O_H2O_1229
 ------------
 Symbolic Z-matrix:
 Charge =  0 Multiplicity = 1

                         Standard orientation:
 ---------------------------------------------------------------------
 Center     Atomic      Atomic             Coordinates (Angstroms)
 Number     Number       Type             X           Y           Z
 ---------------------------------------------------------------------
      1          8           0        0.014784   -1.452998    0.000000
      2          1           0       -0.785287   -2.023431    0.000000
      3          1           0        0.813855   -2.024829    0.000000
      4          8           0        0.014784    1.456865    0.000000
      5          1           0        0.639954    2.214933    0.000000
      6          1           0       -0.905061    1.802396    0.000000
 ---------------------------------------------------------------------

 SCF Done:  E(RHF) =  -152.100599234     A.U. after   11 cycles
 E2 =    -0.5276081365D+00 EUMP2 =    -0.15262820737006D+03
 CCSD(T)
 CCSD(T)= -0.15265550818D+03

 The electronic state is 1-A'.
 Alpha  occ. eigenvalues --  -20.53803 -20.53706  -1.31235  -1.30920  -0.68636
 Alpha  occ. eigenvalues --   -0.68390  -0.55782  -0.52620  -0.48449  -0.47852
 Alpha virt. eigenvalues --    0.14372   0.16845   0.20545   0.21989   0.51577
 Alpha virt. eigenvalues --    0.58405   0.58692   0.60267   0.67763   0.76433
 Alpha virt. eigenvalues --    0.77449   0.78347   0.79077   0.82981   0.86138

 Mulliken charges:
               1
     1  O   -0.471197
     2  H    0.232885
     3  H    0.238288
     4  O   -0.469142
     5  H    0.232134
     6  H    0.237031
 Sum of Mulliken charges =  -0.00000

 Dipole moment (field-independent basis, Debye):
    X=             -0.4806    Y=             -0.0732    Z=              0.0000  Tot=              0.4862
 Quadrupole moment (field-independent basis, Debye-Ang):
   XX=             -8.0435   YY=             -0.9103   ZZ=            -14.7121
   XY=             -0.3174   XZ=              0.0000   YZ=              0.0000

 Normal termination of Gaussian 16 at Sat Aug 27 03:11:25 2022.
