 Gaussian 16, Revision A.03,
 Gaussian 16:  ES64L-G16RevA.03 25-Dec-2016

 ------------------
 #p CCSD(T)/cc-pVTZ
 ------------------

 -----------
 H2O_H2O_814
 -----------
 Symbolic Z-matrix:
 Charge =  0 Multiplicity = 1

                         Standard orientation:
 ---------------------------------------------------------------------
 Center     Atomic      Atomic             Coordinates (Angstroms)
 Number     Number       Type             X           Y           Z
 ---------------------------------------------------------------------
      1          8           0        0.045382   -1.204950    0.000000
      2          1           0       -0.756001   -1.773538    0.000000
      3          1           0        0.843133   -1.778621    0.000000
      4          8           0        0.045382    1.249351    0.000000
      5          1           0        0.082142    2.231266    0.000000
      6          1           0       -0.895383    0.965681    0.000000
 ---------------------------------------------------------------------

 SCF Done:  E(RHF) =  -152.095707788     A.U. after   11 cycles
 E2 =    -0.5295629582D+00 EUMP2 =    -0.15262527074596D+03
 CCSD(T)
 CCSD(T)= -0.15265245475D+03

 The electronic state is 1-A'.
 Alpha  occ. eigenvalues --  -20.54419 -20.52872  -1.32182  -1.30074  -0.69549
 Alpha  occ. eigenvalues --   -0.67895  -0.56543  -0.51567  -0.49357  -0.46998
 Alpha virt. eigenvalues --    0.13949   0.17510   0.20135   0.23463   0.53229
 Alpha virt. eigenvalues --    0.57748   0.58289   0.60525   0.70848   0.75479
 Alpha virt. eigenvalues --    0.77867   0.79872   0.83265   0.85398   0.85986

 Mulliken charges:
               1
     1  O   -0.468338
     2  H    0.226961
     3  H    0.245300
     4  O   -0.459412
     5  H    0.210141
     6  H    0.245348
 Sum of Mulliken charges =  -0.00000

 Dipole moment (field-independent basis, Debye):
    X=             -1.4102    Y=             -0.8749    Z=              0.0000  Tot=              1.6596
 Quadrupole moment (field-independent basis, Debye-Ang):
   XX=             -9.1992   YY=             -3.5964   ZZ=            -14.7248
   XY=             -1.2115   XZ=              0.0000   YZ=              0.0000

 Normal termination of Gaussian 16 at Fri Aug 26 20:15:29 2022.
