 Gaussian 16, Revision A.03,
 Gaussian 16:  ES64L-G16RevA.03 25-Dec-2016

 ------------------
 #p CCSD(T)/cc-pVTZ
 ------------------

 -----------
 H2O_H2O_306
 -----------
 Symbolic Z-matrix:
 Charge =  0 Multiplicity = 1

                         Standard orientation:
 ---------------------------------------------------------------------
 Center     Atomic      Atomic             Coordinates (Angstroms)
 Number     Number       Type             X           Y           Z
 ---------------------------------------------------------------------
      1          8           0        0.021865   -0.958473    0.000000
      2          1           0       -0.778821   -1.528041    0.000000
      3          1           0        0.820318   -1.531166    0.000000
      4          8           0        0.021865    0.967082    0.000000
      5          1           0        0.543638    1.799704    0.000000
      6          1           0       -0.934970    1.190627    0.000000
 ---------------------------------------------------------------------

 SCF Done:  E(RHF) =  -152.036850078     A.U. after   11 cycles
 E2 =    -0.5371814626D+00 EUMP2 =    -0.15257403154059D+03
 CCSD(T)
 CCSD(T)= -0.15260061200D+03

 The electronic state is 1-A'.
 Alpha  occ. eigenvalues --  -20.51892 -20.51628  -1.32644  -1.28197  -0.69120
 Alpha  occ. eigenvalues --   -0.66688  -0.61396  -0.49727  -0.44622  -0.42436
 Alpha virt. eigenvalues --    0.14568   0.18480   0.20317   0.23098   0.51534
 Alpha virt. eigenvalues --    0.58473   0.58938   0.65693   0.69670   0.78086
 Alpha virt. eigenvalues --    0.79060   0.83037   0.84079   0.86370   0.87835

 Mulliken charges:
               1
     1  O   -0.425643
     2  H    0.204683
     3  H    0.219270
     4  O   -0.404486
     5  H    0.179124
     6  H    0.227052
 Sum of Mulliken charges =   0.00000

 Dipole moment (field-independent basis, Debye):
    X=             -0.6293    Y=             -0.1875    Z=              0.0000  Tot=              0.6567
 Quadrupole moment (field-independent basis, Debye-Ang):
   XX=             -8.4527   YY=             -6.2847   ZZ=            -14.7443
   XY=             -0.2323   XZ=              0.0000   YZ=              0.0000

 Normal termination of Gaussian 16 at Fri Aug 26 15:06:23 2022.
