 Gaussian 16, Revision A.03,
 Gaussian 16:  ES64L-G16RevA.03 25-Dec-2016

 ------------------
 #p CCSD(T)/cc-pVTZ
 ------------------

 ------------
 H2O_H2O_3323
 ------------
 Symbolic Z-matrix:
 Charge =  0 Multiplicity = 1

                         Standard orientation:
 ---------------------------------------------------------------------
 Center     Atomic      Atomic             Coordinates (Angstroms)
 Number     Number       Type             X           Y           Z
 ---------------------------------------------------------------------
      1          8           0        0.057093   -2.500800    0.000000
      2          1           0       -0.743573   -3.070396    0.000000
      3          1           0        0.855566   -3.073467    0.000000
      4          8           0        0.057093    2.607337    0.000000
      5          1           0       -0.458916    3.443543    0.000000
      6          1           0       -0.566570    1.848028    0.000000
 ---------------------------------------------------------------------

 SCF Done:  E(RHF) =  -152.107916672     A.U. after   10 cycles
 E2 =    -0.5258968263D+00 EUMP2 =    -0.15263381349796D+03
 CCSD(T)
 CCSD(T)= -0.15266101609D+03

 The electronic state is 1-A'.
 Alpha  occ. eigenvalues --  -20.55836 -20.54847  -1.33132  -1.32147  -0.70538
 Alpha  occ. eigenvalues --   -0.69536  -0.56600  -0.55604  -0.50247  -0.49266
 Alpha virt. eigenvalues --    0.13508   0.15089   0.19960   0.21179   0.53986
 Alpha virt. eigenvalues --    0.54894   0.56988   0.57852   0.66907   0.69482
 Alpha virt. eigenvalues --    0.78641   0.79593   0.79877   0.80316   0.82781

 Mulliken charges:
               1
     1  O   -0.511215
     2  H    0.253562
     3  H    0.257939
     4  O   -0.510831
     5  H    0.250612
     6  H    0.259933
 Sum of Mulliken charges =  -0.00000

 Dipole moment (field-independent basis, Debye):
    X=             -1.9539    Y=             -1.8875    Z=              0.0000  Tot=              2.7167
 Quadrupole moment (field-independent basis, Debye-Ang):
   XX=             -9.8534   YY=              0.7743   ZZ=            -14.7138
   XY=             -5.1467   XZ=              0.0000   YZ=              0.0000

 Normal termination of Gaussian 16 at Fri Aug 26 21:22:03 2022.
