 Gaussian 16, Revision A.03,
 Gaussian 16:  ES64L-G16RevA.03 25-Dec-2016

 ------------------
 #p CCSD(T)/cc-pVTZ
 ------------------

 ------------
 H2O_H2O_2255
 ------------
 Symbolic Z-matrix:
 Charge =  0 Multiplicity = 1

                         Standard orientation:
 ---------------------------------------------------------------------
 Center     Atomic      Atomic             Coordinates (Angstroms)
 Number     Number       Type             X           Y           Z
 ---------------------------------------------------------------------
      1          8           0        0.018361   -1.996954    0.000000
      2          1           0       -0.781661   -2.567454    0.000000
      3          1           0        0.817480   -2.568718    0.000000
      4          8           0        0.018361    2.002987    0.000000
      5          1           0        0.592545    2.800370    0.000000
      6          1           0       -0.922137    2.287538    0.000000
 ---------------------------------------------------------------------

 SCF Done:  E(RHF) =  -152.105269044     A.U. after   10 cycles
 E2 =    -0.5262851025D+00 EUMP2 =    -0.15263155414667D+03
 CCSD(T)
 CCSD(T)= -0.15265879964D+03

 The electronic state is 1-A'.
 Alpha  occ. eigenvalues --  -20.54642 -20.54552  -1.31926  -1.31833  -0.69343
 Alpha  occ. eigenvalues --   -0.69246  -0.55388  -0.55023  -0.49029  -0.48926
 Alpha virt. eigenvalues --    0.14152   0.15626   0.20587   0.21150   0.54205
 Alpha virt. eigenvalues --    0.56010   0.57880   0.58146   0.62711   0.74610
 Alpha virt. eigenvalues --    0.79499   0.80268   0.80635   0.81238   0.82181

 Mulliken charges:
               1
     1  O   -0.494878
     2  H    0.246027
     3  H    0.248935
     4  O   -0.494723
     5  H    0.245538
     6  H    0.249101
 Sum of Mulliken charges =  -0.00000

 Dipole moment (field-independent basis, Debye):
    X=             -0.6204    Y=             -0.1093    Z=              0.0000  Tot=              0.6300
 Quadrupole moment (field-independent basis, Debye-Ang):
   XX=             -8.0445   YY=              3.6412   ZZ=            -14.7096
   XY=             -0.7338   XZ=              0.0000   YZ=              0.0000

 Normal termination of Gaussian 16 at Sat Aug 27 09:28:56 2022.
