 Gaussian 16, Revision A.03,
 Gaussian 16:  ES64L-G16RevA.03 25-Dec-2016

 ------------------
 #p CCSD(T)/cc-pVTZ
 ------------------

 -----------
 H2O_H2O_759
 -----------
 Symbolic Z-matrix:
 Charge =  0 Multiplicity = 1

                         Standard orientation:
 ---------------------------------------------------------------------
 Center     Atomic      Atomic             Coordinates (Angstroms)
 Number     Number       Type             X           Y           Z
 ---------------------------------------------------------------------
      1          8           0        0.031752   -1.192097    0.000000
      2          1           0       -0.769115   -1.761410    0.000000
      3          1           0        0.830023   -1.765046    0.000000
      4          8           0        0.031752    1.211204    0.000000
      5          1           0        0.381356    2.129508    0.000000
      6          1           0       -0.950299    1.244097    0.000000
 ---------------------------------------------------------------------

 SCF Done:  E(RHF) =  -152.090983732     A.U. after   11 cycles
 E2 =    -0.5298487054D+00 EUMP2 =    -0.15262083243719D+03
 CCSD(T)
 CCSD(T)= -0.15264806313D+03

 The electronic state is 1-A'.
 Alpha  occ. eigenvalues --  -20.53486 -20.52879  -1.31448  -1.30011  -0.68731
 Alpha  occ. eigenvalues --   -0.67698  -0.57201  -0.50026  -0.48720  -0.46788
 Alpha virt. eigenvalues --    0.14323   0.17497   0.20409   0.22847   0.52260
 Alpha virt. eigenvalues --    0.58441   0.58488   0.62219   0.70670   0.76280
 Alpha virt. eigenvalues --    0.77204   0.80082   0.83772   0.86120   0.87158

 Mulliken charges:
               1
     1  O   -0.464276
     2  H    0.224071
     3  H    0.239000
     4  O   -0.447069
     5  H    0.210366
     6  H    0.237907
 Sum of Mulliken charges =  -0.00000

 Dipole moment (field-independent basis, Debye):
    X=             -0.9817    Y=             -0.3738    Z=              0.0000  Tot=              1.0505
 Quadrupole moment (field-independent basis, Debye-Ang):
   XX=             -8.5985   YY=             -3.4786   ZZ=            -14.7273
   XY=             -0.5807   XZ=              0.0000   YZ=              0.0000

 Normal termination of Gaussian 16 at Fri Aug 26 19:44:31 2022.
