 Gaussian 16, Revision A.03,
 Gaussian 16:  ES64L-G16RevA.03 25-Dec-2016

 ------------------
 #p CCSD(T)/cc-pVTZ
 ------------------

 ------------
 H2O_H2O_2030
 ------------
 Symbolic Z-matrix:
 Charge =  0 Multiplicity = 1

                         Standard orientation:
 ---------------------------------------------------------------------
 Center     Atomic      Atomic             Coordinates (Angstroms)
 Number     Number       Type             X           Y           Z
 ---------------------------------------------------------------------
      1          8           0        0.018361   -1.877292    0.000000
      2          1           0       -0.781690   -2.447751    0.000000
      3          1           0        0.817452   -2.449096    0.000000
      4          8           0        0.018361    1.883323    0.000000
      5          1           0        0.592585    2.680676    0.000000
      6          1           0       -0.922122    2.167922    0.000000
 ---------------------------------------------------------------------

 SCF Done:  E(RHF) =  -152.104866222     A.U. after   10 cycles
 E2 =    -0.5264354663D+00 EUMP2 =    -0.15263130168802D+03
 CCSD(T)
 CCSD(T)= -0.15265854696D+03

 The electronic state is 1-A'.
 Alpha  occ. eigenvalues --  -20.54531 -20.54427  -1.31812  -1.31703  -0.69233
 Alpha  occ. eigenvalues --   -0.69119  -0.55354  -0.54757  -0.48922  -0.48787
 Alpha virt. eigenvalues --    0.14135   0.15859   0.20577   0.21299   0.53762
 Alpha virt. eigenvalues --    0.56426   0.57942   0.58268   0.61798   0.75494
 Alpha virt. eigenvalues --    0.79316   0.80044   0.80658   0.80959   0.82758

 Mulliken charges:
               1
     1  O   -0.491131
     2  H    0.243946
     3  H    0.247332
     4  O   -0.491077
     5  H    0.243415
     6  H    0.247516
 Sum of Mulliken charges =  -0.00000

 Dipole moment (field-independent basis, Debye):
    X=             -0.6174    Y=             -0.1106    Z=              0.0000  Tot=              0.6272
 Quadrupole moment (field-independent basis, Debye-Ang):
   XX=             -8.0530   YY=              2.6742   ZZ=            -14.7095
   XY=             -0.6607   XZ=              0.0000   YZ=              0.0000

 Normal termination of Gaussian 16 at Sat Aug 27 08:11:46 2022.
