 Gaussian 16, Revision A.03,
 Gaussian 16:  ES64L-G16RevA.03 25-Dec-2016

 ------------------
 #p CCSD(T)/cc-pVTZ
 ------------------

 ------------
 H2O_H2O_1223
 ------------
 Symbolic Z-matrix:
 Charge =  0 Multiplicity = 1

                         Standard orientation:
 ---------------------------------------------------------------------
 Center     Atomic      Atomic             Coordinates (Angstroms)
 Number     Number       Type             X           Y           Z
 ---------------------------------------------------------------------
      1          8           0        0.057173   -1.384033    0.000000
      2          1           0       -0.744343   -1.952432    0.000000
      3          1           0        0.854790   -1.957891    0.000000
      4          8           0        0.057173    1.490399    0.000000
      5          1           0       -0.457588    2.327374    0.000000
      6          1           0       -0.567624    0.732021    0.000000
 ---------------------------------------------------------------------

 SCF Done:  E(RHF) =  -152.108587173     A.U. after   10 cycles
 E2 =    -0.5279873116D+00 EUMP2 =    -0.15263657448444D+03
 CCSD(T)
 CCSD(T)= -0.15266361576D+03

 The electronic state is 1-A'.
 Alpha  occ. eigenvalues --  -20.56690 -20.52863  -1.34080  -1.30226  -0.71459
 Alpha  occ. eigenvalues --   -0.68002  -0.57230  -0.53745  -0.51180  -0.47348
 Alpha virt. eigenvalues --    0.12968   0.17573   0.19503   0.25980   0.51587
 Alpha virt. eigenvalues --    0.56207   0.57157   0.59386   0.69758   0.74407
 Alpha virt. eigenvalues --    0.74516   0.78686   0.82238   0.83666   0.83916

 Mulliken charges:
               1
     1  O   -0.487450
     2  H    0.244011
     3  H    0.259853
     4  O   -0.516851
     5  H    0.233389
     6  H    0.267049
 Sum of Mulliken charges =   0.00000

 Dipole moment (field-independent basis, Debye):
    X=             -1.8528    Y=             -2.1451    Z=              0.0000  Tot=              2.8345
 Quadrupole moment (field-independent basis, Debye-Ang):
   XX=             -9.8528   YY=             -4.2068   ZZ=            -14.7274
   XY=             -3.0226   XZ=              0.0000   YZ=              0.0000

 Normal termination of Gaussian 16 at Sat Aug 27 03:08:48 2022.
