 Gaussian 16, Revision A.03,
 Gaussian 16:  ES64L-G16RevA.03 25-Dec-2016

 ------------------
 #p CCSD(T)/cc-pVTZ
 ------------------

 ------------
 H2O_H2O_1195
 ------------
 Symbolic Z-matrix:
 Charge =  0 Multiplicity = 1

                         Standard orientation:
 ---------------------------------------------------------------------
 Center     Atomic      Atomic             Coordinates (Angstroms)
 Number     Number       Type             X           Y           Z
 ---------------------------------------------------------------------
      1          8           0        0.055308   -1.382723    0.000000
      2          1           0       -0.746162   -1.951187    0.000000
      3          1           0        0.852971   -1.956517    0.000000
      4          8           0        0.055308    1.467018    0.000000
      5          1           0       -0.286350    2.388308    0.000000
      6          1           0       -0.705384    0.845042    0.000000
 ---------------------------------------------------------------------

 SCF Done:  E(RHF) =  -152.106482656     A.U. after   10 cycles
 E2 =    -0.5279055149D+00 EUMP2 =    -0.15263438817108D+03
 CCSD(T)
 CCSD(T)= -0.15266149818D+03

 The electronic state is 1-A'.
 Alpha  occ. eigenvalues --  -20.55982 -20.53140  -1.33365  -1.30435  -0.70771
 Alpha  occ. eigenvalues --   -0.68054  -0.56556  -0.53851  -0.50473  -0.47543
 Alpha virt. eigenvalues --    0.13305   0.17361   0.19747   0.24555   0.52705
 Alpha virt. eigenvalues --    0.56717   0.57108   0.58980   0.69636   0.75093
 Alpha virt. eigenvalues --    0.75235   0.78630   0.81579   0.82356   0.84435

 Mulliken charges:
               1
     1  O   -0.483873
     2  H    0.239392
     3  H    0.256243
     4  O   -0.500844
     5  H    0.229907
     6  H    0.259175
 Sum of Mulliken charges =  -0.00000

 Dipole moment (field-independent basis, Debye):
    X=             -1.7853    Y=             -1.6694    Z=              0.0000  Tot=              2.4442
 Quadrupole moment (field-independent basis, Debye-Ang):
   XX=             -9.7409   YY=             -3.3156   ZZ=            -14.7250
   XY=             -2.5196   XZ=              0.0000   YZ=              0.0000

 Normal termination of Gaussian 16 at Sat Aug 27 02:53:32 2022.
