 Gaussian 16, Revision A.03,
 Gaussian 16:  ES64L-G16RevA.03 25-Dec-2016

 ------------------
 #p CCSD(T)/cc-pVTZ
 ------------------

 ------------
 H2O_H2O_2332
 ------------
 Symbolic Z-matrix:
 Charge =  0 Multiplicity = 1

                         Standard orientation:
 ---------------------------------------------------------------------
 Center     Atomic      Atomic             Coordinates (Angstroms)
 Number     Number       Type             X           Y           Z
 ---------------------------------------------------------------------
      1          8           0        0.025267   -2.033750    0.000000
      2          1           0       -0.774913   -2.604029    0.000000
      3          1           0        0.824228   -2.605734    0.000000
      4          8           0        0.025267    2.045476    0.000000
      5          1           0        0.490698    2.910854    0.000000
      6          1           0       -0.944283    2.205100    0.000000
 ---------------------------------------------------------------------

 SCF Done:  E(RHF) =  -152.105537492     A.U. after   10 cycles
 E2 =    -0.5262370609D+00 EUMP2 =    -0.15263177455280D+03
 CCSD(T)
 CCSD(T)= -0.15265901642D+03

 The electronic state is 1-A'.
 Alpha  occ. eigenvalues --  -20.54750 -20.54580  -1.32035  -1.31863  -0.69450
 Alpha  occ. eigenvalues --   -0.69271  -0.55455  -0.55128  -0.49136  -0.48962
 Alpha virt. eigenvalues --    0.14095   0.15572   0.20539   0.21151   0.54178
 Alpha virt. eigenvalues --    0.55743   0.57832   0.58103   0.63452   0.74248
 Alpha virt. eigenvalues --    0.79492   0.80141   0.80686   0.81179   0.82317

 Mulliken charges:
               1
     1  O   -0.496673
     2  H    0.246499
     3  H    0.250311
     4  O   -0.496409
     5  H    0.245729
     6  H    0.250543
 Sum of Mulliken charges =  -0.00000

 Dipole moment (field-independent basis, Debye):
    X=             -0.8549    Y=             -0.2118    Z=              0.0000  Tot=              0.8808
 Quadrupole moment (field-independent basis, Debye-Ang):
   XX=             -8.2285   YY=              3.7385   ZZ=            -14.7100
   XY=             -1.0882   XZ=              0.0000   YZ=              0.0000

 Normal termination of Gaussian 16 at Sat Aug 27 09:55:23 2022.
