 Gaussian 16, Revision A.03,
 Gaussian 16:  ES64L-G16RevA.03 25-Dec-2016

 ------------------
 #p CCSD(T)/cc-pVTZ
 ------------------

 -----------
 H2O_H2O_616
 -----------
 Symbolic Z-matrix:
 Charge =  0 Multiplicity = 1

                         Standard orientation:
 ---------------------------------------------------------------------
 Center     Atomic      Atomic             Coordinates (Angstroms)
 Number     Number       Type             X           Y           Z
 ---------------------------------------------------------------------
      1          8           0        0.049570   -1.091882    0.000000
      2          1           0       -0.752166   -1.659971    0.000000
      3          1           0        0.846964   -1.666049    0.000000
      4          8           0        0.049570    1.148619    0.000000
      5          1           0       -0.041541    2.126987    0.000000
      6          1           0       -0.846370    0.745138    0.000000
 ---------------------------------------------------------------------

 SCF Done:  E(RHF) =  -152.085374013     A.U. after   11 cycles
 E2 =    -0.5317168232D+00 EUMP2 =    -0.15261709083600D+03
 CCSD(T)
 CCSD(T)= -0.15264413182D+03

 The electronic state is 1-A'.
 Alpha  occ. eigenvalues --  -20.54541 -20.52253  -1.32930  -1.29409  -0.70265
 Alpha  occ. eigenvalues --   -0.68092  -0.56428  -0.50559  -0.50000  -0.46295
 Alpha virt. eigenvalues --    0.13807   0.17959   0.19946   0.24097   0.52595
 Alpha virt. eigenvalues --    0.57303   0.59192   0.61762   0.71486   0.75037
 Alpha virt. eigenvalues --    0.78978   0.82868   0.83082   0.84818   0.87764

 Mulliken charges:
               1
     1  O   -0.451562
     2  H    0.219533
     3  H    0.239486
     4  O   -0.450816
     5  H    0.196545
     6  H    0.246814
 Sum of Mulliken charges =  -0.00000

 Dipole moment (field-independent basis, Debye):
    X=             -1.4958    Y=             -1.1486    Z=              0.0000  Tot=              1.8859
 Quadrupole moment (field-independent basis, Debye-Ang):
   XX=             -9.4458   YY=             -4.7909   ZZ=            -14.7197
   XY=             -1.3411   XZ=              0.0000   YZ=              0.0000

 Normal termination of Gaussian 16 at Fri Aug 26 18:15:55 2022.
