 Gaussian 16, Revision A.03,
 Gaussian 16:  ES64L-G16RevA.03 25-Dec-2016

 ------------------
 #p CCSD(T)/cc-pVTZ
 ------------------

 -----------
 H2O_H2O_778
 -----------
 Symbolic Z-matrix:
 Charge =  0 Multiplicity = 1

                         Standard orientation:
 ---------------------------------------------------------------------
 Center     Atomic      Atomic             Coordinates (Angstroms)
 Number     Number       Type             X           Y           Z
 ---------------------------------------------------------------------
      1          8           0        0.011143   -1.214589    0.000000
      2          1           0       -0.788878   -1.785090    0.000000
      3          1           0        0.810263   -1.786352    0.000000
      4          8           0        0.011143    1.216766    0.000000
      5          1           0        0.684493    1.932383    0.000000
      6          1           0       -0.884168    1.621642    0.000000
 ---------------------------------------------------------------------

 SCF Done:  E(RHF) =  -152.089746770     A.U. after   11 cycles
 E2 =    -0.5296569853D+00 EUMP2 =    -0.15261940375541D+03
 CCSD(T)
 CCSD(T)= -0.15264668278D+03

 The electronic state is 1-A'.
 Alpha  occ. eigenvalues --  -20.52978 -20.52914  -1.31052  -1.29973  -0.68294
 Alpha  occ. eigenvalues --   -0.67578  -0.57329  -0.49486  -0.48358  -0.46695
 Alpha virt. eigenvalues --    0.14508   0.17599   0.20566   0.22430   0.50515
 Alpha virt. eigenvalues --    0.58864   0.58926   0.63464   0.72694   0.76667
 Alpha virt. eigenvalues --    0.77118   0.79952   0.84077   0.86527   0.86687

 Mulliken charges:
               1
     1  O   -0.458139
     2  H    0.226128
     3  H    0.231509
     4  O   -0.454824
     5  H    0.223622
     6  H    0.231704
 Sum of Mulliken charges =  -0.00000

 Dipole moment (field-independent basis, Debye):
    X=             -0.3464    Y=             -0.0424    Z=              0.0000  Tot=              0.3490
 Quadrupole moment (field-independent basis, Debye-Ang):
   XX=             -8.0730   YY=             -3.2160   ZZ=            -14.7283
   XY=             -0.1538   XZ=              0.0000   YZ=              0.0000

 Normal termination of Gaussian 16 at Fri Aug 26 19:54:15 2022.
