 Gaussian 16, Revision A.03,
 Gaussian 16:  ES64L-G16RevA.03 25-Dec-2016

 ------------------
 #p CCSD(T)/cc-pVTZ
 ------------------

 -----------
 H2O_H2O_895
 -----------
 Symbolic Z-matrix:
 Charge =  0 Multiplicity = 1

                         Standard orientation:
 ---------------------------------------------------------------------
 Center     Atomic      Atomic             Coordinates (Angstroms)
 Number     Number       Type             X           Y           Z
 ---------------------------------------------------------------------
      1          8           0        0.055326   -1.223197    0.000000
      2          1           0       -0.746383   -1.791324    0.000000
      3          1           0        0.852747   -1.797325    0.000000
      4          8           0        0.055326    1.307444    0.000000
      5          1           0       -0.285945    2.228879    0.000000
      6          1           0       -0.705628    0.685789    0.000000
 ---------------------------------------------------------------------

 SCF Done:  E(RHF) =  -152.101082614     A.U. after   11 cycles
 E2 =    -0.5295646461D+00 EUMP2 =    -0.15263064725989D+03
 CCSD(T)
 CCSD(T)= -0.15265768807D+03

 The electronic state is 1-A'.
 Alpha  occ. eigenvalues --  -20.55948 -20.52456  -1.33643  -1.29792  -0.71027
 Alpha  occ. eigenvalues --   -0.68079  -0.56124  -0.53137  -0.50706  -0.46850
 Alpha virt. eigenvalues --    0.13321   0.17863   0.19671   0.25064   0.51793
 Alpha virt. eigenvalues --    0.56686   0.59538   0.60173   0.71256   0.74153
 Alpha virt. eigenvalues --    0.76440   0.82709   0.82793   0.84218   0.84743

 Mulliken charges:
               1
     1  O   -0.468223
     2  H    0.233128
     3  H    0.251321
     4  O   -0.493871
     5  H    0.218970
     6  H    0.258675
 Sum of Mulliken charges =  -0.00000

 Dipole moment (field-independent basis, Debye):
    X=             -1.7367    Y=             -1.7261    Z=              0.0000  Tot=              2.4486
 Quadrupole moment (field-independent basis, Debye-Ang):
   XX=             -9.7500   YY=             -4.3475   ZZ=            -14.7226
   XY=             -2.2331   XZ=              0.0000   YZ=              0.0000

 Normal termination of Gaussian 16 at Fri Aug 26 20:57:07 2022.
