 Gaussian 16, Revision A.03,
 Gaussian 16:  ES64L-G16RevA.03 25-Dec-2016

 ------------------
 #p CCSD(T)/cc-pVTZ
 ------------------

 ------------
 H2O_H2O_2655
 ------------
 Symbolic Z-matrix:
 Charge =  0 Multiplicity = 1

                         Standard orientation:
 ---------------------------------------------------------------------
 Center     Atomic      Atomic             Coordinates (Angstroms)
 Number     Number       Type             X           Y           Z
 ---------------------------------------------------------------------
      1          8           0        0.018361   -2.209687    0.000000
      2          1           0       -0.781618   -2.780248    0.000000
      3          1           0        0.817523   -2.781390    0.000000
      4          8           0        0.018361    2.215723    0.000000
      5          1           0        0.592484    3.013149    0.000000
      6          1           0       -0.922158    2.500203    0.000000
 ---------------------------------------------------------------------

 SCF Done:  E(RHF) =  -152.105766292     A.U. after   10 cycles
 E2 =    -0.5261202015D+00 EUMP2 =    -0.15263188649336D+03
 CCSD(T)
 CCSD(T)= -0.15265913344D+03

 The electronic state is 1-A'.
 Alpha  occ. eigenvalues --  -20.54803 -20.54731  -1.32092  -1.32019  -0.69505
 Alpha  occ. eigenvalues --   -0.69429  -0.55493  -0.55344  -0.49193  -0.49119
 Alpha virt. eigenvalues --    0.14266   0.15250   0.20589   0.20939   0.54665
 Alpha virt. eigenvalues --    0.55463   0.57796   0.57967   0.65218   0.72362
 Alpha virt. eigenvalues --    0.79589   0.79842   0.81118   0.81180   0.82230

 Mulliken charges:
               1
     1  O   -0.498990
     2  H    0.248387
     3  H    0.250626
     4  O   -0.498808
     5  H    0.247989
     6  H    0.250796
 Sum of Mulliken charges =  -0.00000

 Dipole moment (field-independent basis, Debye):
    X=             -0.6243    Y=             -0.1076    Z=              0.0000  Tot=              0.6335
 Quadrupole moment (field-independent basis, Debye-Ang):
   XX=             -8.0339   YY=              5.3387   ZZ=            -14.7097
   XY=             -0.8644   XZ=              0.0000   YZ=              0.0000

 Normal termination of Gaussian 16 at Fri Aug 26 14:46:31 2022.
