 Gaussian 16, Revision A.03,
 Gaussian 16:  ES64L-G16RevA.03 25-Dec-2016

 ------------------
 #p CCSD(T)/cc-pVTZ
 ------------------

 -----------
 H2O_H2O_423
 -----------
 Symbolic Z-matrix:
 Charge =  0 Multiplicity = 1

                         Standard orientation:
 ---------------------------------------------------------------------
 Center     Atomic      Atomic             Coordinates (Angstroms)
 Number     Number       Type             X           Y           Z
 ---------------------------------------------------------------------
      1          8           0        0.057249   -0.958650    0.000000
      2          1           0       -0.745082   -1.525898    0.000000
      3          1           0        0.854041   -1.533652    0.000000
      4          8           0        0.057249    1.064851    0.000000
      5          1           0       -0.456310    1.902564    0.000000
      6          1           0       -0.568635    0.307371    0.000000
 ---------------------------------------------------------------------

 SCF Done:  E(RHF) =  -152.048533685     A.U. after   11 cycles
 E2 =    -0.5378162447D+00 EUMP2 =    -0.15258634992929D+03
 CCSD(T)
 CCSD(T)= -0.15261239185D+03

 The electronic state is 1-A'.
 Alpha  occ. eigenvalues --  -20.57023 -20.49064  -1.37455  -1.27163  -0.75042
 Alpha  occ. eigenvalues --   -0.71014  -0.53466  -0.51246  -0.51061  -0.44082
 Alpha virt. eigenvalues --    0.12729   0.18570   0.19638   0.27333   0.49193
 Alpha virt. eigenvalues --    0.54488   0.62626   0.67353   0.72242   0.74572
 Alpha virt. eigenvalues --    0.77732   0.80215   0.83728   0.85376   0.87693

 Mulliken charges:
               1
     1  O   -0.372293
     2  H    0.203857
     3  H    0.238195
     4  O   -0.521251
     5  H    0.186176
     6  H    0.265316
 Sum of Mulliken charges =  -0.00000

 Dipole moment (field-independent basis, Debye):
    X=             -1.6554    Y=             -2.5882    Z=              0.0000  Tot=              3.0724
 Quadrupole moment (field-independent basis, Debye-Ang):
   XX=             -9.8294   YY=             -7.0839   ZZ=            -14.6361
   XY=             -2.1950   XZ=              0.0000   YZ=              0.0000

 Normal termination of Gaussian 16 at Fri Aug 26 16:19:36 2022.
