 Gaussian 16, Revision A.03,
 Gaussian 16:  ES64L-G16RevA.03 25-Dec-2016

 ------------------
 #p CCSD(T)/cc-pVTZ
 ------------------

 ------------
 H2O_H2O_2432
 ------------
 Symbolic Z-matrix:
 Charge =  0 Multiplicity = 1

                         Standard orientation:
 ---------------------------------------------------------------------
 Center     Atomic      Atomic             Coordinates (Angstroms)
 Number     Number       Type             X           Y           Z
 ---------------------------------------------------------------------
      1          8           0        0.025267   -2.086932    0.000000
      2          1           0       -0.774897   -2.657233    0.000000
      3          1           0        0.824244   -2.658895    0.000000
      4          8           0        0.025267    2.098660    0.000000
      5          1           0        0.490674    2.964051    0.000000
      6          1           0       -0.944287    2.258259    0.000000
 ---------------------------------------------------------------------

 SCF Done:  E(RHF) =  -152.105657487     A.U. after   10 cycles
 E2 =    -0.5261910647D+00 EUMP2 =    -0.15263184855138D+03
 CCSD(T)
 CCSD(T)= -0.15265909139D+03

 The electronic state is 1-A'.
 Alpha  occ. eigenvalues --  -20.54788 -20.54628  -1.32074  -1.31912  -0.69489
 Alpha  occ. eigenvalues --   -0.69320  -0.55481  -0.55209  -0.49175  -0.49012
 Alpha virt. eigenvalues --    0.14124   0.15475   0.20542   0.21091   0.54333
 Alpha virt. eigenvalues --    0.55632   0.57808   0.58057   0.64020   0.73689
 Alpha virt. eigenvalues --    0.79524   0.80025   0.80879   0.81166   0.82272

 Mulliken charges:
               1
     1  O   -0.497785
     2  H    0.247158
     3  H    0.250728
     4  O   -0.497486
     5  H    0.246429
     6  H    0.250956
 Sum of Mulliken charges =  -0.00000

 Dipole moment (field-independent basis, Debye):
    X=             -0.8564    Y=             -0.2109    Z=              0.0000  Tot=              0.8820
 Quadrupole moment (field-independent basis, Debye-Ang):
   XX=             -8.2259   YY=              4.1526   ZZ=            -14.7100
   XY=             -1.1331   XZ=              0.0000   YZ=              0.0000

 Normal termination of Gaussian 16 at Sat Aug 27 10:31:48 2022.
