 Gaussian 16, Revision A.03,
 Gaussian 16:  ES64L-G16RevA.03 25-Dec-2016

 ------------------
 #p CCSD(T)/cc-pVTZ
 ------------------

 -----------
 H2O_H2O_813
 -----------
 Symbolic Z-matrix:
 Charge =  0 Multiplicity = 1

                         Standard orientation:
 ---------------------------------------------------------------------
 Center     Atomic      Atomic             Coordinates (Angstroms)
 Number     Number       Type             X           Y           Z
 ---------------------------------------------------------------------
      1          8           0        0.042998   -1.208072    0.000000
      2          1           0       -0.758289   -1.776794    0.000000
      3          1           0        0.840846   -1.781610    0.000000
      4          8           0        0.042998    1.246725    0.000000
      5          1           0        0.143737    2.224149    0.000000
      6          1           0       -0.914268    1.025031    0.000000
 ---------------------------------------------------------------------

 SCF Done:  E(RHF) =  -152.095182932     A.U. after   11 cycles
 E2 =    -0.5295268535D+00 EUMP2 =    -0.15262470978522D+03
 CCSD(T)
 CCSD(T)= -0.15265190964D+03

 The electronic state is 1-A'.
 Alpha  occ. eigenvalues --  -20.54225 -20.52914  -1.31993  -1.30106  -0.69351
 Alpha  occ. eigenvalues --   -0.67870  -0.56651  -0.51321  -0.49189  -0.47006
 Alpha virt. eigenvalues --    0.14034   0.17469   0.20199   0.23296   0.53229
 Alpha virt. eigenvalues --    0.57888   0.58181   0.60741   0.70731   0.75685
 Alpha virt. eigenvalues --    0.77713   0.79562   0.83362   0.85565   0.86181

 Mulliken charges:
               1
     1  O   -0.468362
     2  H    0.226487
     3  H    0.244396
     4  O   -0.456321
     5  H    0.210077
     6  H    0.243722
 Sum of Mulliken charges =  -0.00000

 Dipole moment (field-independent basis, Debye):
    X=             -1.3364    Y=             -0.7589    Z=              0.0000  Tot=              1.5368
 Quadrupole moment (field-independent basis, Debye-Ang):
   XX=             -9.0781   YY=             -3.4919   ZZ=            -14.7249
   XY=             -1.0723   XZ=              0.0000   YZ=              0.0000

 Normal termination of Gaussian 16 at Fri Aug 26 20:15:00 2022.
