 Gaussian 16, Revision A.03,
 Gaussian 16:  ES64L-G16RevA.03 25-Dec-2016

 ------------------
 #p CCSD(T)/cc-pVTZ
 ------------------

 ------------
 H2O_H2O_4378
 ------------
 Symbolic Z-matrix:
 Charge =  0 Multiplicity = 1

                         Standard orientation:
 ---------------------------------------------------------------------
 Center     Atomic      Atomic             Coordinates (Angstroms)
 Number     Number       Type             X           Y           Z
 ---------------------------------------------------------------------
      1          8           0        0.011143   -3.129195    0.000000
      2          1           0       -0.788603   -3.700082    0.000000
      3          1           0        0.810539   -3.700572    0.000000
      4          8           0        0.011143    3.131383    0.000000
      5          1           0        0.684147    3.847323    0.000000
      6          1           0       -0.884364    3.535827    0.000000
 ---------------------------------------------------------------------

 SCF Done:  E(RHF) =  -152.106812172     A.U. after   10 cycles
 E2 =    -0.5259315179D+00 EUMP2 =    -0.15263274368991D+03
 CCSD(T)
 CCSD(T)= -0.15265997648D+03

 The electronic state is 1-A'.
 Alpha  occ. eigenvalues --  -20.55191 -20.55178  -1.32486  -1.32474  -0.69894
 Alpha  occ. eigenvalues --   -0.69880  -0.55906  -0.55893  -0.49594  -0.49581
 Alpha virt. eigenvalues --    0.14427   0.14460   0.20478   0.20498   0.54675
 Alpha virt. eigenvalues --    0.54691   0.57540   0.57555   0.68302   0.68371
 Alpha virt. eigenvalues --    0.79285   0.79298   0.80729   0.80743   0.82658

 Mulliken charges:
               1
     1  O   -0.505350
     2  H    0.252416
     3  H    0.252934
     4  O   -0.505336
     5  H    0.252305
     6  H    0.253031
 Sum of Mulliken charges =  -0.00000

 Dipole moment (field-independent basis, Debye):
    X=             -0.3828    Y=             -0.0382    Z=              0.0000  Tot=              0.3847
 Quadrupole moment (field-independent basis, Debye-Ang):
   XX=             -7.8814   YY=             12.8433   ZZ=            -14.7107
   XY=             -0.8569   XZ=              0.0000   YZ=              0.0000

 Normal termination of Gaussian 16 at Sat Aug 27 06:58:39 2022.
