 Gaussian 16, Revision A.03,
 Gaussian 16:  ES64L-G16RevA.03 25-Dec-2016

 ------------------
 #p CCSD(T)/cc-pVTZ
 ------------------

 ------------
 H2O_H2O_4211
 ------------
 Symbolic Z-matrix:
 Charge =  0 Multiplicity = 1

                         Standard orientation:
 ---------------------------------------------------------------------
 Center     Atomic      Atomic             Coordinates (Angstroms)
 Number     Number       Type             X           Y           Z
 ---------------------------------------------------------------------
      1          8           0        0.037673   -3.021960    0.000000
      2          1           0       -0.762508   -3.592238    0.000000
      3          1           0        0.836633   -3.593946    0.000000
      4          8           0        0.037673    3.050226    0.000000
      5          1           0        0.263270    4.006580    0.000000
      6          1           0       -0.940155    2.953476    0.000000
 ---------------------------------------------------------------------

 SCF Done:  E(RHF) =  -152.106976524     A.U. after   10 cycles
 E2 =    -0.5259209204D+00 EUMP2 =    -0.15263289744439D+03
 CCSD(T)
 CCSD(T)= -0.15266012652D+03

 The electronic state is 1-A'.
 Alpha  occ. eigenvalues --  -20.55314 -20.55137  -1.32611  -1.32432  -0.70018
 Alpha  occ. eigenvalues --   -0.69835  -0.56038  -0.55860  -0.49719  -0.49541
 Alpha virt. eigenvalues --    0.14315   0.14515   0.20376   0.20568   0.54548
 Alpha virt. eigenvalues --    0.54742   0.57429   0.57608   0.68153   0.68398
 Alpha virt. eigenvalues --    0.79160   0.79335   0.80600   0.80793   0.82529

 Mulliken charges:
               1
     1  O   -0.506337
     2  H    0.252213
     3  H    0.254124
     4  O   -0.506177
     5  H    0.251624
     6  H    0.254553
 Sum of Mulliken charges =   0.00000

 Dipole moment (field-independent basis, Debye):
    X=             -1.2937    Y=             -0.4942    Z=              0.0000  Tot=              1.3848
 Quadrupole moment (field-independent basis, Debye-Ang):
   XX=             -8.6966   YY=             10.1042   ZZ=            -14.7111
   XY=             -3.0862   XZ=              0.0000   YZ=              0.0000

 Normal termination of Gaussian 16 at Sat Aug 27 06:01:20 2022.
