 Gaussian 16, Revision A.03,
 Gaussian 16:  ES64L-G16RevA.03 25-Dec-2016

 ------------------
 #p CCSD(T)/cc-pVTZ
 ------------------

 ------------
 H2O_H2O_3200
 ------------
 Symbolic Z-matrix:
 Charge =  0 Multiplicity = 1

                         Standard orientation:
 ---------------------------------------------------------------------
 Center     Atomic      Atomic             Coordinates (Angstroms)
 Number     Number       Type             X           Y           Z
 ---------------------------------------------------------------------
      1          8           0        0.000000    0.000000   -2.505475
      2          1           0        0.000000    0.799571   -3.076607
      3          1           0       -0.000000   -0.799571   -3.076607
      4          8           0       -0.000000    0.000000    2.505475
      5          1           0       -0.000000   -0.799571    3.076607
      6          1           0       -0.000000    0.799571    3.076607
 ---------------------------------------------------------------------

 SCF Done:  E(RHF) =  -152.106161539     A.U. after   10 cycles
 E2 =    -0.5260215491D+00 EUMP2 =    -0.15263218308851D+03
 CCSD(T)
 CCSD(T)= -0.15265942765D+03

 The electronic state is 1-AG.
 Alpha  occ. eigenvalues --  -20.54923 -20.54923  -1.32217  -1.32216  -0.69627
 Alpha  occ. eigenvalues --   -0.69626  -0.55617  -0.55589  -0.49320  -0.49318
 Alpha virt. eigenvalues --    0.14454   0.14842   0.20599   0.20721   0.54849
 Alpha virt. eigenvalues --    0.55046   0.57729   0.57788   0.67543   0.69810
 Alpha virt. eigenvalues --    0.79538   0.79576   0.80969   0.81058   0.82712

 Mulliken charges:
               1
     1  O   -0.501531
     2  H    0.250765
     3  H    0.250765
     4  O   -0.501531
     5  H    0.250765
     6  H    0.250765
 Sum of Mulliken charges =  -0.00000

 Dipole moment (field-independent basis, Debye):
    X=              0.0000    Y=             -0.0000    Z=              0.0000  Tot=              0.0000
 Quadrupole moment (field-independent basis, Debye-Ang):
   XX=            -14.7098   YY=             -7.8144   ZZ=              7.9794
   XY=             -0.0000   XZ=              0.0000   YZ=             -0.0000

 \MP4DQ=-152.641303\MP4SDQ=-152.6443695\CCSD=-152.6437788\CCSD(T)=-152.
 Normal termination of Gaussian 16 at Fri Aug 26 20:19:11 2022.
