 Gaussian 16, Revision A.03,
 Gaussian 16:  ES64L-G16RevA.03 25-Dec-2016

 ------------------
 #p CCSD(T)/cc-pVTZ
 ------------------

 ------------
 H2O_H2O_1691
 ------------
 Symbolic Z-matrix:
 Charge =  0 Multiplicity = 1

                         Standard orientation:
 ---------------------------------------------------------------------
 Center     Atomic      Atomic             Coordinates (Angstroms)
 Number     Number       Type             X           Y           Z
 ---------------------------------------------------------------------
      1          8           0        0.049533   -1.663540    0.000000
      2          1           0       -0.751473   -2.232658    0.000000
      3          1           0        0.847664   -2.236682    0.000000
      4          8           0        0.049533    1.720404    0.000000
      5          1           0       -0.042834    2.698654    0.000000
      6          1           0       -0.845888    1.315773    0.000000
 ---------------------------------------------------------------------

 SCF Done:  E(RHF) =  -152.106435821     A.U. after   10 cycles
 E2 =    -0.5267196426D+00 EUMP2 =    -0.15263315546346D+03
 CCSD(T)
 CCSD(T)= -0.15266034120D+03

 The electronic state is 1-A'.
 Alpha  occ. eigenvalues --  -20.55305 -20.54016  -1.32583  -1.31280  -0.70002
 Alpha  occ. eigenvalues --   -0.68660  -0.56006  -0.54589  -0.49695  -0.48394
 Alpha virt. eigenvalues --    0.13573   0.16473   0.20094   0.22652   0.54079
 Alpha virt. eigenvalues --    0.54759   0.57433   0.58532   0.64798   0.76515
 Alpha virt. eigenvalues --    0.78076   0.78449   0.78602   0.81294   0.85020

 Mulliken charges:
               1
     1  O   -0.491256
     2  H    0.241718
     3  H    0.252942
     4  O   -0.496491
     5  H    0.237877
     6  H    0.255210
 Sum of Mulliken charges =  -0.00000

 Dipole moment (field-independent basis, Debye):
    X=             -1.6440    Y=             -1.0687    Z=              0.0000  Tot=              1.9609
 Quadrupole moment (field-independent basis, Debye-Ang):
   XX=             -9.3652   YY=             -0.5506   ZZ=            -14.7154
   XY=             -2.2595   XZ=              0.0000   YZ=              0.0000

 Normal termination of Gaussian 16 at Sat Aug 27 06:14:41 2022.
