 Gaussian 16, Revision A.03,
 Gaussian 16:  ES64L-G16RevA.03 25-Dec-2016

 ------------------
 #p CCSD(T)/cc-pVTZ
 ------------------

 ------------
 H2O_H2O_2497
 ------------
 Symbolic Z-matrix:
 Charge =  0 Multiplicity = 1

                         Standard orientation:
 ---------------------------------------------------------------------
 Center     Atomic      Atomic             Coordinates (Angstroms)
 Number     Number       Type             X           Y           Z
 ---------------------------------------------------------------------
      1          8           0        0.056739   -2.066097    0.000000
      2          1           0       -0.744146   -2.635385    0.000000
      3          1           0        0.854992   -2.639070    0.000000
      4          8           0        0.056739    2.165152    0.000000
      5          1           0       -0.403143    3.033493    0.000000
      6          1           0       -0.615525    1.448516    0.000000
 ---------------------------------------------------------------------

 SCF Done:  E(RHF) =  -152.108253925     A.U. after   10 cycles
 E2 =    -0.5260737742D+00 EUMP2 =    -0.15263432769890D+03
 CCSD(T)
 CCSD(T)= -0.15266150302D+03

 The electronic state is 1-A'.
 Alpha  occ. eigenvalues --  -20.55921 -20.54471  -1.33202  -1.31769  -0.70608
 Alpha  occ. eigenvalues --   -0.69143  -0.56668  -0.55229  -0.50320  -0.48893
 Alpha virt. eigenvalues --    0.13085   0.15801   0.19892   0.22245   0.54009
 Alpha virt. eigenvalues --    0.54724   0.56966   0.58396   0.66347   0.72624
 Alpha virt. eigenvalues --    0.78543   0.79406   0.79981   0.81197   0.82350

 Mulliken charges:
               1
     1  O   -0.507454
     2  H    0.251217
     3  H    0.258341
     4  O   -0.511535
     5  H    0.247609
     6  H    0.261821
 Sum of Mulliken charges =  -0.00000

 Dipole moment (field-independent basis, Debye):
    X=             -1.9252    Y=             -1.7996    Z=              0.0000  Tot=              2.6354
 Quadrupole moment (field-independent basis, Debye-Ang):
   XX=             -9.8256   YY=             -0.5645   ZZ=            -14.7159
   XY=             -4.1424   XZ=              0.0000   YZ=              0.0000

 Normal termination of Gaussian 16 at Sat Aug 27 10:53:03 2022.
