 Gaussian 16, Revision A.03,
 Gaussian 16:  ES64L-G16RevA.03 25-Dec-2016

 ------------------
 #p CCSD(T)/cc-pVTZ
 ------------------

 ------------
 H2O_H2O_3032
 ------------
 Symbolic Z-matrix:
 Charge =  0 Multiplicity = 1

                         Standard orientation:
 ---------------------------------------------------------------------
 Center     Atomic      Atomic             Coordinates (Angstroms)
 Number     Number       Type             X           Y           Z
 ---------------------------------------------------------------------
      1          8           0        0.025266   -2.406031    0.000000
      2          1           0       -0.774820   -2.976442    0.000000
      3          1           0        0.824322   -2.977883    0.000000
      4          8           0        0.025266    2.417765    0.000000
      5          1           0        0.490554    3.283220    0.000000
      6          1           0       -0.944310    2.577230    0.000000
 ---------------------------------------------------------------------

 SCF Done:  E(RHF) =  -152.106213187     A.U. after   10 cycles
 E2 =    -0.5260325072D+00 EUMP2 =    -0.15263224569443D+03
 CCSD(T)
 CCSD(T)= -0.15265948789D+03

 The electronic state is 1-A'.
 Alpha  occ. eigenvalues --  -20.54978 -20.54861  -1.32271  -1.32152  -0.69681
 Alpha  occ. eigenvalues --   -0.69558  -0.55663  -0.55538  -0.49373  -0.49256
 Alpha virt. eigenvalues --    0.14326   0.14971   0.20538   0.20812   0.54748
 Alpha virt. eigenvalues --    0.55124   0.57689   0.57841   0.67012   0.70392
 Alpha virt. eigenvalues --    0.79492   0.79628   0.80913   0.81137   0.82641

 Mulliken charges:
               1
     1  O   -0.501834
     2  H    0.249701
     3  H    0.252146
     4  O   -0.501602
     5  H    0.249163
     6  H    0.252426
 Sum of Mulliken charges =  -0.00000

 Dipole moment (field-independent basis, Debye):
    X=             -0.8623    Y=             -0.2075    Z=              0.0000  Tot=              0.8869
 Quadrupole moment (field-independent basis, Debye-Ang):
   XX=             -8.2152   YY=              6.6188   ZZ=            -14.7101
   XY=             -1.4038   XZ=              0.0000   YZ=              0.0000

 Normal termination of Gaussian 16 at Fri Aug 26 18:42:19 2022.
