 Gaussian 16, Revision A.03,
 Gaussian 16:  ES64L-G16RevA.03 25-Dec-2016

 ------------------
 #p CCSD(T)/cc-pVTZ
 ------------------

 ------------
 H2O_H2O_4293
 ------------
 Symbolic Z-matrix:
 Charge =  0 Multiplicity = 1

                         Standard orientation:
 ---------------------------------------------------------------------
 Center     Atomic      Atomic             Coordinates (Angstroms)
 Number     Number       Type             X           Y           Z
 ---------------------------------------------------------------------
      1          8           0        0.052818   -3.038989    0.000000
      2          1           0       -0.747596   -3.608939    0.000000
      3          1           0        0.851544   -3.611302    0.000000
      4          8           0        0.052818    3.109347    0.000000
      5          1           0       -0.167442    4.066943    0.000000
      6          1           0       -0.781590    2.590434    0.000000
 ---------------------------------------------------------------------

 SCF Done:  E(RHF) =  -152.107361503     A.U. after   10 cycles
 E2 =    -0.5258870213D+00 EUMP2 =    -0.15263324852408D+03
 CCSD(T)
 CCSD(T)= -0.15266046936D+03

 The electronic state is 1-A'.
 Alpha  occ. eigenvalues --  -20.55560 -20.55127  -1.32858  -1.32425  -0.70265
 Alpha  occ. eigenvalues --   -0.69824  -0.56303  -0.55868  -0.49969  -0.49537
 Alpha virt. eigenvalues --    0.14094   0.14558   0.20182   0.20649   0.54296
 Alpha virt. eigenvalues --    0.54752   0.57212   0.57645   0.67852   0.68370
 Alpha virt. eigenvalues --    0.78911   0.79336   0.80342   0.80796   0.82285

 Mulliken charges:
               1
     1  O   -0.508623
     2  H    0.253052
     3  H    0.255573
     4  O   -0.508339
     5  H    0.251868
     6  H    0.256469
 Sum of Mulliken charges =  -0.00000

 Dipole moment (field-independent basis, Debye):
    X=             -1.8146    Y=             -1.2306    Z=              0.0000  Tot=              2.1925
 Quadrupole moment (field-independent basis, Debye-Ang):
   XX=             -9.5593   YY=              6.6449   ZZ=            -14.7120
   XY=             -5.0964   XZ=              0.0000   YZ=              0.0000

 Normal termination of Gaussian 16 at Sat Aug 27 06:29:47 2022.
