 Gaussian 16, Revision A.03,
 Gaussian 16:  ES64L-G16RevA.03 25-Dec-2016

 ------------------
 #p CCSD(T)/cc-pVTZ
 ------------------

 ------------
 H2O_H2O_2898
 ------------
 Symbolic Z-matrix:
 Charge =  0 Multiplicity = 1

                         Standard orientation:
 ---------------------------------------------------------------------
 Center     Atomic      Atomic             Coordinates (Angstroms)
 Number     Number       Type             X           Y           Z
 ---------------------------------------------------------------------
      1          8           0        0.057103   -2.274781    0.000000
      2          1           0       -0.743669   -2.844227    0.000000
      3          1           0        0.855469   -2.847597    0.000000
      4          8           0        0.057103    2.381296    0.000000
      5          1           0       -0.458750    3.217598    0.000000
      6          1           0       -0.566702    1.622103    0.000000
 ---------------------------------------------------------------------

 SCF Done:  E(RHF) =  -152.108154183     A.U. after   10 cycles
 E2 =    -0.5259571385D+00 EUMP2 =    -0.15263411132143D+03
 CCSD(T)
 CCSD(T)= -0.15266129979D+03

 The electronic state is 1-A'.
 Alpha  occ. eigenvalues --  -20.55910 -20.54673  -1.33200  -1.31973  -0.70606
 Alpha  occ. eigenvalues --   -0.69356  -0.56672  -0.55433  -0.50317  -0.49095
 Alpha virt. eigenvalues --    0.13212   0.15437   0.19907   0.21635   0.53924
 Alpha virt. eigenvalues --    0.54842   0.56955   0.58056   0.66634   0.70693
 Alpha virt. eigenvalues --    0.78577   0.79530   0.79759   0.80354   0.82777

 Mulliken charges:
               1
     1  O   -0.510445
     2  H    0.252917
     3  H    0.258504
     4  O   -0.511538
     5  H    0.249436
     6  H    0.261126
 Sum of Mulliken charges =  -0.00000

 Dipole moment (field-independent basis, Debye):
    X=             -1.9476    Y=             -1.9080    Z=              0.0000  Tot=              2.7264
 Quadrupole moment (field-independent basis, Debye-Ang):
   XX=             -9.8527   YY=             -0.1863   ZZ=            -14.7150
   XY=             -4.7102   XZ=              0.0000   YZ=              0.0000

 Normal termination of Gaussian 16 at Fri Aug 26 17:15:59 2022.
