 Gaussian 16, Revision A.03,
 Gaussian 16:  ES64L-G16RevA.03 25-Dec-2016

 ------------------
 #p CCSD(T)/cc-pVTZ
 ------------------

 ----------
 H2O_H2O_47
 ----------
 Symbolic Z-matrix:
 Charge =  0 Multiplicity = 1

                         Standard orientation:
 ---------------------------------------------------------------------
 Center     Atomic      Atomic             Coordinates (Angstroms)
 Number     Number       Type             X           Y           Z
 ---------------------------------------------------------------------
      1          8           0        0.056921   -0.763317    0.000000
      2          1           0       -0.746061   -1.329642    0.000000
      3          1           0        0.853052   -1.339235    0.000000
      4          8           0        0.056921    0.861952    0.000000
      5          1           0       -0.399749    1.731986    0.000000
      6          1           0       -0.617985    0.147805    0.000000
 ---------------------------------------------------------------------

 SCF Done:  E(RHF) =  -151.862451282     A.U. after   12 cycles
 E2 =    -0.5547495229D+00 EUMP2 =    -0.15241720080496D+03
 CCSD(T)
 CCSD(T)= -0.15244085424D+03

 The electronic state is 1-A'.
 Alpha  occ. eigenvalues --  -20.57020 -20.46845  -1.45127  -1.25013  -0.81565
 Alpha  occ. eigenvalues --   -0.74326  -0.57412  -0.50228  -0.41940  -0.39449
 Alpha virt. eigenvalues --    0.12629   0.17619   0.20960   0.26372   0.48883
 Alpha virt. eigenvalues --    0.52856   0.62851   0.70408   0.73811   0.74758
 Alpha virt. eigenvalues --    0.77008   0.79221   0.84736   0.84917   0.89303

 Mulliken charges:
               1
     1  O   -0.240869
     2  H    0.148167
     3  H    0.207038
     4  O   -0.497103
     5  H    0.111153
     6  H    0.271613
 Sum of Mulliken charges =  -0.00000

 Dipole moment (field-independent basis, Debye):
    X=             -1.4126    Y=             -2.6693    Z=              0.0000  Tot=              3.0200
 Quadrupole moment (field-independent basis, Debye-Ang):
   XX=             -9.8657   YY=             -9.6100   ZZ=            -14.4973
   XY=             -1.5459   XZ=              0.0000   YZ=              0.0000

 Normal termination of Gaussian 16 at Fri Aug 26 12:14:35 2022.
