 Gaussian 16, Revision A.03,
 Gaussian 16:  ES64L-G16RevA.03 25-Dec-2016

 ------------------
 #p CCSD(T)/cc-pVTZ
 ------------------

 ------------
 H2O_H2O_2104
 ------------
 Symbolic Z-matrix:
 Charge =  0 Multiplicity = 1

                         Standard orientation:
 ---------------------------------------------------------------------
 Center     Atomic      Atomic             Coordinates (Angstroms)
 Number     Number       Type             X           Y           Z
 ---------------------------------------------------------------------
      1          8           0        0.014783   -1.918352    0.000000
      2          1           0       -0.785166   -2.488954    0.000000
      3          1           0        0.813976   -2.490014    0.000000
      4          8           0        0.014783    1.922225    0.000000
      5          1           0        0.639793    2.680426    0.000000
      6          1           0       -0.905135    2.267560    0.000000
 ---------------------------------------------------------------------

 SCF Done:  E(RHF) =  -152.104943822     A.U. after   10 cycles
 E2 =    -0.5263827566D+00 EUMP2 =    -0.15263132657866D+03
 CCSD(T)
 CCSD(T)= -0.15265857355D+03

 The electronic state is 1-A'.
 Alpha  occ. eigenvalues --  -20.54538 -20.54475  -1.31821  -1.31753  -0.69240
 Alpha  occ. eigenvalues --   -0.69169  -0.55346  -0.54835  -0.48931  -0.48836
 Alpha virt. eigenvalues --    0.14163   0.15772   0.20600   0.21227   0.54000
 Alpha virt. eigenvalues --    0.56389   0.57923   0.58229   0.61825   0.75220
 Alpha virt. eigenvalues --    0.79407   0.80333   0.80525   0.81065   0.82469

 Mulliken charges:
               1
     1  O   -0.492190
     2  H    0.244841
     3  H    0.247428
     4  O   -0.492121
     5  H    0.244462
     6  H    0.247580
 Sum of Mulliken charges =  -0.00000

 Dipole moment (field-independent basis, Debye):
    X=             -0.4980    Y=             -0.0707    Z=              0.0000  Tot=              0.5030
 Quadrupole moment (field-independent basis, Debye-Ang):
   XX=             -7.9768   YY=              3.0703   ZZ=            -14.7094
   XY=             -0.5416   XZ=              0.0000   YZ=              0.0000

 Normal termination of Gaussian 16 at Sat Aug 27 08:36:45 2022.
