 Gaussian 16, Revision A.03,
 Gaussian 16:  ES64L-G16RevA.03 25-Dec-2016

 ------------------
 #p CCSD(T)/cc-pVTZ
 ------------------

 -----------
 H2O_H2O_253
 -----------
 Symbolic Z-matrix:
 Charge =  0 Multiplicity = 1

                         Standard orientation:
 ---------------------------------------------------------------------
 Center     Atomic      Atomic             Coordinates (Angstroms)
 Number     Number       Type             X           Y           Z
 ---------------------------------------------------------------------
      1          8           0        0.011143   -0.935378    0.000000
      2          1           0       -0.789012   -1.505691    0.000000
      3          1           0        0.810129   -1.507328    0.000000
      4          8           0        0.011143    0.937550    0.000000
      5          1           0        0.684661    1.653007    0.000000
      6          1           0       -0.884072    1.342636    0.000000
 ---------------------------------------------------------------------

 SCF Done:  E(RHF) =  -152.021340232     A.U. after   11 cycles
 E2 =    -0.5389695699D+00 EUMP2 =    -0.15256030980166D+03
 CCSD(T)
 CCSD(T)= -0.15258667313D+03

 The electronic state is 1-A'.
 Alpha  occ. eigenvalues --  -20.51474 -20.51410  -1.32892  -1.27901  -0.69004
 Alpha  occ. eigenvalues --   -0.66191  -0.62861  -0.49920  -0.44238  -0.40591
 Alpha virt. eigenvalues --    0.14649   0.18779   0.20316   0.22980   0.50641
 Alpha virt. eigenvalues --    0.59056   0.59168   0.66748   0.68883   0.78673
 Alpha virt. eigenvalues --    0.79752   0.83534   0.84360   0.86527   0.87615

 Mulliken charges:
               1
     1  O   -0.410938
     2  H    0.201120
     3  H    0.209374
     4  O   -0.403918
     5  H    0.187421
     6  H    0.216940
 Sum of Mulliken charges =  -0.00000

 Dipole moment (field-independent basis, Debye):
    X=             -0.3201    Y=             -0.0498    Z=              0.0000  Tot=              0.3239
 Quadrupole moment (field-independent basis, Debye-Ang):
   XX=             -8.3069   YY=             -6.7154   ZZ=            -14.7546
   XY=             -0.1077   XZ=              0.0000   YZ=              0.0000

 Normal termination of Gaussian 16 at Fri Aug 26 14:32:55 2022.
