 Gaussian 16, Revision A.03,
 Gaussian 16:  ES64L-G16RevA.03 25-Dec-2016

 ------------------
 #p CCSD(T)/cc-pVTZ
 ------------------

 -----------
 H2O_H2O_550
 -----------
 Symbolic Z-matrix:
 Charge =  0 Multiplicity = 1

                         Standard orientation:
 ---------------------------------------------------------------------
 Center     Atomic      Atomic             Coordinates (Angstroms)
 Number     Number       Type             X           Y           Z
 ---------------------------------------------------------------------
      1          8           0        0.000000   -0.000000    1.096109
      2          1           0        0.000000    0.799571    1.667241
      3          1           0       -0.000000   -0.799571    1.667241
      4          8           0        0.000000   -0.000000   -1.096109
      5          1           0       -0.000000   -0.799571   -1.667241
      6          1           0        0.000000    0.799571   -1.667241
 ---------------------------------------------------------------------

 SCF Done:  E(RHF) =  -152.073922369     A.U. after   11 cycles
 E2 =    -0.5320151871D+00 EUMP2 =    -0.15260593755639D+03
 CCSD(T)
 CCSD(T)= -0.15263306568D+03

 The electronic state is 1-AG.
 Alpha  occ. eigenvalues --  -20.52314 -20.52313  -1.31261  -1.29219  -0.68237
 Alpha  occ. eigenvalues --   -0.66957  -0.59080  -0.48572  -0.46609  -0.45779
 Alpha virt. eigenvalues --    0.14609   0.18078   0.20560   0.22619   0.50125
 Alpha virt. eigenvalues --    0.59072   0.59154   0.65226   0.71565   0.77198
 Alpha virt. eigenvalues --    0.78352   0.81552   0.84402   0.86682   0.86956

 Mulliken charges:
               1
     1  O   -0.445070
     2  H    0.222535
     3  H    0.222535
     4  O   -0.445070
     5  H    0.222535
     6  H    0.222535
 Sum of Mulliken charges =  -0.00000

 Dipole moment (field-independent basis, Debye):
    X=             -0.0000    Y=              0.0000    Z=             -0.0000  Tot=              0.0000
 Quadrupole moment (field-independent basis, Debye-Ang):
   XX=            -14.7431   YY=             -8.0735   ZZ=             -4.5457
   XY=              0.0000   XZ=             -0.0000   YZ=             -0.0000

 MP4DQ=-152.6139108\MP4SDQ=-152.6172938\CCSD=-152.6165857\CCSD(T)=-152.
 Normal termination of Gaussian 16 at Fri Aug 26 17:33:38 2022.
