 Gaussian 16, Revision A.03,
 Gaussian 16:  ES64L-G16RevA.03 25-Dec-2016

 ------------------
 #p CCSD(T)/cc-pVTZ
 ------------------

 ------------
 H2O_H2O_2722
 ------------
 Symbolic Z-matrix:
 Charge =  0 Multiplicity = 1

                         Standard orientation:
 ---------------------------------------------------------------------
 Center     Atomic      Atomic             Coordinates (Angstroms)
 Number     Number       Type             X           Y           Z
 ---------------------------------------------------------------------
      1          8           0        0.056733   -2.185753    0.000000
      2          1           0       -0.744082   -2.755140    0.000000
      3          1           0        0.855056   -2.758627    0.000000
      4          8           0        0.056733    2.284823    0.000000
      5          1           0       -0.403256    3.153106    0.000000
      6          1           0       -0.615443    1.568103    0.000000
 ---------------------------------------------------------------------

 SCF Done:  E(RHF) =  -152.108085913     A.U. after   10 cycles
 E2 =    -0.5260034636D+00 EUMP2 =    -0.15263408937694D+03
 CCSD(T)
 CCSD(T)= -0.15266127557D+03

 The electronic state is 1-A'.
 Alpha  occ. eigenvalues --  -20.55868 -20.54600  -1.33154  -1.31898  -0.70561
 Alpha  occ. eigenvalues --   -0.69278  -0.56619  -0.55356  -0.50271  -0.49020
 Alpha virt. eigenvalues --    0.13185   0.15573   0.19926   0.21817   0.53976
 Alpha virt. eigenvalues --    0.54781   0.57001   0.58173   0.66498   0.71565
 Alpha virt. eigenvalues --    0.78618   0.79524   0.79838   0.80693   0.82652

 Mulliken charges:
               1
     1  O   -0.509026
     2  H    0.252028
     3  H    0.258290
     4  O   -0.511022
     5  H    0.248606
     6  H    0.261124
 Sum of Mulliken charges =  -0.00000

 Dipole moment (field-independent basis, Debye):
    X=             -1.9310    Y=             -1.7838    Z=              0.0000  Tot=              2.6288
 Quadrupole moment (field-independent basis, Debye-Ang):
   XX=             -9.8258   YY=             -0.0205   ZZ=            -14.7151
   XY=             -4.3703   XZ=              0.0000   YZ=              0.0000

 Normal termination of Gaussian 16 at Fri Aug 26 15:28:05 2022.
