 Gaussian 16, Revision A.03,
 Gaussian 16:  ES64L-G16RevA.03 25-Dec-2016

 ------------------
 #p CCSD(T)/cc-pVTZ
 ------------------

 ------------
 H2O_H2O_4794
 ------------
 Symbolic Z-matrix:
 Charge =  0 Multiplicity = 1

                         Standard orientation:
 ---------------------------------------------------------------------
 Center     Atomic      Atomic             Coordinates (Angstroms)
 Number     Number       Type             X           Y           Z
 ---------------------------------------------------------------------
      1          8           0        0.054136   -3.301105    0.000000
      2          1           0       -0.746230   -3.871122    0.000000
      3          1           0        0.852910   -3.873351    0.000000
      4          8           0        0.054136    3.378464    0.000000
      5          1           0       -0.228361    4.319582    0.000000
      6          1           0       -0.744499    2.806023    0.000000
 ---------------------------------------------------------------------

 SCF Done:  E(RHF) =  -152.107432233     A.U. after   10 cycles
 E2 =    -0.5258736573D+00 EUMP2 =    -0.15263330589019D+03
 CCSD(T)
 CCSD(T)= -0.15266052569D+03

 The electronic state is 1-A'.
 Alpha  occ. eigenvalues --  -20.55605 -20.55207  -1.32904  -1.32505  -0.70310
 Alpha  occ. eigenvalues --   -0.69905  -0.56352  -0.55951  -0.50016  -0.49618
 Alpha virt. eigenvalues --    0.14072   0.14473   0.20149   0.20571   0.54252
 Alpha virt. eigenvalues --    0.54667   0.57172   0.57571   0.67832   0.68247
 Alpha virt. eigenvalues --    0.78864   0.79257   0.80295   0.80718   0.82219

 Mulliken charges:
               1
     1  O   -0.509028
     2  H    0.253510
     3  H    0.255518
     4  O   -0.508807
     5  H    0.252502
     6  H    0.256305
 Sum of Mulliken charges =  -0.00000

 Dipole moment (field-independent basis, Debye):
    X=             -1.8621    Y=             -1.3492    Z=              0.0000  Tot=              2.2995
 Quadrupole moment (field-independent basis, Debye-Ang):
   XX=             -9.6490   YY=              7.3737   ZZ=            -14.7120
   XY=             -5.8345   XZ=              0.0000   YZ=              0.0000

 Normal termination of Gaussian 16 at Sat Aug 27 09:22:23 2022.
