 Gaussian 16, Revision A.03,
 Gaussian 16:  ES64L-G16RevA.03 25-Dec-2016

 ------------------
 #p CCSD(T)/cc-pVTZ
 ------------------

 ------------
 H2O_H2O_2667
 ------------
 Symbolic Z-matrix:
 Charge =  0 Multiplicity = 1

                         Standard orientation:
 ---------------------------------------------------------------------
 Center     Atomic      Atomic             Coordinates (Angstroms)
 Number     Number       Type             X           Y           Z
 ---------------------------------------------------------------------
      1          8           0        0.051287   -2.178477    0.000000
      2          1           0       -0.749422   -2.748013    0.000000
      3          1           0        0.849717   -2.751203    0.000000
      4          8           0        0.051287    2.241978    0.000000
      5          1           0       -0.105369    3.212012    0.000000
      6          1           0       -0.815512    1.779198    0.000000
 ---------------------------------------------------------------------

 SCF Done:  E(RHF) =  -152.107140011     A.U. after   10 cycles
 E2 =    -0.5260487503D+00 EUMP2 =    -0.15263318876146D+03
 CCSD(T)
 CCSD(T)= -0.15266040006D+03

 The electronic state is 1-A'.
 Alpha  occ. eigenvalues --  -20.55457 -20.54647  -1.32746  -1.31937  -0.70155
 Alpha  occ. eigenvalues --   -0.69322  -0.56171  -0.55364  -0.49856  -0.49051
 Alpha virt. eigenvalues --    0.13568   0.15473   0.20150   0.21430   0.54084
 Alpha virt. eigenvalues --    0.54882   0.57327   0.58040   0.66116   0.72437
 Alpha virt. eigenvalues --    0.79012   0.79827   0.80032   0.81676   0.82781

 Mulliken charges:
               1
     1  O   -0.505554
     2  H    0.249981
     3  H    0.256176
     4  O   -0.506051
     5  H    0.247574
     6  H    0.257874
 Sum of Mulliken charges =  -0.00000

 Dipole moment (field-independent basis, Debye):
    X=             -1.7441    Y=             -1.1399    Z=              0.0000  Tot=              2.0835
 Quadrupole moment (field-independent basis, Debye-Ang):
   XX=             -9.4592   YY=              2.2713   ZZ=            -14.7128
   XY=             -3.3356   XZ=              0.0000   YZ=              0.0000

 Normal termination of Gaussian 16 at Fri Aug 26 14:52:57 2022.
