 Gaussian 16, Revision A.03,
 Gaussian 16:  ES64L-G16RevA.03 25-Dec-2016

 ------------------
 #p CCSD(T)/cc-pVTZ
 ------------------

 ------------
 H2O_H2O_2817
 ------------
 Symbolic Z-matrix:
 Charge =  0 Multiplicity = 1

                         Standard orientation:
 ---------------------------------------------------------------------
 Center     Atomic      Atomic             Coordinates (Angstroms)
 Number     Number       Type             X           Y           Z
 ---------------------------------------------------------------------
      1          8           0        0.051284   -2.258249    0.000000
      2          1           0       -0.749385   -2.827840    0.000000
      3          1           0        0.849754   -2.830919    0.000000
      4          8           0        0.051284    2.321757    0.000000
      5          1           0       -0.105439    3.291779    0.000000
      6          1           0       -0.815482    1.858917    0.000000
 ---------------------------------------------------------------------

 SCF Done:  E(RHF) =  -152.107150826     A.U. after   10 cycles
 E2 =    -0.5260122272D+00 EUMP2 =    -0.15263316305313D+03
 CCSD(T)
 CCSD(T)= -0.15266037784D+03

 The electronic state is 1-A'.
 Alpha  occ. eigenvalues --  -20.55460 -20.54714  -1.32752  -1.32005  -0.70160
 Alpha  occ. eigenvalues --   -0.69393  -0.56180  -0.55435  -0.49861  -0.49120
 Alpha virt. eigenvalues --    0.13650   0.15336   0.20163   0.21285   0.54169
 Alpha virt. eigenvalues --    0.54932   0.57317   0.57960   0.66448   0.71529
 Alpha virt. eigenvalues --    0.79017   0.79750   0.80131   0.81310   0.82820

 Mulliken charges:
               1
     1  O   -0.506293
     2  H    0.250518
     3  H    0.256179
     4  O   -0.506354
     5  H    0.248234
     6  H    0.257717
 Sum of Mulliken charges =   0.00000

 Dipole moment (field-independent basis, Debye):
    X=             -1.7472    Y=             -1.1348    Z=              0.0000  Tot=              2.0833
 Quadrupole moment (field-independent basis, Debye-Ang):
   XX=             -9.4586   YY=              2.7370   ZZ=            -14.7125
   XY=             -3.4733   XZ=              0.0000   YZ=              0.0000

 Normal termination of Gaussian 16 at Fri Aug 26 16:27:16 2022.
