 Gaussian 16, Revision A.03,
 Gaussian 16:  ES64L-G16RevA.03 25-Dec-2016

 ------------------
 #p CCSD(T)/cc-pVTZ
 ------------------

 ------------
 H2O_H2O_1162
 ------------
 Symbolic Z-matrix:
 Charge =  0 Multiplicity = 1

                         Standard orientation:
 ---------------------------------------------------------------------
 Center     Atomic      Atomic             Coordinates (Angstroms)
 Number     Number       Type             X           Y           Z
 ---------------------------------------------------------------------
      1          8           0        0.040426   -1.397146    0.000000
      2          1           0       -0.760547   -1.966310    0.000000
      3          1           0        0.838590   -1.970243    0.000000
      4          8           0        0.040426    1.430403    0.000000
      5          1           0        0.204340    2.399237    0.000000
      6          1           0       -0.929202    1.271256    0.000000
 ---------------------------------------------------------------------

 SCF Done:  E(RHF) =  -152.102137865     A.U. after   11 cycles
 E2 =    -0.5278306720D+00 EUMP2 =    -0.15262996853659D+03
 CCSD(T)
 CCSD(T)= -0.15265720715D+03

 The electronic state is 1-A'.
 Alpha  occ. eigenvalues --  -20.54483 -20.53535  -1.31866  -1.30778  -0.69285
 Alpha  occ. eigenvalues --   -0.68235  -0.55980  -0.53046  -0.49022  -0.47798
 Alpha virt. eigenvalues --    0.14016   0.16968   0.20277   0.22710   0.53342
 Alpha virt. eigenvalues --    0.57977   0.58198   0.58924   0.68331   0.76278
 Alpha virt. eigenvalues --    0.76733   0.77050   0.81260   0.82932   0.85592

 Mulliken charges:
               1
     1  O   -0.476639
     2  H    0.232495
     3  H    0.246188
     4  O   -0.471371
     5  H    0.224772
     6  H    0.244555
 Sum of Mulliken charges =  -0.00000

 Dipole moment (field-independent basis, Debye):
    X=             -1.3022    Y=             -0.6390    Z=              0.0000  Tot=              1.4505
 Quadrupole moment (field-independent basis, Debye-Ang):
   XX=             -8.9073   YY=             -1.8149   ZZ=            -14.7173
   XY=             -1.1788   XZ=              0.0000   YZ=              0.0000

 Normal termination of Gaussian 16 at Sat Aug 27 02:38:13 2022.
