 Gaussian 16, Revision A.03,
 Gaussian 16:  ES64L-G16RevA.03 25-Dec-2016

 ------------------
 #p CCSD(T)/cc-pVTZ
 ------------------

 ------------
 H2O_H2O_4153
 ------------
 Symbolic Z-matrix:
 Charge =  0 Multiplicity = 1

                         Standard orientation:
 ---------------------------------------------------------------------
 Center     Atomic      Atomic             Coordinates (Angstroms)
 Number     Number       Type             X           Y           Z
 ---------------------------------------------------------------------
      1          8           0        0.011143   -3.009532    0.000000
      2          1           0       -0.788610   -3.580409    0.000000
      3          1           0        0.810532   -3.580918    0.000000
      4          8           0        0.011143    3.011720    0.000000
      5          1           0        0.684156    3.727651    0.000000
      6          1           0       -0.884359    3.416174    0.000000
 ---------------------------------------------------------------------

 SCF Done:  E(RHF) =  -152.106729438     A.U. after   10 cycles
 E2 =    -0.5259420238D+00 EUMP2 =    -0.15263267146201D+03
 CCSD(T)
 CCSD(T)= -0.15265990582D+03

 The electronic state is 1-A'.
 Alpha  occ. eigenvalues --  -20.55154 -20.55140  -1.32449  -1.32435  -0.69857
 Alpha  occ. eigenvalues --   -0.69842  -0.55865  -0.55851  -0.49556  -0.49542
 Alpha virt. eigenvalues --    0.14446   0.14502   0.20500   0.20528   0.54710
 Alpha virt. eigenvalues --    0.54732   0.57570   0.57588   0.68314   0.68456
 Alpha virt. eigenvalues --    0.79323   0.79337   0.80768   0.80784   0.82699

 Mulliken charges:
               1
     1  O   -0.504864
     2  H    0.252142
     3  H    0.252722
     4  O   -0.504847
     5  H    0.252022
     6  H    0.252825
 Sum of Mulliken charges =  -0.00000

 Dipole moment (field-independent basis, Debye):
    X=             -0.3825    Y=             -0.0382    Z=              0.0000  Tot=              0.3844
 Quadrupole moment (field-independent basis, Debye-Ang):
   XX=             -7.8828   YY=             11.8937   ZZ=            -14.7105
   XY=             -0.8115   XZ=              0.0000   YZ=              0.0000

 Normal termination of Gaussian 16 at Sat Aug 27 05:40:46 2022.
