 Gaussian 16, Revision A.03,
 Gaussian 16:  ES64L-G16RevA.03 25-Dec-2016

 ------------------
 #p CCSD(T)/cc-pVTZ
 ------------------

 -----------
 H2O_H2O_865
 -----------
 Symbolic Z-matrix:
 Charge =  0 Multiplicity = 1

                         Standard orientation:
 ---------------------------------------------------------------------
 Center     Atomic      Atomic             Coordinates (Angstroms)
 Number     Number       Type             X           Y           Z
 ---------------------------------------------------------------------
      1          8           0        0.047570   -1.228254    0.000000
      2          1           0       -0.753859   -1.796775    0.000000
      3          1           0        0.845275   -1.801990    0.000000
      4          8           0        0.047570    1.278710    0.000000
      5          1           0        0.020113    2.260927    0.000000
      6          1           0       -0.872655    0.934193    0.000000
 ---------------------------------------------------------------------

 SCF Done:  E(RHF) =  -152.097911295     A.U. after   11 cycles
 E2 =    -0.5292641558D+00 EUMP2 =    -0.15262717545090D+03
 CCSD(T)
 CCSD(T)= -0.15265435255D+03

 The electronic state is 1-A'.
 Alpha  occ. eigenvalues --  -20.54691 -20.52920  -1.32361  -1.30142  -0.69748
 Alpha  occ. eigenvalues --   -0.67939  -0.56355  -0.52127  -0.49515  -0.47112
 Alpha virt. eigenvalues --    0.13846   0.17488   0.20072   0.23592   0.53193
 Alpha virt. eigenvalues --    0.57611   0.58442   0.60000   0.70836   0.75340
 Alpha virt. eigenvalues --    0.77627   0.79754   0.83141   0.84697   0.85230

 Mulliken charges:
               1
     1  O   -0.470227
     2  H    0.228732
     3  H    0.247068
     4  O   -0.466171
     5  H    0.213293
     6  H    0.247304
 Sum of Mulliken charges =  -0.00000

 Dipole moment (field-independent basis, Debye):
    X=             -1.4872    Y=             -0.9956    Z=              0.0000  Tot=              1.7897
 Quadrupole moment (field-independent basis, Debye-Ang):
   XX=             -9.3097   YY=             -3.4961   ZZ=            -14.7242
   XY=             -1.3987   XZ=              0.0000   YZ=              0.0000

 Normal termination of Gaussian 16 at Fri Aug 26 20:41:28 2022.
