 Gaussian 16, Revision A.03,
 Gaussian 16:  ES64L-G16RevA.03 25-Dec-2016

 ------------------
 #p CCSD(T)/cc-pVTZ
 ------------------

 ------------
 H2O_H2O_4707
 ------------
 Symbolic Z-matrix:
 Charge =  0 Multiplicity = 1

                         Standard orientation:
 ---------------------------------------------------------------------
 Center     Atomic      Atomic             Coordinates (Angstroms)
 Number     Number       Type             X           Y           Z
 ---------------------------------------------------------------------
      1          8           0        0.025264   -3.296850    0.000000
      2          1           0       -0.774682   -3.867456    0.000000
      3          1           0        0.824459   -3.868509    0.000000
      4          8           0        0.025264    3.308597    0.000000
      5          1           0        0.490342    4.174165    0.000000
      6          1           0       -0.944350    3.467826    0.000000
 ---------------------------------------------------------------------

 SCF Done:  E(RHF) =  -152.106976746     A.U. after   10 cycles
 E2 =    -0.5259137389D+00 EUMP2 =    -0.15263289048536D+03
 CCSD(T)
 CCSD(T)= -0.15266011999D+03

 The electronic state is 1-A'.
 Alpha  occ. eigenvalues --  -20.55285 -20.55223  -1.32581  -1.32519  -0.69988
 Alpha  occ. eigenvalues --   -0.69924  -0.56009  -0.55947  -0.49689  -0.49627
 Alpha virt. eigenvalues --    0.14356   0.14420   0.20409   0.20474   0.54580
 Alpha virt. eigenvalues --    0.54647   0.57459   0.57521   0.68212   0.68279
 Alpha virt. eigenvalues --    0.79190   0.79251   0.80630   0.80698   0.82556

 Mulliken charges:
               1
     1  O   -0.506322
     2  H    0.252657
     3  H    0.253666
     4  O   -0.506269
     5  H    0.252393
     6  H    0.253876
 Sum of Mulliken charges =  -0.00000

 Dipole moment (field-independent basis, Debye):
    X=             -0.8686    Y=             -0.2048    Z=              0.0000  Tot=              0.8924
 Quadrupole moment (field-independent basis, Debye-Ang):
   XX=             -8.2035   YY=             13.4146   ZZ=            -14.7110
   XY=             -2.1677   XZ=              0.0000   YZ=              0.0000

 Normal termination of Gaussian 16 at Sat Aug 27 08:52:08 2022.
