 Gaussian 16, Revision A.03,
 Gaussian 16:  ES64L-G16RevA.03 25-Dec-2016

 ------------------
 #p CCSD(T)/cc-pVTZ
 ------------------

 ------------
 H2O_H2O_1894
 ------------
 Symbolic Z-matrix:
 Charge =  0 Multiplicity = 1

                         Standard orientation:
 ---------------------------------------------------------------------
 Center     Atomic      Atomic             Coordinates (Angstroms)
 Number     Number       Type             X           Y           Z
 ---------------------------------------------------------------------
      1          8           0        0.054182   -1.758847    0.000000
      2          1           0       -0.746865   -2.327907    0.000000
      3          1           0        0.852272   -2.332048    0.000000
      4          8           0        0.054182    1.836077    0.000000
      5          1           0       -0.227189    2.777531    0.000000
      6          1           0       -0.745136    1.264591    0.000000
 ---------------------------------------------------------------------

 SCF Done:  E(RHF) =  -152.107675579     A.U. after   10 cycles
 E2 =    -0.5264686143D+00 EUMP2 =    -0.15263414419354D+03
 CCSD(T)
 CCSD(T)= -0.15266130965D+03

 The electronic state is 1-A'.
 Alpha  occ. eigenvalues --  -20.55709 -20.54100  -1.32981  -1.31381  -0.70394
 Alpha  occ. eigenvalues --   -0.68751  -0.56402  -0.54809  -0.50096  -0.48506
 Alpha virt. eigenvalues --    0.13287   0.16363   0.19949   0.22971   0.54014
 Alpha virt. eigenvalues --    0.54540   0.57109   0.58515   0.65214   0.75638
 Alpha virt. eigenvalues --    0.78204   0.78711   0.79060   0.80761   0.84703

 Mulliken charges:
               1
     1  O   -0.497726
     2  H    0.245684
     3  H    0.256035
     4  O   -0.505767
     5  H    0.241942
     6  H    0.259832
 Sum of Mulliken charges =  -0.00000

 Dipole moment (field-independent basis, Debye):
    X=             -1.8123    Y=             -1.4420    Z=              0.0000  Tot=              2.3160
 Quadrupole moment (field-independent basis, Debye-Ang):
   XX=             -9.6535   YY=             -0.8497   ZZ=            -14.7168
   XY=             -3.0087   XZ=              0.0000   YZ=              0.0000

 Normal termination of Gaussian 16 at Sat Aug 27 07:24:29 2022.
