 Gaussian 16, Revision A.03,
 Gaussian 16:  ES64L-G16RevA.03 25-Dec-2016

 ------------------
 #p CCSD(T)/cc-pVTZ
 ------------------

 ------------
 H2O_H2O_1175
 ------------
 Symbolic Z-matrix:
 Charge =  0 Multiplicity = 1

                         Standard orientation:
 ---------------------------------------------------------------------
 Center     Atomic      Atomic             Coordinates (Angstroms)
 Number     Number       Type             X           Y           Z
 ---------------------------------------------------------------------
      1          8           0        0.000000   -0.000000    1.428507
      2          1           0        0.000000    0.799571    1.999639
      3          1           0       -0.000000   -0.799571    1.999639
      4          8           0        0.000000   -0.000000   -1.428507
      5          1           0       -0.000000   -0.799571   -1.999639
      6          1           0        0.000000    0.799571   -1.999639
 ---------------------------------------------------------------------

 SCF Done:  E(RHF) =  -152.099659248     A.U. after   10 cycles
 E2 =    -0.5277464011D+00 EUMP2 =    -0.15262740564877D+03
 CCSD(T)
 CCSD(T)= -0.15265471974D+03

 The electronic state is 1-AG.
 Alpha  occ. eigenvalues --  -20.53638 -20.53637  -1.31147  -1.30809  -0.68537
 Alpha  occ. eigenvalues --   -0.68294  -0.55868  -0.52276  -0.48373  -0.47716
 Alpha virt. eigenvalues --    0.14439   0.16937   0.20568   0.21981   0.51129
 Alpha virt. eigenvalues --    0.58445   0.58737   0.60944   0.68840   0.76262
 Alpha virt. eigenvalues --    0.77346   0.77928   0.79199   0.83157   0.86245

 Mulliken charges:
               1
     1  O   -0.468244
     2  H    0.234122
     3  H    0.234122
     4  O   -0.468244
     5  H    0.234122
     6  H    0.234122
 Sum of Mulliken charges =   0.00000

 Dipole moment (field-independent basis, Debye):
    X=             -0.0000    Y=              0.0000    Z=             -0.0000  Tot=              0.0000
 Quadrupole moment (field-independent basis, Debye-Ang):
   XX=            -14.7126   YY=             -7.9179   ZZ=             -1.1009
   XY=              0.0000   XZ=             -0.0000   YZ=             -0.0000

 \MP4DQ=-152.6362613\MP4SDQ=-152.6394315\CCSD=-152.638803\CCSD(T)=-152.
 Normal termination of Gaussian 16 at Sat Aug 27 02:44:30 2022.
