 Gaussian 16, Revision A.03,
 Gaussian 16:  ES64L-G16RevA.03 25-Dec-2016

 ------------------
 #p CCSD(T)/cc-pVTZ
 ------------------

 ------------
 H2O_H2O_1135
 ------------
 Symbolic Z-matrix:
 Charge =  0 Multiplicity = 1

                         Standard orientation:
 ---------------------------------------------------------------------
 Center     Atomic      Atomic             Coordinates (Angstroms)
 Number     Number       Type             X           Y           Z
 ---------------------------------------------------------------------
      1          8           0        0.034793   -1.389174    0.000000
      2          1           0       -0.765996   -1.958597    0.000000
      3          1           0        0.833142   -1.962013    0.000000
      4          8           0        0.034793    1.412630    0.000000
      5          1           0        0.323461    2.351873    0.000000
      6          1           0       -0.947302    1.381089    0.000000
 ---------------------------------------------------------------------

 SCF Done:  E(RHF) =  -152.101027107     A.U. after   11 cycles
 E2 =    -0.5279095376D+00 EUMP2 =    -0.15262893664474D+03
 CCSD(T)
 CCSD(T)= -0.15265619807D+03

 The electronic state is 1-A'.
 Alpha  occ. eigenvalues --  -20.54190 -20.53536  -1.31600  -1.30777  -0.69012
 Alpha  occ. eigenvalues --   -0.68239  -0.56004  -0.52680  -0.48782  -0.47756
 Alpha virt. eigenvalues --    0.14147   0.16970   0.20378   0.22498   0.52787
 Alpha virt. eigenvalues --    0.58185   0.58470   0.59624   0.68598   0.76501
 Alpha virt. eigenvalues --    0.76848   0.77427   0.81261   0.83103   0.85812

 Mulliken charges:
               1
     1  O   -0.474588
     2  H    0.231450
     3  H    0.243839
     4  O   -0.467006
     5  H    0.224754
     6  H    0.241550
 Sum of Mulliken charges =  -0.00000

 Dipole moment (field-independent basis, Debye):
    X=             -1.1194    Y=             -0.4494    Z=              0.0000  Tot=              1.2063
 Quadrupole moment (field-independent basis, Debye-Ang):
   XX=             -8.6564   YY=             -1.7187   ZZ=            -14.7164
   XY=             -0.8951   XZ=              0.0000   YZ=              0.0000

 Normal termination of Gaussian 16 at Sat Aug 27 02:23:53 2022.
