 Gaussian 16, Revision A.03,
 Gaussian 16:  ES64L-G16RevA.03 25-Dec-2016

 ------------------
 #p CCSD(T)/cc-pVTZ
 ------------------

 ------------
 H2O_H2O_3007
 ------------
 Symbolic Z-matrix:
 Charge =  0 Multiplicity = 1

                         Standard orientation:
 ---------------------------------------------------------------------
 Center     Atomic      Atomic             Coordinates (Angstroms)
 Number     Number       Type             X           Y           Z
 ---------------------------------------------------------------------
      1          8           0        0.025266   -2.392735    0.000000
      2          1           0       -0.774823   -2.963142    0.000000
      3          1           0        0.824319   -2.964592    0.000000
      4          8           0        0.025266    2.404469    0.000000
      5          1           0        0.490559    3.269922    0.000000
      6          1           0       -0.944309    2.563939    0.000000
 ---------------------------------------------------------------------

 SCF Done:  E(RHF) =  -152.106193945     A.U. after   10 cycles
 E2 =    -0.5260364831D+00 EUMP2 =    -0.15263223042817D+03
 CCSD(T)
 CCSD(T)= -0.15265947283D+03

 The electronic state is 1-A'.
 Alpha  occ. eigenvalues --  -20.54971 -20.54852  -1.32264  -1.32143  -0.69674
 Alpha  occ. eigenvalues --   -0.69550  -0.55655  -0.55528  -0.49366  -0.49247
 Alpha virt. eigenvalues --    0.14319   0.14989   0.20538   0.20821   0.54743
 Alpha virt. eigenvalues --    0.55140   0.57693   0.57848   0.66927   0.70497
 Alpha virt. eigenvalues --    0.79498   0.79638   0.80918   0.81148   0.82625

 Mulliken charges:
               1
     1  O   -0.501716
     2  H    0.249624
     3  H    0.252106
     4  O   -0.501478
     5  H    0.249080
     6  H    0.252385
 Sum of Mulliken charges =  -0.00000

 Dipole moment (field-independent basis, Debye):
    X=             -0.8621    Y=             -0.2076    Z=              0.0000  Tot=              0.8868
 Quadrupole moment (field-independent basis, Debye-Ang):
   XX=             -8.2155   YY=              6.5165   ZZ=            -14.7101
   XY=             -1.3925   XZ=              0.0000   YZ=              0.0000

 Normal termination of Gaussian 16 at Fri Aug 26 18:24:43 2022.
