 Gaussian 16, Revision A.03,
 Gaussian 16:  ES64L-G16RevA.03 25-Dec-2016

 ------------------
 #p CCSD(T)/cc-pVTZ
 ------------------

 ------------
 H2O_H2O_1092
 ------------
 Symbolic Z-matrix:
 Charge =  0 Multiplicity = 1

                         Standard orientation:
 ---------------------------------------------------------------------
 Center     Atomic      Atomic             Coordinates (Angstroms)
 Number     Number       Type             X           Y           Z
 ---------------------------------------------------------------------
      1          8           0        0.051325   -1.340900    0.000000
      2          1           0       -0.750076   -1.909460    0.000000
      3          1           0        0.849057   -1.914598    0.000000
      4          8           0        0.051325    1.404276    0.000000
      5          1           0       -0.104150    2.374500    0.000000
      6          1           0       -0.816036    0.942551    0.000000
 ---------------------------------------------------------------------

 SCF Done:  E(RHF) =  -152.103678276     A.U. after   10 cycles
 E2 =    -0.5281725132D+00 EUMP2 =    -0.15263185078948D+03
 CCSD(T)
 CCSD(T)= -0.15265901487D+03

 The electronic state is 1-A'.
 Alpha  occ. eigenvalues --  -20.55302 -20.53207  -1.32729  -1.30463  -0.70144
 Alpha  occ. eigenvalues --   -0.68056  -0.56174  -0.53447  -0.49852  -0.47532
 Alpha virt. eigenvalues --    0.13620   0.17285   0.19953   0.23749   0.53313
 Alpha virt. eigenvalues --    0.57335   0.57979   0.58571   0.69983   0.75572
 Alpha virt. eigenvalues --    0.75911   0.78142   0.81702   0.82710   0.84918

 Mulliken charges:
               1
     1  O   -0.478422
     2  H    0.234621
     3  H    0.251866
     4  O   -0.484461
     5  H    0.224173
     6  H    0.252223
 Sum of Mulliken charges =   0.00000

 Dipole moment (field-independent basis, Debye):
    X=             -1.6419    Y=             -1.2442    Z=              0.0000  Tot=              2.0601
 Quadrupole moment (field-independent basis, Debye-Ang):
   XX=             -9.5033   YY=             -2.9255   ZZ=            -14.7229
   XY=             -1.9129   XZ=              0.0000   YZ=              0.0000

 Normal termination of Gaussian 16 at Sat Aug 27 02:04:10 2022.
