 Gaussian 16, Revision A.03,
 Gaussian 16:  ES64L-G16RevA.03 25-Dec-2016

 ------------------
 #p CCSD(T)/cc-pVTZ
 ------------------

 ------------
 H2O_H2O_1277
 ------------
 Symbolic Z-matrix:
 Charge =  0 Multiplicity = 1

                         Standard orientation:
 ---------------------------------------------------------------------
 Center     Atomic      Atomic             Coordinates (Angstroms)
 Number     Number       Type             X           Y           Z
 ---------------------------------------------------------------------
      1          8           0        0.007455   -1.481163    0.000000
      2          1           0       -0.792363   -2.051949    0.000000
      3          1           0        0.806779   -2.052641    0.000000
      4          8           0        0.007455    1.482134    0.000000
      5          1           0        0.725928    2.152433    0.000000
      6          1           0       -0.859624    1.944390    0.000000
 ---------------------------------------------------------------------

 SCF Done:  E(RHF) =  -152.100909129     A.U. after   10 cycles
 E2 =    -0.5274823788D+00 EUMP2 =    -0.15262839150732D+03
 CCSD(T)
 CCSD(T)= -0.15265569391D+03

 The electronic state is 1-A'.
 Alpha  occ. eigenvalues --  -20.53797 -20.53773  -1.31229  -1.30974  -0.68633
 Alpha  occ. eigenvalues --   -0.68442  -0.55689  -0.52770  -0.48436  -0.47914
 Alpha virt. eigenvalues --    0.14399   0.16778   0.20564   0.21895   0.51536
 Alpha virt. eigenvalues --    0.58359   0.58681   0.60220   0.66808   0.76251
 Alpha virt. eigenvalues --    0.77639   0.77985   0.79191   0.82841   0.86155

 Mulliken charges:
               1
     1  O   -0.471320
     2  H    0.234341
     3  H    0.236981
     4  O   -0.470853
     5  H    0.234319
     6  H    0.236531
 Sum of Mulliken charges =   0.00000

 Dipole moment (field-independent basis, Debye):
    X=             -0.2433    Y=             -0.0183    Z=              0.0000  Tot=              0.2440
 Quadrupole moment (field-independent basis, Debye-Ang):
   XX=             -7.9379   YY=             -0.6229   ZZ=            -14.7110
   XY=             -0.1598   XZ=              0.0000   YZ=              0.0000

 Normal termination of Gaussian 16 at Sat Aug 27 03:34:10 2022.
