 Gaussian 16, Revision A.03,
 Gaussian 16:  ES64L-G16RevA.03 25-Dec-2016

 ------------------
 #p CCSD(T)/cc-pVTZ
 ------------------

 ------------
 H2O_H2O_1940
 ------------
 Symbolic Z-matrix:
 Charge =  0 Multiplicity = 1

                         Standard orientation:
 ---------------------------------------------------------------------
 Center     Atomic      Atomic             Coordinates (Angstroms)
 Number     Number       Type             X           Y           Z
 ---------------------------------------------------------------------
      1          8           0        0.047545   -1.799927    0.000000
      2          1           0       -0.753304   -2.369267    0.000000
      3          1           0        0.845834   -2.372849    0.000000
      4          8           0        0.047545    1.850480    0.000000
      5          1           0        0.019083    2.832669    0.000000
      6          1           0       -0.872328    1.505024    0.000000
 ---------------------------------------------------------------------

 SCF Done:  E(RHF) =  -152.106442291     A.U. after   10 cycles
 E2 =    -0.5264531214D+00 EUMP2 =    -0.15263289541214D+03
 CCSD(T)
 CCSD(T)= -0.15266009415D+03

 The electronic state is 1-A'.
 Alpha  occ. eigenvalues --  -20.55223 -20.54250  -1.32499  -1.31521  -0.69917
 Alpha  occ. eigenvalues --   -0.68902  -0.55907  -0.54862  -0.49608  -0.48634
 Alpha virt. eigenvalues --    0.13582   0.16161   0.20180   0.22121   0.53552
 Alpha virt. eigenvalues --    0.54857   0.57514   0.58519   0.64220   0.76290
 Alpha virt. eigenvalues --    0.78715   0.78748   0.80369   0.80703   0.85033

 Mulliken charges:
               1
     1  O   -0.495608
     2  H    0.244162
     3  H    0.253393
     4  O   -0.498615
     5  H    0.241338
     6  H    0.255329
 Sum of Mulliken charges =  -0.00000

 Dipole moment (field-independent basis, Debye):
    X=             -1.5925    Y=             -0.9351    Z=              0.0000  Tot=              1.8467
 Quadrupole moment (field-independent basis, Debye-Ang):
   XX=             -9.2397   YY=              0.5829   ZZ=            -14.7135
   XY=             -2.2848   XZ=              0.0000   YZ=              0.0000

 Normal termination of Gaussian 16 at Sat Aug 27 07:40:26 2022.
