 Gaussian 16, Revision A.03,
 Gaussian 16:  ES64L-G16RevA.03 25-Dec-2016

 ------------------
 #p CCSD(T)/cc-pVTZ
 ------------------

 -----------
 H2O_H2O_125
 -----------
 Symbolic Z-matrix:
 Charge =  0 Multiplicity = 1

                         Standard orientation:
 ---------------------------------------------------------------------
 Center     Atomic      Atomic             Coordinates (Angstroms)
 Number     Number       Type             X           Y           Z
 ---------------------------------------------------------------------
      1          8           0        0.000000   -0.000000    0.870079
      2          1           0        0.000000    0.799571    1.441211
      3          1           0       -0.000000   -0.799571    1.441211
      4          8           0        0.000000   -0.000000   -0.870079
      5          1           0       -0.000000   -0.799571   -1.441211
      6          1           0        0.000000    0.799571   -1.441211
 ---------------------------------------------------------------------

 SCF Done:  E(RHF) =  -151.974498534     A.U. after   11 cycles
 E2 =    -0.5448208804D+00 EUMP2 =    -0.15251931941445D+03
 CCSD(T)
 CCSD(T)= -0.15254482848D+03

 The electronic state is 1-AG.
 Alpha  occ. eigenvalues --  -20.51163 -20.51162  -1.34496  -1.27286  -0.69714
 Alpha  occ. eigenvalues --   -0.65870  -0.65584  -0.51168  -0.43519  -0.36423
 Alpha virt. eigenvalues --    0.14611   0.19345   0.20076   0.22999   0.50382
 Alpha virt. eigenvalues --    0.59133   0.59262   0.67541   0.67661   0.79299
 Alpha virt. eigenvalues --    0.80666   0.84043   0.84345   0.86279   0.87745

 Mulliken charges:
               1
     1  O   -0.376014
     2  H    0.188007
     3  H    0.188007
     4  O   -0.376014
     5  H    0.188007
     6  H    0.188007
 Sum of Mulliken charges =   0.00000

 Dipole moment (field-independent basis, Debye):
    X=             -0.0000    Y=              0.0000    Z=             -0.0000  Tot=              0.0000
 Quadrupole moment (field-independent basis, Debye-Ang):
   XX=            -14.7655   YY=             -8.3852   ZZ=             -7.9286
   XY=              0.0000   XZ=              0.0000   YZ=             -0.0000

 \MP4DQ=-152.5239198\MP4SDQ=-152.5279868\CCSD=-152.5268772\CCSD(T)=-152
 Normal termination of Gaussian 16 at Fri Aug 26 13:00:17 2022.
