 Gaussian 16, Revision A.03,
 Gaussian 16:  ES64L-G16RevA.03 25-Dec-2016

 ------------------
 #p CCSD(T)/cc-pVTZ
 ------------------

 ------------
 H2O_H2O_3709
 ------------
 Symbolic Z-matrix:
 Charge =  0 Multiplicity = 1

                         Standard orientation:
 ---------------------------------------------------------------------
 Center     Atomic      Atomic             Coordinates (Angstroms)
 Number     Number       Type             X           Y           Z
 ---------------------------------------------------------------------
      1          8           0        0.031740   -2.760972    0.000000
      2          1           0       -0.768394   -3.331316    0.000000
      3          1           0        0.830747   -3.332892    0.000000
      4          8           0        0.031740    2.780160    0.000000
      5          1           0        0.380161    3.698914    0.000000
      6          1           0       -0.950352    2.811790    0.000000
 ---------------------------------------------------------------------

 SCF Done:  E(RHF) =  -152.106713749     A.U. after   10 cycles
 E2 =    -0.5259547347D+00 EUMP2 =    -0.15263266848415D+03
 CCSD(T)
 CCSD(T)= -0.15265990251D+03

 The electronic state is 1-A'.
 Alpha  occ. eigenvalues --  -20.55185 -20.55040  -1.32480  -1.32334  -0.69888
 Alpha  occ. eigenvalues --   -0.69738  -0.55895  -0.55750  -0.49587  -0.49441
 Alpha virt. eigenvalues --    0.14373   0.14636   0.20457   0.20641   0.54670
 Alpha virt. eigenvalues --    0.54848   0.57536   0.57687   0.68104   0.68748
 Alpha virt. eigenvalues --    0.79291   0.79435   0.80734   0.80897   0.82679

 Mulliken charges:
               1
     1  O   -0.504795
     2  H    0.251353
     3  H    0.253443
     4  O   -0.504612
     5  H    0.250794
     6  H    0.253816
 Sum of Mulliken charges =   0.00000

 Dipole moment (field-independent basis, Debye):
    X=             -1.0878    Y=             -0.3366    Z=              0.0000  Tot=              1.1387
 Quadrupole moment (field-independent basis, Debye-Ang):
   XX=             -8.4400   YY=              8.8685   ZZ=            -14.7107
   XY=             -2.2228   XZ=              0.0000   YZ=              0.0000

 Normal termination of Gaussian 16 at Sat Aug 27 02:40:07 2022.
