 Gaussian 16, Revision A.03,
 Gaussian 16:  ES64L-G16RevA.03 25-Dec-2016

 ------------------
 #p CCSD(T)/cc-pVTZ
 ------------------

 ------------
 H2O_H2O_4737
 ------------
 Symbolic Z-matrix:
 Charge =  0 Multiplicity = 1

                         Standard orientation:
 ---------------------------------------------------------------------
 Center     Atomic      Atomic             Coordinates (Angstroms)
 Number     Number       Type             X           Y           Z
 ---------------------------------------------------------------------
      1          8           0        0.040403   -3.298402    0.000000
      2          1           0       -0.759767   -3.868695    0.000000
      3          1           0        0.839374   -3.870372    0.000000
      4          8           0        0.040403    3.331773    0.000000
      5          1           0        0.202950    4.300837    0.000000
      6          1           0       -0.929000    3.171259    0.000000
 ---------------------------------------------------------------------

 SCF Done:  E(RHF) =  -152.107128912     A.U. after   10 cycles
 E2 =    -0.5259006731D+00 EUMP2 =    -0.15263302958503D+03
 CCSD(T)
 CCSD(T)= -0.15266025583D+03

 The electronic state is 1-A'.
 Alpha  occ. eigenvalues --  -20.55393 -20.55218  -1.32690  -1.32515  -0.70097
 Alpha  occ. eigenvalues --   -0.69918  -0.56125  -0.55949  -0.49800  -0.49625
 Alpha virt. eigenvalues --    0.14260   0.14436   0.20321   0.20504   0.54469
 Alpha virt. eigenvalues --    0.54655   0.57362   0.57537   0.68085   0.68265
 Alpha virt. eigenvalues --    0.79080   0.79253   0.80517   0.80706   0.82442

 Mulliken charges:
               1
     1  O   -0.507228
     2  H    0.252820
     3  H    0.254408
     4  O   -0.507105
     5  H    0.252290
     6  H    0.254816
 Sum of Mulliken charges =  -0.00000

 Dipole moment (field-independent basis, Debye):
    X=             -1.3893    Y=             -0.5818    Z=              0.0000  Tot=              1.5062
 Quadrupole moment (field-independent basis, Debye-Ang):
   XX=             -8.8298   YY=             11.5946   ZZ=            -14.7113
   XY=             -3.7595   XZ=              0.0000   YZ=              0.0000

 Normal termination of Gaussian 16 at Sat Aug 27 09:03:53 2022.
