 Gaussian 16, Revision A.03,
 Gaussian 16:  ES64L-G16RevA.03 25-Dec-2016

 ------------------
 #p CCSD(T)/cc-pVTZ
 ------------------

 -----------
 H2O_H2O_334
 -----------
 Symbolic Z-matrix:
 Charge =  0 Multiplicity = 1

                         Standard orientation:
 ---------------------------------------------------------------------
 Center     Atomic      Atomic             Coordinates (Angstroms)
 Number     Number       Type             X           Y           Z
 ---------------------------------------------------------------------
      1          8           0        0.031757   -0.966084    0.000000
      2          1           0       -0.769410   -1.534976    0.000000
      3          1           0        0.829726   -1.539453    0.000000
      4          8           0        0.031757    0.985157    0.000000
      5          1           0        0.381844    1.903278    0.000000
      6          1           0       -0.950276    1.018568    0.000000
 ---------------------------------------------------------------------

 SCF Done:  E(RHF) =  -152.045203391     A.U. after   11 cycles
 E2 =    -0.5363735903D+00 EUMP2 =    -0.15258157698142D+03
 CCSD(T)
 CCSD(T)= -0.15260825050D+03

 The electronic state is 1-A'.
 Alpha  occ. eigenvalues --  -20.52388 -20.51770  -1.32784  -1.28373  -0.69531
 Alpha  occ. eigenvalues --   -0.67201  -0.60146  -0.49838  -0.44894  -0.43860
 Alpha virt. eigenvalues --    0.14426   0.18296   0.20232   0.23309   0.52699
 Alpha virt. eigenvalues --    0.57637   0.58638   0.64614   0.70687   0.77457
 Alpha virt. eigenvalues --    0.79050   0.82393   0.83725   0.85944   0.88138

 Mulliken charges:
               1
     1  O   -0.432486
     2  H    0.205748
     3  H    0.224216
     4  O   -0.401507
     5  H    0.172033
     6  H    0.231996
 Sum of Mulliken charges =  -0.00000

 Dipole moment (field-independent basis, Debye):
    X=             -0.9130    Y=             -0.4022    Z=              0.0000  Tot=              0.9977
 Quadrupole moment (field-independent basis, Debye-Ang):
   XX=             -8.7190   YY=             -6.0888   ZZ=            -14.7321
   XY=             -0.4096   XZ=              0.0000   YZ=              0.0000

 Normal termination of Gaussian 16 at Fri Aug 26 15:23:22 2022.
