 Gaussian 16, Revision A.03,
 Gaussian 16:  ES64L-G16RevA.03 25-Dec-2016

 ------------------
 #p CCSD(T)/cc-pVTZ
 ------------------

 ------------
 H2O_H2O_1374
 ------------
 Symbolic Z-matrix:
 Charge =  0 Multiplicity = 1

                         Standard orientation:
 ---------------------------------------------------------------------
 Center     Atomic      Atomic             Coordinates (Angstroms)
 Number     Number       Type             X           Y           Z
 ---------------------------------------------------------------------
      1          8           0        0.057298   -1.459742    0.000000
      2          1           0       -0.744120   -2.028279    0.000000
      3          1           0        0.855013   -2.033463    0.000000
      4          8           0        0.057298    1.573597    0.000000
      5          1           0       -0.511239    2.375015    0.000000
      6          1           0       -0.516423    0.775881    0.000000
 ---------------------------------------------------------------------

 SCF Done:  E(RHF) =  -152.109961239     A.U. after   10 cycles
 E2 =    -0.5274797651D+00 EUMP2 =    -0.15263744100433D+03
 CCSD(T)
 CCSD(T)= -0.15266449337D+03

 The electronic state is 1-A'.
 Alpha  occ. eigenvalues --  -20.56806 -20.53088  -1.34133  -1.30445  -0.71513
 Alpha  occ. eigenvalues --   -0.68056  -0.57497  -0.53950  -0.51245  -0.47578
 Alpha virt. eigenvalues --    0.12859   0.17391   0.19476   0.26195   0.51609
 Alpha virt. eigenvalues --    0.55866   0.56752   0.58847   0.69017   0.74452
 Alpha virt. eigenvalues --    0.74997   0.77643   0.81888   0.82776   0.83871

 Mulliken charges:
               1
     1  O   -0.493145
     2  H    0.246902
     3  H    0.261491
     4  O   -0.520676
     5  H    0.237446
     6  H    0.267982
 Sum of Mulliken charges =  -0.00000

 Dipole moment (field-independent basis, Debye):
    X=             -1.8771    Y=             -2.2650    Z=              0.0000  Tot=              2.9417
 Quadrupole moment (field-independent basis, Debye-Ang):
   XX=             -9.8590   YY=             -4.1861   ZZ=            -14.7280
   XY=             -3.3102   XZ=              0.0000   YZ=              0.0000

 Normal termination of Gaussian 16 at Sat Aug 27 04:19:54 2022.
