 Gaussian 16, Revision A.03,
 Gaussian 16:  ES64L-G16RevA.03 25-Dec-2016

 ------------------
 #p CCSD(T)/cc-pVTZ
 ------------------

 -----------
 H2O_H2O_439
 -----------
 Symbolic Z-matrix:
 Charge =  0 Multiplicity = 1

                         Standard orientation:
 ---------------------------------------------------------------------
 Center     Atomic      Atomic             Coordinates (Angstroms)
 Number     Number       Type             X           Y           Z
 ---------------------------------------------------------------------
      1          8           0        0.045395   -1.005541    0.000000
      2          1           0       -0.756337   -1.573634    0.000000
      3          1           0        0.842793   -1.579703    0.000000
      4          8           0        0.045395    1.049886    0.000000
      5          1           0        0.082761    2.031776    0.000000
      6          1           0       -0.895544    0.766795    0.000000
 ---------------------------------------------------------------------

 SCF Done:  E(RHF) =  -152.065570779     A.U. after   11 cycles
 E2 =    -0.5343008496D+00 EUMP2 =    -0.15259987162864D+03
 CCSD(T)
 CCSD(T)= -0.15262675032D+03

 The electronic state is 1-A'.
 Alpha  occ. eigenvalues --  -20.53652 -20.51946  -1.33073  -1.28831  -0.70279
 Alpha  occ. eigenvalues --   -0.68027  -0.57510  -0.50070  -0.47602  -0.45576
 Alpha virt. eigenvalues --    0.14046   0.18146   0.20021   0.23836   0.53013
 Alpha virt. eigenvalues --    0.57384   0.58660   0.63088   0.71769   0.75974
 Alpha virt. eigenvalues --    0.79907   0.82276   0.83164   0.84996   0.88149

 Mulliken charges:
               1
     1  O   -0.437097
     2  H    0.209303
     3  H    0.230104
     4  O   -0.420738
     5  H    0.178277
     6  H    0.240151
 Sum of Mulliken charges =  -0.00000

 Dipole moment (field-independent basis, Debye):
    X=             -1.3250    Y=             -0.9047    Z=              0.0000  Tot=              1.6044
 Quadrupole moment (field-independent basis, Debye-Ang):
   XX=             -9.2568   YY=             -5.5686   ZZ=            -14.7155
   XY=             -0.9311   XZ=              0.0000   YZ=              0.0000

 Normal termination of Gaussian 16 at Fri Aug 26 16:28:18 2022.
