 Gaussian 16, Revision A.03,
 Gaussian 16:  ES64L-G16RevA.03 25-Dec-2016

 ------------------
 #p CCSD(T)/cc-pVTZ
 ------------------

 ------------
 H2O_H2O_1600
 ------------
 Symbolic Z-matrix:
 Charge =  0 Multiplicity = 1

                         Standard orientation:
 ---------------------------------------------------------------------
 Center     Atomic      Atomic             Coordinates (Angstroms)
 Number     Number       Type             X           Y           Z
 ---------------------------------------------------------------------
      1          8           0        0.000000   -0.000000    1.654537
      2          1           0        0.000000    0.799571    2.225669
      3          1           0       -0.000000   -0.799571    2.225669
      4          8           0        0.000000   -0.000000   -1.654537
      5          1           0       -0.000000   -0.799571   -2.225669
      6          1           0        0.000000    0.799571   -2.225669
 ---------------------------------------------------------------------

 SCF Done:  E(RHF) =  -152.103193175     A.U. after   10 cycles
 E2 =    -0.5268898165D+00 EUMP2 =    -0.15263008299096D+03
 CCSD(T)
 CCSD(T)= -0.15265735417D+03

 The electronic state is 1-AG.
 Alpha  occ. eigenvalues --  -20.54125 -20.54125  -1.31458  -1.31360  -0.68879
 Alpha  occ. eigenvalues --   -0.68799  -0.55374  -0.53858  -0.48617  -0.48375
 Alpha virt. eigenvalues --    0.14309   0.16330   0.20594   0.21576   0.52716
 Alpha virt. eigenvalues --    0.58107   0.58517   0.58549   0.62104   0.76000
 Alpha virt. eigenvalues --    0.78601   0.78734   0.79828   0.81800   0.85170

 Mulliken charges:
               1
     1  O   -0.479972
     2  H    0.239986
     3  H    0.239986
     4  O   -0.479972
     5  H    0.239986
     6  H    0.239986
 Sum of Mulliken charges =  -0.00000

 Dipole moment (field-independent basis, Debye):
    X=             -0.0000    Y=              0.0000    Z=             -0.0000  Tot=              0.0000
 Quadrupole moment (field-independent basis, Debye-Ang):
   XX=            -14.7088   YY=             -7.8711   ZZ=              0.9366
   XY=              0.0000   XZ=              0.0000   YZ=             -0.0000

 \MP4DQ=-152.6390648\MP4SDQ=-152.6421866\CCSD=-152.6415729\CCSD(T)=-152
 Normal termination of Gaussian 16 at Sat Aug 27 05:42:08 2022.
