 Gaussian 16, Revision A.03,
 Gaussian 16:  ES64L-G16RevA.03 25-Dec-2016

 ------------------
 #p CCSD(T)/cc-pVTZ
 ------------------

 ------------
 H2O_H2O_2228
 ------------
 Symbolic Z-matrix:
 Charge =  0 Multiplicity = 1

                         Standard orientation:
 ---------------------------------------------------------------------
 Center     Atomic      Atomic             Coordinates (Angstroms)
 Number     Number       Type             X           Y           Z
 ---------------------------------------------------------------------
      1          8           0        0.011143   -1.985749    0.000000
      2          1           0       -0.788704   -2.556495    0.000000
      3          1           0        0.810438   -2.557267    0.000000
      4          8           0        0.011143    1.987933    0.000000
      5          1           0        0.684273    2.703754    0.000000
      6          1           0       -0.884292    2.392534    0.000000
 ---------------------------------------------------------------------

 SCF Done:  E(RHF) =  -152.105114473     A.U. after   10 cycles
 E2 =    -0.5263048569D+00 EUMP2 =    -0.15263141932954D+03
 CCSD(T)
 CCSD(T)= -0.15265866776D+03

 The electronic state is 1-A'.
 Alpha  occ. eigenvalues --  -20.54578 -20.54544  -1.31862  -1.31825  -0.69280
 Alpha  occ. eigenvalues --   -0.69241  -0.55355  -0.54967  -0.48971  -0.48910
 Alpha virt. eigenvalues --    0.14197   0.15638   0.20620   0.21135   0.54287
 Alpha virt. eigenvalues --    0.56200   0.57898   0.58166   0.62304   0.74730
 Alpha virt. eigenvalues --    0.79512   0.80325   0.80710   0.81238   0.82082

 Mulliken charges:
               1
     1  O   -0.493950
     2  H    0.246094
     3  H    0.247887
     4  O   -0.493886
     5  H    0.245850
     6  H    0.248005
 Sum of Mulliken charges =  -0.00000

 Dipole moment (field-independent basis, Debye):
    X=             -0.3764    Y=             -0.0396    Z=              0.0000  Tot=              0.3784
 Quadrupole moment (field-independent basis, Debye-Ang):
   XX=             -7.9138   YY=              3.6717   ZZ=            -14.7094
   XY=             -0.4271   XZ=              0.0000   YZ=              0.0000

 Normal termination of Gaussian 16 at Sat Aug 27 09:19:51 2022.
