 Gaussian 16, Revision A.03,
 Gaussian 16:  ES64L-G16RevA.03 25-Dec-2016

 ------------------
 #p CCSD(T)/cc-pVTZ
 ------------------

 -----------
 H2O_H2O_748
 -----------
 Symbolic Z-matrix:
 Charge =  0 Multiplicity = 1

                         Standard orientation:
 ---------------------------------------------------------------------
 Center     Atomic      Atomic             Coordinates (Angstroms)
 Number     Number       Type             X           Y           Z
 ---------------------------------------------------------------------
      1          8           0        0.057212   -1.131454    0.000000
      2          1           0       -0.744718   -1.699270    0.000000
      3          1           0        0.854410   -1.705892    0.000000
      4          8           0        0.057212    1.237736    0.000000
      5          1           0       -0.456940    2.075087    0.000000
      6          1           0       -0.568137    0.479815    0.000000
 ---------------------------------------------------------------------

 SCF Done:  E(RHF) =  -152.094729188     A.U. after   11 cycles
 E2 =    -0.5316387632D+00 EUMP2 =    -0.15262636795152D+03
 CCSD(T)
 CCSD(T)= -0.15265312542D+03

 The electronic state is 1-A'.
 Alpha  occ. eigenvalues --  -20.56954 -20.51196  -1.35159  -1.28817  -0.72465
 Alpha  occ. eigenvalues --   -0.68894  -0.55618  -0.52464  -0.52031  -0.45850
 Alpha virt. eigenvalues --    0.12909   0.18525   0.19230   0.26986   0.50111
 Alpha virt. eigenvalues --    0.55639   0.61049   0.63008   0.71531   0.73516
 Alpha virt. eigenvalues --    0.76100   0.82355   0.83146   0.83530   0.86786

 Mulliken charges:
               1
     1  O   -0.443886
     2  H    0.228842
     3  H    0.250953
     4  O   -0.517416
     5  H    0.214580
     6  H    0.266927
 Sum of Mulliken charges =  -0.00000

 Dipole moment (field-independent basis, Debye):
    X=             -1.7646    Y=             -2.3443    Z=              0.0000  Tot=              2.9342
 Quadrupole moment (field-independent basis, Debye-Ang):
   XX=             -9.8449   YY=             -5.7063   ZZ=            -14.7027
   XY=             -2.5470   XZ=              0.0000   YZ=              0.0000

 Normal termination of Gaussian 16 at Fri Aug 26 19:38:51 2022.
