 Gaussian 16, Revision A.03,
 Gaussian 16:  ES64L-G16RevA.03 25-Dec-2016

 ------------------
 #p CCSD(T)/cc-pVTZ
 ------------------

 -----------
 H2O_H2O_317
 -----------
 Symbolic Z-matrix:
 Charge =  0 Multiplicity = 1

                         Standard orientation:
 ---------------------------------------------------------------------
 Center     Atomic      Atomic             Coordinates (Angstroms)
 Number     Number       Type             X           Y           Z
 ---------------------------------------------------------------------
      1          8           0        0.051369   -0.928801    0.000000
      2          1           0       -0.750816   -1.496256    0.000000
      3          1           0        0.848309   -1.503598    0.000000
      4          8           0        0.051369    0.992035    0.000000
      5          1           0       -0.102768    1.962472    0.000000
      6          1           0       -0.816629    0.531507    0.000000
 ---------------------------------------------------------------------

 SCF Done:  E(RHF) =  -152.038789077     A.U. after   11 cycles
 E2 =    -0.5381451399D+00 EUMP2 =    -0.15257693421737D+03
 CCSD(T)
 CCSD(T)= -0.15260340155D+03

 The electronic state is 1-A'.
 Alpha  occ. eigenvalues --  -20.54166 -20.51141  -1.34963  -1.27985  -0.72372
 Alpha  occ. eigenvalues --   -0.69156  -0.55769  -0.51415  -0.46776  -0.44829
 Alpha virt. eigenvalues --    0.13734   0.18669   0.19694   0.24568   0.51871
 Alpha virt. eigenvalues --    0.56542   0.60096   0.64366   0.72522   0.76008
 Alpha virt. eigenvalues --    0.80384   0.81999   0.84025   0.84113   0.88279

 Mulliken charges:
               1
     1  O   -0.399506
     2  H    0.191913
     3  H    0.223260
     4  O   -0.423373
     5  H    0.163607
     6  H    0.244099
 Sum of Mulliken charges =  -0.00000

 Dipole moment (field-independent basis, Debye):
    X=             -1.4526    Y=             -1.3547    Z=              0.0000  Tot=              1.9863
 Quadrupole moment (field-independent basis, Debye-Ang):
   XX=             -9.5764   YY=             -6.6285   ZZ=            -14.6762
   XY=             -1.2080   XZ=              0.0000   YZ=              0.0000

 Normal termination of Gaussian 16 at Fri Aug 26 15:12:05 2022.
