 Gaussian 16, Revision A.03,
 Gaussian 16:  ES64L-G16RevA.03 25-Dec-2016

 ------------------
 #p CCSD(T)/cc-pVTZ
 ------------------

 ------------
 H2O_H2O_4641
 ------------
 Symbolic Z-matrix:
 Charge =  0 Multiplicity = 1

                         Standard orientation:
 ---------------------------------------------------------------------
 Center     Atomic      Atomic             Coordinates (Angstroms)
 Number     Number       Type             X           Y           Z
 ---------------------------------------------------------------------
      1          8           0        0.049499   -3.232395    0.000000
      2          1           0       -0.750817   -3.802482    0.000000
      3          1           0        0.848323   -3.804570    0.000000
      4          8           0        0.049499    3.289379    0.000000
      5          1           0       -0.044053    4.267517    0.000000
      6          1           0       -0.845432    2.883663    0.000000
 ---------------------------------------------------------------------

 SCF Done:  E(RHF) =  -152.107281665     A.U. after   10 cycles
 E2 =    -0.5258886345D+00 EUMP2 =    -0.15263317029986D+03
 CCSD(T)
 CCSD(T)= -0.15266039320D+03

 The electronic state is 1-A'.
 Alpha  occ. eigenvalues --  -20.55502 -20.55193  -1.32801  -1.32490  -0.70207
 Alpha  occ. eigenvalues --   -0.69892  -0.56242  -0.55931  -0.49911  -0.49602
 Alpha virt. eigenvalues --    0.14161   0.14475   0.20231   0.20558   0.54356
 Alpha virt. eigenvalues --    0.54683   0.57264   0.57573   0.67952   0.68278
 Alpha virt. eigenvalues --    0.78968   0.79273   0.80402   0.80733   0.82327

 Mulliken charges:
               1
     1  O   -0.508138
     2  H    0.253062
     3  H    0.255075
     4  O   -0.507946
     5  H    0.252224
     6  H    0.255721
 Sum of Mulliken charges =   0.00000

 Dipole moment (field-independent basis, Debye):
    X=             -1.7019    Y=             -0.9944    Z=              0.0000  Tot=              1.9711
 Quadrupole moment (field-independent basis, Debye-Ang):
   XX=             -9.3454   YY=              9.0105   ZZ=            -14.7117
   XY=             -4.8831   XZ=              0.0000   YZ=              0.0000

 Normal termination of Gaussian 16 at Sat Aug 27 08:29:46 2022.
