 Gaussian 16, Revision A.03,
 Gaussian 16:  ES64L-G16RevA.03 25-Dec-2016

 ------------------
 #p CCSD(T)/cc-pVTZ
 ------------------

 ------------
 H2O_H2O_1168
 ------------
 Symbolic Z-matrix:
 Charge =  0 Multiplicity = 1

                         Standard orientation:
 ---------------------------------------------------------------------
 Center     Atomic      Atomic             Coordinates (Angstroms)
 Number     Number       Type             X           Y           Z
 ---------------------------------------------------------------------
      1          8           0        0.052879   -1.377096    0.000000
      2          1           0       -0.748525   -1.945653    0.000000
      3          1           0        0.850609   -1.950797    0.000000
      4          8           0        0.052879    1.447270    0.000000
      5          1           0       -0.165715    2.405249    0.000000
      6          1           0       -0.782430    0.929810    0.000000
 ---------------------------------------------------------------------

 SCF Done:  E(RHF) =  -152.105091068     A.U. after   10 cycles
 E2 =    -0.5279142493D+00 EUMP2 =    -0.15263300531737D+03
 CCSD(T)
 CCSD(T)= -0.15266015481D+03

 The electronic state is 1-A'.
 Alpha  occ. eigenvalues --  -20.55541 -20.53263  -1.32926  -1.30529  -0.70342
 Alpha  occ. eigenvalues --   -0.68088  -0.56260  -0.53737  -0.50043  -0.47620
 Alpha virt. eigenvalues --    0.13513   0.17246   0.19890   0.23914   0.53276
 Alpha virt. eigenvalues --    0.57130   0.57327   0.58627   0.69516   0.75467
 Alpha virt. eigenvalues --    0.75648   0.77995   0.81192   0.82510   0.84765

 Mulliken charges:
               1
     1  O   -0.481284
     2  H    0.236702
     3  H    0.253573
     4  O   -0.491019
     5  H    0.227391
     6  H    0.254637
 Sum of Mulliken charges =  -0.00000

 Dipole moment (field-independent basis, Debye):
    X=             -1.7025    Y=             -1.3768    Z=              0.0000  Tot=              2.1895
 Quadrupole moment (field-independent basis, Debye-Ang):
   XX=             -9.5923   YY=             -2.8745   ZZ=            -14.7231
   XY=             -2.1516   XZ=              0.0000   YZ=              0.0000

 Normal termination of Gaussian 16 at Sat Aug 27 02:41:13 2022.
