 Gaussian 16, Revision A.03,
 Gaussian 16:  ES64L-G16RevA.03 25-Dec-2016

 ------------------
 #p CCSD(T)/cc-pVTZ
 ------------------

 ------------
 H2O_H2O_1120
 ------------
 Symbolic Z-matrix:
 Charge =  0 Multiplicity = 1

                         Standard orientation:
 ---------------------------------------------------------------------
 Center     Atomic      Atomic             Coordinates (Angstroms)
 Number     Number       Type             X           Y           Z
 ---------------------------------------------------------------------
      1          8           0        0.055312   -1.342841    0.000000
      2          1           0       -0.746213   -1.911228    0.000000
      3          1           0        0.852920   -1.916712    0.000000
      4          8           0        0.055312    1.427125    0.000000
      5          1           0       -0.286258    2.348448    0.000000
      6          1           0       -0.705440    0.805223    0.000000
 ---------------------------------------------------------------------

 SCF Done:  E(RHF) =  -152.105707316     A.U. after   10 cycles
 E2 =    -0.5282206406D+00 EUMP2 =    -0.15263392795665D+03
 CCSD(T)
 CCSD(T)= -0.15266102734D+03

 The electronic state is 1-A'.
 Alpha  occ. eigenvalues --  -20.55984 -20.52993  -1.33414  -1.30295  -0.70817
 Alpha  occ. eigenvalues --   -0.68017  -0.56501  -0.53701  -0.50517  -0.47394
 Alpha virt. eigenvalues --    0.13309   0.17480   0.19732   0.24683   0.52466
 Alpha virt. eigenvalues --    0.56805   0.57598   0.59227   0.70203   0.74892
 Alpha virt. eigenvalues --    0.75243   0.79502   0.82153   0.82497   0.84398

 Mulliken charges:
               1
     1  O   -0.481278
     2  H    0.238360
     3  H    0.255624
     4  O   -0.499553
     5  H    0.227692
     6  H    0.259155
 Sum of Mulliken charges =  -0.00000

 Dipole moment (field-independent basis, Debye):
    X=             -1.7748    Y=             -1.6821    Z=              0.0000  Tot=              2.4453
 Quadrupole moment (field-independent basis, Debye-Ang):
   XX=             -9.7431   YY=             -3.5617   ZZ=            -14.7253
   XY=             -2.4483   XZ=              0.0000   YZ=              0.0000

 Normal termination of Gaussian 16 at Sat Aug 27 02:17:19 2022.
