 Gaussian 16, Revision A.03,
 Gaussian 16:  ES64L-G16RevA.03 25-Dec-2016

 ------------------
 #p CCSD(T)/cc-pVTZ
 ------------------

 ------------
 H2O_H2O_3201
 ------------
 Symbolic Z-matrix:
 Charge =  0 Multiplicity = 1

                         Standard orientation:
 ---------------------------------------------------------------------
 Center     Atomic      Atomic             Coordinates (Angstroms)
 Number     Number       Type             X           Y           Z
 ---------------------------------------------------------------------
      1          8           0        0.003735   -2.505343    0.000000
      2          1           0       -0.795909   -3.076372    0.000000
      3          1           0        0.803233   -3.076577    0.000000
      4          8           0        0.003735    2.505586    0.000000
      5          1           0        0.764321    3.127693    0.000000
      6          1           0       -0.831411    3.023308    0.000000
 ---------------------------------------------------------------------

 SCF Done:  E(RHF) =  -152.106165103     A.U. after   10 cycles
 E2 =    -0.5260213130D+00 EUMP2 =    -0.15263218641607D+03
 CCSD(T)
 CCSD(T)= -0.15265943089D+03

 The electronic state is 1-A'.
 Alpha  occ. eigenvalues --  -20.54925 -20.54923  -1.32218  -1.32216  -0.69628
 Alpha  occ. eigenvalues --   -0.69626  -0.55618  -0.55591  -0.49322  -0.49318
 Alpha virt. eigenvalues --    0.14452   0.14842   0.20598   0.20722   0.54848
 Alpha virt. eigenvalues --    0.55045   0.57728   0.57788   0.67542   0.69809
 Alpha virt. eigenvalues --    0.79537   0.79575   0.80968   0.81057   0.82712

 Mulliken charges:
               1
     1  O   -0.501553
     2  H    0.250614
     3  H    0.250938
     4  O   -0.501548
     5  H    0.250565
     6  H    0.250983
 Sum of Mulliken charges =   0.00000

 Dipole moment (field-independent basis, Debye):
    X=             -0.1276    Y=             -0.0043    Z=              0.0000  Tot=              0.1277
 Quadrupole moment (field-independent basis, Debye-Ang):
   XX=             -7.8231   YY=              7.9664   ZZ=            -14.7098
   XY=             -0.2058   XZ=              0.0000   YZ=              0.0000

 Normal termination of Gaussian 16 at Fri Aug 26 20:19:37 2022.
