 Gaussian 16, Revision A.03,
 Gaussian 16:  ES64L-G16RevA.03 25-Dec-2016

 ------------------
 #p CCSD(T)/cc-pVTZ
 ------------------

 -----------
 H2O_H2O_418
 -----------
 Symbolic Z-matrix:
 Charge =  0 Multiplicity = 1

                         Standard orientation:
 ---------------------------------------------------------------------
 Center     Atomic      Atomic             Coordinates (Angstroms)
 Number     Number       Type             X           Y           Z
 ---------------------------------------------------------------------
      1          8           0        0.052923   -0.978289    0.000000
      2          1           0       -0.749200   -1.545831    0.000000
      3          1           0        0.849926   -1.552999    0.000000
      4          8           0        0.052923    1.048329    0.000000
      5          1           0       -0.164457    2.006583    0.000000
      6          1           0       -0.783040    0.531926    0.000000
 ---------------------------------------------------------------------

 SCF Done:  E(RHF) =  -152.059398413     A.U. after   11 cycles
 E2 =    -0.5357815500D+00 EUMP2 =    -0.15259517996326D+03
 CCSD(T)
 CCSD(T)= -0.15262184656D+03

 The electronic state is 1-A'.
 Alpha  occ. eigenvalues --  -20.54726 -20.51266  -1.34509  -1.28390  -0.71951
 Alpha  occ. eigenvalues --   -0.69020  -0.55230  -0.51162  -0.49018  -0.45276
 Alpha virt. eigenvalues --    0.13609   0.18554   0.19664   0.24835   0.51581
 Alpha virt. eigenvalues --    0.56470   0.60484   0.63770   0.72226   0.75348
 Alpha virt. eigenvalues --    0.79747   0.82210   0.84068   0.84427   0.87995

 Mulliken charges:
               1
     1  O   -0.413640
     2  H    0.201946
     3  H    0.230583
     4  O   -0.445176
     5  H    0.178209
     6  H    0.248077
 Sum of Mulliken charges =  -0.00000

 Dipole moment (field-independent basis, Debye):
    X=             -1.5345    Y=             -1.4940    Z=              0.0000  Tot=              2.1417
 Quadrupole moment (field-independent basis, Debye-Ang):
   XX=             -9.6447   YY=             -6.1229   ZZ=            -14.6880
   XY=             -1.4486   XZ=              0.0000   YZ=              0.0000

 Normal termination of Gaussian 16 at Fri Aug 26 16:16:50 2022.
