 Gaussian 16, Revision A.03,
 Gaussian 16:  ES64L-G16RevA.03 25-Dec-2016

 ------------------
 #p CCSD(T)/cc-pVTZ
 ------------------

 ------------
 H2O_H2O_4014
 ------------
 Symbolic Z-matrix:
 Charge =  0 Multiplicity = 1

                         Standard orientation:
 ---------------------------------------------------------------------
 Center     Atomic      Atomic             Coordinates (Angstroms)
 Number     Number       Type             X           Y           Z
 ---------------------------------------------------------------------
      1          8           0        0.045341   -2.906739    0.000000
      2          1           0       -0.754990   -3.476806    0.000000
      3          1           0        0.844150   -3.478935    0.000000
      4          8           0        0.045341    2.951308    0.000000
      5          1           0        0.080287    3.933288    0.000000
      6          1           0       -0.894898    2.665900    0.000000
 ---------------------------------------------------------------------

 SCF Done:  E(RHF) =  -152.107082852     A.U. after   10 cycles
 E2 =    -0.5259163731D+00 EUMP2 =    -0.15263299922498D+03
 CCSD(T)
 CCSD(T)= -0.15266022571D+03

 The electronic state is 1-A'.
 Alpha  occ. eigenvalues --  -20.55392 -20.55089  -1.32689  -1.32385  -0.70096
 Alpha  occ. eigenvalues --   -0.69785  -0.56121  -0.55817  -0.49798  -0.49495
 Alpha virt. eigenvalues --    0.14226   0.14586   0.20308   0.20644   0.54465
 Alpha virt. eigenvalues --    0.54795   0.57358   0.57663   0.68011   0.68487
 Alpha virt. eigenvalues --    0.79082   0.79379   0.80518   0.80840   0.82462

 Mulliken charges:
               1
     1  O   -0.506979
     2  H    0.252222
     3  H    0.254759
     4  O   -0.506724
     5  H    0.251299
     6  H    0.255424
 Sum of Mulliken charges =   0.00000

 Dipole moment (field-independent basis, Debye):
    X=             -1.5562    Y=             -0.7806    Z=              0.0000  Tot=              1.7410
 Quadrupole moment (field-independent basis, Debye-Ang):
   XX=             -9.0972   YY=              8.0585   ZZ=            -14.7114
   XY=             -3.7822   XZ=              0.0000   YZ=              0.0000

 Normal termination of Gaussian 16 at Sat Aug 27 04:53:27 2022.
