 Gaussian 16, Revision A.03,
 Gaussian 16:  ES64L-G16RevA.03 25-Dec-2016

 ------------------
 #p CCSD(T)/cc-pVTZ
 ------------------

 -----------
 H2O_H2O_371
 -----------
 Symbolic Z-matrix:
 Charge =  0 Multiplicity = 1

                         Standard orientation:
 ---------------------------------------------------------------------
 Center     Atomic      Atomic             Coordinates (Angstroms)
 Number     Number       Type             X           Y           Z
 ---------------------------------------------------------------------
      1          8           0        0.056240   -0.940100    0.000000
      2          1           0       -0.746115   -1.507314    0.000000
      3          1           0        0.853008   -1.515136    0.000000
      4          8           0        0.056240    1.031493    0.000000
      5          1           0       -0.343543    1.929089    0.000000
      6          1           0       -0.663189    0.362218    0.000000
 ---------------------------------------------------------------------

 SCF Done:  E(RHF) =  -152.041798297     A.U. after   11 cycles
 E2 =    -0.5383759509D+00 EUMP2 =    -0.15258017424796D+03
 CCSD(T)
 CCSD(T)= -0.15260636574D+03

 The electronic state is 1-A'.
 Alpha  occ. eigenvalues --  -20.55903 -20.49879  -1.36564  -1.27507  -0.74208
 Alpha  occ. eigenvalues --   -0.70347  -0.52660  -0.52547  -0.49609  -0.44442
 Alpha virt. eigenvalues --    0.13128   0.18843   0.19463   0.26148   0.50131
 Alpha virt. eigenvalues --    0.55124   0.62010   0.65995   0.72463   0.75214
 Alpha virt. eigenvalues --    0.79130   0.80594   0.83866   0.85208   0.87892

 Mulliken charges:
               1
     1  O   -0.379386
     2  H    0.195916
     3  H    0.231969
     4  O   -0.483015
     5  H    0.176489
     6  H    0.258027
 Sum of Mulliken charges =  -0.00000

 Dipole moment (field-independent basis, Debye):
    X=             -1.6082    Y=             -2.1204    Z=              0.0000  Tot=              2.6613
 Quadrupole moment (field-independent basis, Debye-Ang):
   XX=             -9.8046   YY=             -6.9101   ZZ=            -14.6470
   XY=             -1.8417   XZ=              0.0000   YZ=              0.0000

 Normal termination of Gaussian 16 at Fri Aug 26 15:45:27 2022.
