 Gaussian 16, Revision A.03,
 Gaussian 16:  ES64L-G16RevA.03 25-Dec-2016

 ------------------
 #p CCSD(T)/cc-pVTZ
 ------------------

 ------------
 H2O_H2O_4759
 ------------
 Symbolic Z-matrix:
 Charge =  0 Multiplicity = 1

                         Standard orientation:
 ---------------------------------------------------------------------
 Center     Atomic      Atomic             Coordinates (Angstroms)
 Number     Number       Type             X           Y           Z
 ---------------------------------------------------------------------
      1          8           0        0.031738   -3.319395    0.000000
      2          1           0       -0.768301   -3.889871    0.000000
      3          1           0        0.830840   -3.891183    0.000000
      4          8           0        0.031738    3.338594    0.000000
      5          1           0        0.380007    4.257405    0.000000
      6          1           0       -0.950359    3.370060    0.000000
 ---------------------------------------------------------------------

 SCF Done:  E(RHF) =  -152.107038399     A.U. after   10 cycles
 E2 =    -0.5259080107D+00 EUMP2 =    -0.15263294640962D+03
 CCSD(T)
 CCSD(T)= -0.15266017462D+03

 The electronic state is 1-A'.
 Alpha  occ. eigenvalues --  -20.55326 -20.55227  -1.32623  -1.32523  -0.70030
 Alpha  occ. eigenvalues --   -0.69928  -0.56054  -0.55954  -0.49732  -0.49632
 Alpha virt. eigenvalues --    0.14319   0.14420   0.20375   0.20479   0.54537
 Alpha virt. eigenvalues --    0.54644   0.57422   0.57522   0.68163   0.68266
 Alpha virt. eigenvalues --    0.79147   0.79246   0.80586   0.80694   0.82512

 Mulliken charges:
               1
     1  O   -0.506688
     2  H    0.252725
     3  H    0.253963
     4  O   -0.506609
     5  H    0.252369
     6  H    0.254241
 Sum of Mulliken charges =  -0.00000

 Dipole moment (field-independent basis, Debye):
    X=             -1.0913    Y=             -0.3346    Z=              0.0000  Tot=              1.1415
 Quadrupole moment (field-independent basis, Debye-Ang):
   XX=             -8.4359   YY=             12.9673   ZZ=            -14.7111
   XY=             -2.8263   XZ=              0.0000   YZ=              0.0000

 Normal termination of Gaussian 16 at Sat Aug 27 09:11:00 2022.
