 Gaussian 16, Revision A.03,
 Gaussian 16:  ES64L-G16RevA.03 25-Dec-2016

 ------------------
 #p CCSD(T)/cc-pVTZ
 ------------------

 ------------
 H2O_H2O_1304
 ------------
 Symbolic Z-matrix:
 Charge =  0 Multiplicity = 1

                         Standard orientation:
 ---------------------------------------------------------------------
 Center     Atomic      Atomic             Coordinates (Angstroms)
 Number     Number       Type             X           Y           Z
 ---------------------------------------------------------------------
      1          8           0        0.014784   -1.492886    0.000000
      2          1           0       -0.785273   -2.063337    0.000000
      3          1           0        0.813868   -2.064698    0.000000
      4          8           0        0.014784    1.496753    0.000000
      5          1           0        0.639936    2.254837    0.000000
      6          1           0       -0.905070    1.842263    0.000000
 ---------------------------------------------------------------------

 SCF Done:  E(RHF) =  -152.101371405     A.U. after   11 cycles
 E2 =    -0.5274231777D+00 EUMP2 =    -0.15262879458220D+03
 CCSD(T)
 CCSD(T)= -0.15265608828D+03

 The electronic state is 1-A'.
 Alpha  occ. eigenvalues --  -20.53896 -20.53803  -1.31288  -1.31028  -0.68697
 Alpha  occ. eigenvalues --   -0.68488  -0.55663  -0.52944  -0.48488  -0.47984
 Alpha virt. eigenvalues --    0.14351   0.16736   0.20546   0.21912   0.51796
 Alpha virt. eigenvalues --    0.58342   0.58646   0.59794   0.66433   0.76452
 Alpha virt. eigenvalues --    0.77683   0.78247   0.79118   0.82745   0.86084

 Mulliken charges:
               1
     1  O   -0.473047
     2  H    0.234018
     3  H    0.239080
     4  O   -0.471495
     5  H    0.233416
     6  H    0.238027
 Sum of Mulliken charges =   0.00000

 Dipole moment (field-independent basis, Debye):
    X=             -0.4831    Y=             -0.0730    Z=              0.0000  Tot=              0.4886
 Quadrupole moment (field-independent basis, Debye-Ang):
   XX=             -8.0340   YY=             -0.5496   ZZ=            -14.7110
   XY=             -0.3361   XZ=              0.0000   YZ=              0.0000

 Normal termination of Gaussian 16 at Sat Aug 27 03:46:01 2022.
