 Gaussian 16, Revision A.03,
 Gaussian 16:  ES64L-G16RevA.03 25-Dec-2016

 ------------------
 #p CCSD(T)/cc-pVTZ
 ------------------

 ------------
 H2O_H2O_1574
 ------------
 Symbolic Z-matrix:
 Charge =  0 Multiplicity = 1

                         Standard orientation:
 ---------------------------------------------------------------------
 Center     Atomic      Atomic             Coordinates (Angstroms)
 Number     Number       Type             X           Y           Z
 ---------------------------------------------------------------------
      1          8           0        0.057286   -1.566096    0.000000
      2          1           0       -0.744011   -2.134803    0.000000
      3          1           0        0.855123   -2.139648    0.000000
      4          8           0        0.057286    1.679976    0.000000
      5          1           0       -0.511421    2.481274    0.000000
      6          1           0       -0.516265    0.882139    0.000000
 ---------------------------------------------------------------------

 SCF Done:  E(RHF) =  -152.110105314     A.U. after   10 cycles
 E2 =    -0.5269510281D+00 EUMP2 =    -0.15263705634211D+03
 CCSD(T)
 CCSD(T)= -0.15266414080D+03

 The electronic state is 1-A'.
 Alpha  occ. eigenvalues --  -20.56642 -20.53460  -1.33923  -1.30790  -0.71316
 Alpha  occ. eigenvalues --   -0.68243  -0.57398  -0.54286  -0.51045  -0.47927
 Alpha virt. eigenvalues --    0.12867   0.17066   0.19548   0.25588   0.52181
 Alpha virt. eigenvalues --    0.55661   0.56654   0.58202   0.68148   0.75160
 Alpha virt. eigenvalues --    0.76050   0.76664   0.81029   0.81418   0.84005

 Mulliken charges:
               1
     1  O   -0.496624
     2  H    0.247869
     3  H    0.260782
     4  O   -0.518915
     5  H    0.240605
     6  H    0.266283
 Sum of Mulliken charges =  -0.00000

 Dipole moment (field-independent basis, Debye):
    X=             -1.8965    Y=             -2.2135    Z=              0.0000  Tot=              2.9149
 Quadrupole moment (field-independent basis, Debye-Ang):
   XX=             -9.8599   YY=             -3.6981   ZZ=            -14.7258
   XY=             -3.5091   XZ=              0.0000   YZ=              0.0000

 Normal termination of Gaussian 16 at Sat Aug 27 05:33:14 2022.
