 Gaussian 16, Revision A.03,
 Gaussian 16:  ES64L-G16RevA.03 25-Dec-2016

 ------------------
 #p CCSD(T)/cc-pVTZ
 ------------------

 ------------
 H2O_H2O_2381
 ------------
 Symbolic Z-matrix:
 Charge =  0 Multiplicity = 1

                         Standard orientation:
 ---------------------------------------------------------------------
 Center     Atomic      Atomic             Coordinates (Angstroms)
 Number     Number       Type             X           Y           Z
 ---------------------------------------------------------------------
      1          8           0        0.021860   -2.062009    0.000000
      2          1           0       -0.778231   -2.632413    0.000000
      3          1           0        0.820911   -2.633869    0.000000
      4          8           0        0.021860    2.070664    0.000000
      5          1           0        0.542764    2.903830    0.000000
      6          1           0       -0.935208    2.293211    0.000000
 ---------------------------------------------------------------------

 SCF Done:  E(RHF) =  -152.105515942     A.U. after   10 cycles
 E2 =    -0.5262175750D+00 EUMP2 =    -0.15263173351693D+03
 CCSD(T)
 CCSD(T)= -0.15265897801D+03

 The electronic state is 1-A'.
 Alpha  occ. eigenvalues --  -20.54730 -20.54609  -1.32016  -1.31892  -0.69431
 Alpha  occ. eigenvalues --   -0.69302  -0.55439  -0.55156  -0.49117  -0.48991
 Alpha virt. eigenvalues --    0.14148   0.15512   0.20567   0.21096   0.54331
 Alpha virt. eigenvalues --    0.55755   0.57838   0.58082   0.63588   0.73970
 Alpha virt. eigenvalues --    0.79534   0.80092   0.80842   0.81211   0.82177

 Mulliken charges:
               1
     1  O   -0.496826
     2  H    0.246861
     3  H    0.250050
     4  O   -0.496587
     5  H    0.246263
     6  H    0.250239
 Sum of Mulliken charges =  -0.00000

 Dipole moment (field-independent basis, Debye):
    X=             -0.7403    Y=             -0.1560    Z=              0.0000  Tot=              0.7566
 Quadrupole moment (field-independent basis, Debye-Ang):
   XX=             -8.1278   YY=              4.0701   ZZ=            -14.7098
   XY=             -0.9400   XZ=              0.0000   YZ=              0.0000

 Normal termination of Gaussian 16 at Sat Aug 27 10:14:44 2022.
