 Gaussian 16, Revision A.03,
 Gaussian 16:  ES64L-G16RevA.03 25-Dec-2016

 ------------------
 #p CCSD(T)/cc-pVTZ
 ------------------

 ------------
 H2O_H2O_3384
 ------------
 Symbolic Z-matrix:
 Charge =  0 Multiplicity = 1

                         Standard orientation:
 ---------------------------------------------------------------------
 Center     Atomic      Atomic             Coordinates (Angstroms)
 Number     Number       Type             X           Y           Z
 ---------------------------------------------------------------------
      1          8           0        0.031741   -2.588128    0.000000
      2          1           0       -0.768431   -3.158418    0.000000
      3          1           0        0.830711   -3.160100    0.000000
      4          8           0        0.031741    2.607311    0.000000
      5          1           0        0.380222    3.526042    0.000000
      6          1           0       -0.950350    2.639005    0.000000
 ---------------------------------------------------------------------

 SCF Done:  E(RHF) =  -152.106555834     A.U. after   10 cycles
 E2 =    -0.5259810244D+00 EUMP2 =    -0.15263253685797D+03
 CCSD(T)
 CCSD(T)= -0.15265977342D+03

 The electronic state is 1-A'.
 Alpha  occ. eigenvalues --  -20.55124 -20.54959  -1.32419  -1.32252  -0.69828
 Alpha  occ. eigenvalues --   -0.69656  -0.55826  -0.55659  -0.49524  -0.49358
 Alpha virt. eigenvalues --    0.14341   0.14776   0.20475   0.20724   0.54702
 Alpha virt. eigenvalues --    0.54950   0.57581   0.57758   0.67788   0.69275
 Alpha virt. eigenvalues --    0.79353   0.79517   0.80786   0.80997   0.82739

 Mulliken charges:
               1
     1  O   -0.503873
     2  H    0.250687
     3  H    0.253192
     4  O   -0.503626
     5  H    0.250034
     6  H    0.253587
 Sum of Mulliken charges =  -0.00000

 Dipole moment (field-independent basis, Debye):
    X=             -1.0860    Y=             -0.3377    Z=              0.0000  Tot=              1.1373
 Quadrupole moment (field-independent basis, Debye-Ang):
   XX=             -8.4422   YY=              7.5921   ZZ=            -14.7105
   XY=             -2.0370   XZ=              0.0000   YZ=              0.0000

 Normal termination of Gaussian 16 at Fri Aug 26 21:53:07 2022.
