 Gaussian 16, Revision A.03,
 Gaussian 16:  ES64L-G16RevA.03 25-Dec-2016

 ------------------
 #p CCSD(T)/cc-pVTZ
 ------------------

 -----------
 H2O_H2O_931
 -----------
 Symbolic Z-matrix:
 Charge =  0 Multiplicity = 1

                         Standard orientation:
 ---------------------------------------------------------------------
 Center     Atomic      Atomic             Coordinates (Angstroms)
 Number     Number       Type             X           Y           Z
 ---------------------------------------------------------------------
      1          8           0        0.021863   -1.290859    0.000000
      2          1           0       -0.778537   -1.860829    0.000000
      3          1           0        0.820603   -1.863152    0.000000
      4          8           0        0.021863    1.299491    0.000000
      5          1           0        0.543218    2.132373    0.000000
      6          1           0       -0.935084    1.522555    0.000000
 ---------------------------------------------------------------------

 SCF Done:  E(RHF) =  -152.095812853     A.U. after   11 cycles
 E2 =    -0.5287261562D+00 EUMP2 =    -0.15262453900883D+03
 CCSD(T)
 CCSD(T)= -0.15265183315D+03

 The electronic state is 1-A'.
 Alpha  occ. eigenvalues --  -20.53481 -20.53232  -1.31171  -1.30399  -0.68511
 Alpha  occ. eigenvalues --   -0.67940  -0.56575  -0.51027  -0.48442  -0.47224
 Alpha virt. eigenvalues --    0.14391   0.17281   0.20515   0.22401   0.51383
 Alpha virt. eigenvalues --    0.58603   0.58813   0.61896   0.71398   0.76637
 Alpha virt. eigenvalues --    0.76712   0.78940   0.82987   0.83722   0.86268

 Mulliken charges:
               1
     1  O   -0.465982
     2  H    0.227805
     3  H    0.237310
     4  O   -0.457639
     5  H    0.223086
     6  H    0.235421
 Sum of Mulliken charges =  -0.00000

 Dipole moment (field-independent basis, Debye):
    X=             -0.6914    Y=             -0.1662    Z=              0.0000  Tot=              0.7111
 Quadrupole moment (field-independent basis, Debye-Ang):
   XX=             -8.2490   YY=             -2.4633   ZZ=            -14.7207
   XY=             -0.3928   XZ=              0.0000   YZ=              0.0000

 Normal termination of Gaussian 16 at Fri Aug 26 21:17:37 2022.
