 Gaussian 16, Revision A.03,
 Gaussian 16:  ES64L-G16RevA.03 25-Dec-2016

 ------------------
 #p CCSD(T)/cc-pVTZ
 ------------------

 ------------
 H2O_H2O_4213
 ------------
 Symbolic Z-matrix:
 Charge =  0 Multiplicity = 1

                         Standard orientation:
 ---------------------------------------------------------------------
 Center     Atomic      Atomic             Coordinates (Angstroms)
 Number     Number       Type             X           Y           Z
 ---------------------------------------------------------------------
      1          8           0        0.042964   -3.016236    0.000000
      2          1           0       -0.757302   -3.586394    0.000000
      3          1           0        0.841839   -3.588341    0.000000
      4          8           0        0.042964    3.055043    0.000000
      5          1           0        0.141948    4.032646    0.000000
      6          1           0       -0.913903    2.831632    0.000000
 ---------------------------------------------------------------------

 SCF Done:  E(RHF) =  -152.107070686     A.U. after   10 cycles
 E2 =    -0.5259130682D+00 EUMP2 =    -0.15263298375401D+03
 CCSD(T)
 CCSD(T)= -0.15266021079D+03

 The electronic state is 1-A'.
 Alpha  occ. eigenvalues --  -20.55375 -20.55131  -1.32672  -1.32427  -0.70079
 Alpha  occ. eigenvalues --   -0.69829  -0.56104  -0.55859  -0.49781  -0.49537
 Alpha virt. eigenvalues --    0.14260   0.14529   0.20327   0.20591   0.54485
 Alpha virt. eigenvalues --    0.54749   0.57375   0.57621   0.68078   0.68394
 Alpha virt. eigenvalues --    0.79098   0.79339   0.80535   0.80799   0.82466

 Mulliken charges:
               1
     1  O   -0.506897
     2  H    0.252362
     3  H    0.254536
     4  O   -0.506698
     5  H    0.251611
     6  H    0.255086
 Sum of Mulliken charges =  -0.00000

 Dipole moment (field-independent basis, Debye):
    X=             -1.4755    Y=             -0.6786    Z=              0.0000  Tot=              1.6241
 Quadrupole moment (field-independent basis, Debye-Ang):
   XX=             -8.9649   YY=              9.2348   ZZ=            -14.7113
   XY=             -3.6618   XZ=              0.0000   YZ=              0.0000

 Normal termination of Gaussian 16 at Sat Aug 27 06:03:28 2022.
