 Gaussian 16, Revision A.03,
 Gaussian 16:  ES64L-G16RevA.03 25-Dec-2016

 ------------------
 #p CCSD(T)/cc-pVTZ
 ------------------

 ------------
 H2O_H2O_1075
 ------------
 Symbolic Z-matrix:
 Charge =  0 Multiplicity = 1

                         Standard orientation:
 ---------------------------------------------------------------------
 Center     Atomic      Atomic             Coordinates (Angstroms)
 Number     Number       Type             X           Y           Z
 ---------------------------------------------------------------------
      1          8           0        0.000000   -0.000000    1.375323
      2          1           0        0.000000    0.799571    1.946455
      3          1           0       -0.000000   -0.799571    1.946455
      4          8           0        0.000000   -0.000000   -1.375323
      5          1           0       -0.000000   -0.799571   -1.946455
      6          1           0        0.000000    0.799571   -1.946455
 ---------------------------------------------------------------------

 SCF Done:  E(RHF) =  -152.098122724     A.U. after   10 cycles
 E2 =    -0.5280705649D+00 EUMP2 =    -0.15262619328907D+03
 CCSD(T)
 CCSD(T)= -0.15265351365D+03

 The electronic state is 1-AG.
 Alpha  occ. eigenvalues --  -20.53486 -20.53485  -1.31083  -1.30633  -0.68454
 Alpha  occ. eigenvalues --   -0.68137  -0.56110  -0.51723  -0.48330  -0.47502
 Alpha virt. eigenvalues --    0.14461   0.17100   0.20569   0.22081   0.50830
 Alpha virt. eigenvalues --    0.58547   0.58787   0.61595   0.70933   0.76419
 Alpha virt. eigenvalues --    0.77071   0.78141   0.79504   0.83445   0.86322

 Mulliken charges:
               1
     1  O   -0.465618
     2  H    0.232809
     3  H    0.232809
     4  O   -0.465618
     5  H    0.232809
     6  H    0.232809
 Sum of Mulliken charges =  -0.00000

 Dipole moment (field-independent basis, Debye):
    X=             -0.0000    Y=              0.0000    Z=             -0.0000  Tot=              0.0000
 Quadrupole moment (field-independent basis, Debye-Ang):
   XX=            -14.7151   YY=             -7.9339   ZZ=             -1.6046
   XY=              0.0000   XZ=             -0.0000   YZ=             -0.0000

 5\MP4DQ=-152.6349949\MP4SDQ=-152.6381821\CCSD=-152.6375483\CCSD(T)=-15
 Normal termination of Gaussian 16 at Sat Aug 27 01:52:35 2022.
