 Gaussian 16, Revision A.03,
 Gaussian 16:  ES64L-G16RevA.03 25-Dec-2016

 ------------------
 #p CCSD(T)/cc-pVTZ
 ------------------

 ------------
 H2O_H2O_4078
 ------------
 Symbolic Z-matrix:
 Charge =  0 Multiplicity = 1

                         Standard orientation:
 ---------------------------------------------------------------------
 Center     Atomic      Atomic             Coordinates (Angstroms)
 Number     Number       Type             X           Y           Z
 ---------------------------------------------------------------------
      1          8           0        0.011143   -2.969644    0.000000
      2          1           0       -0.788613   -3.540518    0.000000
      3          1           0        0.810529   -3.541034    0.000000
      4          8           0        0.011143    2.971832    0.000000
      5          1           0        0.684159    3.687761    0.000000
      6          1           0       -0.884357    3.376290    0.000000
 ---------------------------------------------------------------------

 SCF Done:  E(RHF) =  -152.106698937     A.U. after   10 cycles
 E2 =    -0.5259459825D+00 EUMP2 =    -0.15263264491915D+03
 CCSD(T)
 CCSD(T)= -0.15265987985D+03

 The electronic state is 1-A'.
 Alpha  occ. eigenvalues --  -20.55140 -20.55126  -1.32436  -1.32421  -0.69843
 Alpha  occ. eigenvalues --   -0.69829  -0.55850  -0.55836  -0.49542  -0.49528
 Alpha virt. eigenvalues --    0.14452   0.14518   0.20508   0.20539   0.54722
 Alpha virt. eigenvalues --    0.54747   0.57580   0.57600   0.68312   0.68493
 Alpha virt. eigenvalues --    0.79336   0.79351   0.80782   0.80799   0.82713

 Mulliken charges:
               1
     1  O   -0.504685
     2  H    0.252042
     3  H    0.252643
     4  O   -0.504667
     5  H    0.251918
     6  H    0.252748
 Sum of Mulliken charges =   0.00000

 Dipole moment (field-independent basis, Debye):
    X=             -0.3824    Y=             -0.0383    Z=              0.0000  Tot=              0.3843
 Quadrupole moment (field-independent basis, Debye-Ang):
   XX=             -7.8833   YY=             11.5768   ZZ=            -14.7105
   XY=             -0.7964   XZ=              0.0000   YZ=              0.0000

 Normal termination of Gaussian 16 at Sat Aug 27 05:15:46 2022.
