 Gaussian 16, Revision A.03,
 Gaussian 16:  ES64L-G16RevA.03 25-Dec-2016

 ------------------
 #p CCSD(T)/cc-pVTZ
 ------------------

 ------------
 H2O_H2O_3406
 ------------
 Symbolic Z-matrix:
 Charge =  0 Multiplicity = 1

                         Standard orientation:
 ---------------------------------------------------------------------
 Center     Atomic      Atomic             Coordinates (Angstroms)
 Number     Number       Type             X           Y           Z
 ---------------------------------------------------------------------
      1          8           0        0.021859   -2.607137    0.000000
      2          1           0       -0.778123   -3.177693    0.000000
      3          1           0        0.821019   -3.178845    0.000000
      4          8           0        0.021859    2.615801    0.000000
      5          1           0        0.542605    3.449066    0.000000
      6          1           0       -0.935251    2.838165    0.000000
 ---------------------------------------------------------------------

 SCF Done:  E(RHF) =  -152.106425657     A.U. after   10 cycles
 E2 =    -0.5259896160D+00 EUMP2 =    -0.15263241527269D+03
 CCSD(T)
 CCSD(T)= -0.15265965483D+03

 The electronic state is 1-A'.
 Alpha  occ. eigenvalues --  -20.55046 -20.54973  -1.32341  -1.32266  -0.69750
 Alpha  occ. eigenvalues --   -0.69673  -0.55741  -0.55667  -0.49445  -0.49371
 Alpha virt. eigenvalues --    0.14420   0.14746   0.20537   0.20685   0.54780
 Alpha virt. eigenvalues --    0.54940   0.57647   0.57739   0.67889   0.69248
 Alpha virt. eigenvalues --    0.79431   0.79506   0.80868   0.80980   0.82762

 Mulliken charges:
               1
     1  O   -0.503096
     2  H    0.250701
     3  H    0.252397
     4  O   -0.502971
     5  H    0.250332
     6  H    0.252637
 Sum of Mulliken charges =  -0.00000

 Dipole moment (field-independent basis, Debye):
    X=             -0.7480    Y=             -0.1524    Z=              0.0000  Tot=              0.7633
 Quadrupole moment (field-independent basis, Debye-Ang):
   XX=             -8.1106   YY=              8.3350   ZZ=            -14.7102
   XY=             -1.3406   XZ=              0.0000   YZ=              0.0000

 Normal termination of Gaussian 16 at Fri Aug 26 22:04:22 2022.
