 Gaussian 16, Revision A.03,
 Gaussian 16:  ES64L-G16RevA.03 25-Dec-2016

 ------------------
 #p CCSD(T)/cc-pVTZ
 ------------------

 ------------
 H2O_H2O_4506
 ------------
 Symbolic Z-matrix:
 Charge =  0 Multiplicity = 1

                         Standard orientation:
 ---------------------------------------------------------------------
 Center     Atomic      Atomic             Coordinates (Angstroms)
 Number     Number       Type             X           Y           Z
 ---------------------------------------------------------------------
      1          8           0        0.021859   -3.192154    0.000000
      2          1           0       -0.778048   -3.762816    0.000000
      3          1           0        0.821093   -3.763757    0.000000
      4          8           0        0.021859    3.200824    0.000000
      5          1           0        0.542494    4.034157    0.000000
      6          1           0       -0.935281    3.423061    0.000000
 ---------------------------------------------------------------------

 SCF Done:  E(RHF) =  -152.106901244     A.U. after   10 cycles
 E2 =    -0.5259224080D+00 EUMP2 =    -0.15263282365218D+03
 CCSD(T)
 CCSD(T)= -0.15266005463D+03

 The electronic state is 1-A'.
 Alpha  occ. eigenvalues --  -20.55244 -20.55195  -1.32540  -1.32491  -0.69947
 Alpha  occ. eigenvalues --   -0.69897  -0.55964  -0.55915  -0.49648  -0.49599
 Alpha virt. eigenvalues --    0.14388   0.14444   0.20439   0.20492   0.54621
 Alpha virt. eigenvalues --    0.54675   0.57495   0.57544   0.68256   0.68324
 Alpha virt. eigenvalues --    0.79232   0.79280   0.80673   0.80727   0.82601

 Mulliken charges:
               1
     1  O   -0.505877
     2  H    0.252459
     3  H    0.253418
     4  O   -0.505830
     5  H    0.252224
     6  H    0.253606
 Sum of Mulliken charges =  -0.00000

 Dipole moment (field-independent basis, Debye):
    X=             -0.7512    Y=             -0.1512    Z=              0.0000  Tot=              0.7662
 Quadrupole moment (field-independent basis, Debye-Ang):
   XX=             -8.1033   YY=             12.8566   ZZ=            -14.7108
   XY=             -1.7750   XZ=              0.0000   YZ=              0.0000

 Normal termination of Gaussian 16 at Sat Aug 27 07:42:28 2022.
