 Gaussian 16, Revision A.03,
 Gaussian 16:  ES64L-G16RevA.03 25-Dec-2016

 ------------------
 #p CCSD(T)/cc-pVTZ
 ------------------

 ------------
 H2O_H2O_2275
 ------------
 Symbolic Z-matrix:
 Charge =  0 Multiplicity = 1

                         Standard orientation:
 ---------------------------------------------------------------------
 Center     Atomic      Atomic             Coordinates (Angstroms)
 Number     Number       Type             X           Y           Z
 ---------------------------------------------------------------------
      1          8           0        0.000000   -0.000000    2.013527
      2          1           0        0.000000    0.799571    2.584659
      3          1           0       -0.000000   -0.799571    2.584659
      4          8           0        0.000000   -0.000000   -2.013527
      5          1           0       -0.000000   -0.799571   -2.584659
      6          1           0        0.000000    0.799571   -2.584659
 ---------------------------------------------------------------------

 SCF Done:  E(RHF) =  -152.105131899     A.U. after   10 cycles
 E2 =    -0.5262798986D+00 EUMP2 =    -0.15263141179724D+03
 CCSD(T)
 CCSD(T)= -0.15265866201D+03

 The electronic state is 1-AG.
 Alpha  occ. eigenvalues --  -20.54573 -20.54573  -1.31863  -1.31850  -0.69281
 Alpha  occ. eigenvalues --   -0.69267  -0.55351  -0.55001  -0.48976  -0.48931
 Alpha virt. eigenvalues --    0.14233   0.15581   0.20640   0.21091   0.54433
 Alpha virt. eigenvalues --    0.56176   0.57894   0.58144   0.62469   0.74520
 Alpha virt. eigenvalues --    0.79553   0.80264   0.80914   0.81314   0.81871

 Mulliken charges:
               1
     1  O   -0.494330
     2  H    0.247165
     3  H    0.247165
     4  O   -0.494330
     5  H    0.247165
     6  H    0.247165
 Sum of Mulliken charges =   0.00000

 Dipole moment (field-independent basis, Debye):
    X=             -0.0000    Y=              0.0000    Z=              0.0000  Tot=              0.0000
 Quadrupole moment (field-independent basis, Debye-Ang):
   XX=            -14.7093   YY=             -7.8353   ZZ=              3.9671
   XY=              0.0000   XZ=              0.0000   YZ=             -0.0000

 3\MP4DQ=-152.6404917\MP4SDQ=-152.6435745\CCSD=-152.6429761\CCSD(T)=-15
 Normal termination of Gaussian 16 at Sat Aug 27 09:35:54 2022.
