 Gaussian 16, Revision A.03,
 Gaussian 16:  ES64L-G16RevA.03 25-Dec-2016

 ------------------
 #p CCSD(T)/cc-pVTZ
 ------------------

 ------------
 H2O_H2O_2336
 ------------
 Symbolic Z-matrix:
 Charge =  0 Multiplicity = 1

                         Standard orientation:
 ---------------------------------------------------------------------
 Center     Atomic      Atomic             Coordinates (Angstroms)
 Number     Number       Type             X           Y           Z
 ---------------------------------------------------------------------
      1          8           0        0.037680   -2.024788    0.000000
      2          1           0       -0.762798   -2.594648    0.000000
      3          1           0        0.836342   -2.597190    0.000000
      4          8           0        0.037680    2.053014    0.000000
      5          1           0        0.263776    3.009250    0.000000
      6          1           0       -0.940198    1.956775    0.000000
 ---------------------------------------------------------------------

 SCF Done:  E(RHF) =  -152.106011486     A.U. after   10 cycles
 E2 =    -0.5262132225D+00 EUMP2 =    -0.15263222470886D+03
 CCSD(T)
 CCSD(T)= -0.15265945437D+03

 The electronic state is 1-A'.
 Alpha  occ. eigenvalues --  -20.54968 -20.54553  -1.32253  -1.31834  -0.69668
 Alpha  occ. eigenvalues --   -0.69232  -0.55647  -0.55174  -0.49356  -0.48939
 Alpha virt. eigenvalues --    0.13881   0.15640   0.20396   0.21316   0.53870
 Alpha virt. eigenvalues --    0.55374   0.57704   0.58121   0.64221   0.74407
 Alpha virt. eigenvalues --    0.79343   0.80095   0.80362   0.81243   0.82857

 Mulliken charges:
               1
     1  O   -0.498899
     2  H    0.246799
     3  H    0.252484
     4  O   -0.498789
     5  H    0.245307
     6  H    0.253098
 Sum of Mulliken charges =  -0.00000

 Dipole moment (field-independent basis, Debye):
    X=             -1.2748    Y=             -0.5105    Z=              0.0000  Tot=              1.3732
 Quadrupole moment (field-independent basis, Debye-Ang):
   XX=             -8.7119   YY=              3.0371   ZZ=            -14.7110
   XY=             -1.8164   XZ=              0.0000   YZ=              0.0000

 Normal termination of Gaussian 16 at Sat Aug 27 09:56:58 2022.
