 Gaussian 16, Revision A.03,
 Gaussian 16:  ES64L-G16RevA.03 25-Dec-2016

 ------------------
 #p CCSD(T)/cc-pVTZ
 ------------------

 ------------
 H2O_H2O_2402
 ------------
 Symbolic Z-matrix:
 Charge =  0 Multiplicity = 1

                         Standard orientation:
 ---------------------------------------------------------------------
 Center     Atomic      Atomic             Coordinates (Angstroms)
 Number     Number       Type             X           Y           Z
 ---------------------------------------------------------------------
      1          8           0        0.007455   -2.079478    0.000000
      2          1           0       -0.792292   -2.650363    0.000000
      3          1           0        0.806850   -2.650856    0.000000
      4          8           0        0.007455    2.080450    0.000000
      5          1           0        0.725845    2.750840    0.000000
      6          1           0       -0.859682    2.542599    0.000000
 ---------------------------------------------------------------------

 SCF Done:  E(RHF) =  -152.105345029     A.U. after   10 cycles
 E2 =    -0.5262174499D+00 EUMP2 =    -0.15263156247884D+03
 CCSD(T)
 CCSD(T)= -0.15265881225D+03

 The electronic state is 1-A'.
 Alpha  occ. eigenvalues --  -20.54644 -20.54630  -1.31931  -1.31915  -0.69347
 Alpha  occ. eigenvalues --   -0.69329  -0.55387  -0.55128  -0.49038  -0.49003
 Alpha virt. eigenvalues --    0.14249   0.15462   0.20633   0.21031   0.54553
 Alpha virt. eigenvalues --    0.55892   0.57869   0.58081   0.63393   0.73873
 Alpha virt. eigenvalues --    0.79593   0.80099   0.81039   0.81438   0.81770

 Mulliken charges:
               1
     1  O   -0.496019
     2  H    0.247480
     3  H    0.248548
     4  O   -0.495984
     5  H    0.247345
     6  H    0.248630
 Sum of Mulliken charges =  -0.00000

 Dipole moment (field-independent basis, Debye):
    X=             -0.2526    Y=             -0.0175    Z=              0.0000  Tot=              0.2532
 Quadrupole moment (field-independent basis, Debye-Ang):
   XX=             -7.8657   YY=              4.4770   ZZ=            -14.7094
   XY=             -0.3061   XZ=              0.0000   YZ=              0.0000

 82344\MP4DQ=-152.6406532\MP4SDQ=-152.643732\CCSD=-152.6431354\CCSD(T)=
 Normal termination of Gaussian 16 at Sat Aug 27 10:21:43 2022.
