 Gaussian 16, Revision A.03,
 Gaussian 16:  ES64L-G16RevA.03 25-Dec-2016

 ------------------
 #p CCSD(T)/cc-pVTZ
 ------------------

 ------------
 H2O_H2O_2800
 ------------
 Symbolic Z-matrix:
 Charge =  0 Multiplicity = 1

                         Standard orientation:
 ---------------------------------------------------------------------
 Center     Atomic      Atomic             Coordinates (Angstroms)
 Number     Number       Type             X           Y           Z
 ---------------------------------------------------------------------
      1          8           0        0.000000    0.000000   -2.292741
      2          1           0        0.000000    0.799571   -2.863873
      3          1           0       -0.000000   -0.799571   -2.863873
      4          8           0       -0.000000    0.000000    2.292741
      5          1           0       -0.000000   -0.799571    2.863873
      6          1           0       -0.000000    0.799571    2.863873
 ---------------------------------------------------------------------

 SCF Done:  E(RHF) =  -152.105797896     A.U. after   10 cycles
 E2 =    -0.5260900947D+00 EUMP2 =    -0.15263188799054D+03
 CCSD(T)
 CCSD(T)= -0.15265913704D+03

 The electronic state is 1-AG.
 Alpha  occ. eigenvalues --  -20.54793 -20.54793  -1.32085  -1.32083  -0.69498
 Alpha  occ. eigenvalues --   -0.69494  -0.55496  -0.55404  -0.49189  -0.49179
 Alpha virt. eigenvalues --    0.14372   0.15111   0.20627   0.20851   0.54813
 Alpha virt. eigenvalues --    0.55348   0.57801   0.57916   0.65991   0.71550
 Alpha virt. eigenvalues --    0.79613   0.79764   0.81130   0.81177   0.82334

 Mulliken charges:
               1
     1  O   -0.499313
     2  H    0.249657
     3  H    0.249657
     4  O   -0.499313
     5  H    0.249657
     6  H    0.249657
 Sum of Mulliken charges =   0.00000

 Dipole moment (field-independent basis, Debye):
    X=              0.0000    Y=             -0.0000    Z=              0.0000  Tot=              0.0000
 Quadrupole moment (field-independent basis, Debye-Ang):
   XX=            -14.7096   YY=             -7.8213   ZZ=              6.2520
   XY=             -0.0000   XZ=              0.0000   YZ=             -0.0000

 MP4DQ=-152.641\MP4SDQ=-152.6440709\CCSD=-152.6434782\CCSD(T)=-152.6591
 Normal termination of Gaussian 16 at Fri Aug 26 16:18:01 2022.
