 Gaussian 16, Revision A.03,
 Gaussian 16:  ES64L-G16RevA.03 25-Dec-2016

 ------------------
 #p CCSD(T)/cc-pVTZ
 ------------------

 ------------
 H2O_H2O_1663
 ------------
 Symbolic Z-matrix:
 Charge =  0 Multiplicity = 1

                         Standard orientation:
 ---------------------------------------------------------------------
 Center     Atomic      Atomic             Coordinates (Angstroms)
 Number     Number       Type             X           Y           Z
 ---------------------------------------------------------------------
      1          8           0        0.042983   -1.660097    0.000000
      2          1           0       -0.757843   -2.229468    0.000000
      3          1           0        0.841295   -2.232987    0.000000
      4          8           0        0.042983    1.698819    0.000000
      5          1           0        0.142928    2.676325    0.000000
      6          1           0       -0.914103    1.476349    0.000000
 ---------------------------------------------------------------------

 SCF Done:  E(RHF) =  -152.105403159     A.U. after   10 cycles
 E2 =    -0.5267748540D+00 EUMP2 =    -0.15263217801279D+03
 CCSD(T)
 CCSD(T)= -0.15265938960D+03

 The electronic state is 1-A'.
 Alpha  occ. eigenvalues --  -20.54927 -20.54070  -1.32207  -1.31330  -0.69631
 Alpha  occ. eigenvalues --   -0.68721  -0.55715  -0.54460  -0.49319  -0.48430
 Alpha virt. eigenvalues --    0.13794   0.16404   0.20258   0.22200   0.53485
 Alpha virt. eigenvalues --    0.55579   0.57730   0.58620   0.64260   0.76899
 Alpha virt. eigenvalues --    0.78289   0.78515   0.79310   0.81445   0.85317

 Mulliken charges:
               1
     1  O   -0.488220
     2  H    0.240029
     3  H    0.250243
     4  O   -0.490046
     5  H    0.236754
     6  H    0.251240
 Sum of Mulliken charges =   0.00000

 Dipole moment (field-independent basis, Debye):
    X=             -1.4257    Y=             -0.7255    Z=              0.0000  Tot=              1.5996
 Quadrupole moment (field-independent basis, Debye-Ang):
   XX=             -8.9976   YY=              0.0459   ZZ=            -14.7131
   XY=             -1.6983   XZ=              0.0000   YZ=              0.0000

 Normal termination of Gaussian 16 at Sat Aug 27 06:05:33 2022.
