 Gaussian 16, Revision A.03,
 Gaussian 16:  ES64L-G16RevA.03 25-Dec-2016

 ------------------
 #p CCSD(T)/cc-pVTZ
 ------------------

 ------------
 H2O_H2O_2931
 ------------
 Symbolic Z-matrix:
 Charge =  0 Multiplicity = 1

                         Standard orientation:
 ---------------------------------------------------------------------
 Center     Atomic      Atomic             Coordinates (Angstroms)
 Number     Number       Type             X           Y           Z
 ---------------------------------------------------------------------
      1          8           0        0.021860   -2.354517    0.000000
      2          1           0       -0.778167   -2.925011    0.000000
      3          1           0        0.820975   -2.926286    0.000000
      4          8           0        0.021860    2.363177    0.000000
      5          1           0        0.542669    3.196402    0.000000
      6          1           0       -0.935233    2.585615    0.000000
 ---------------------------------------------------------------------

 SCF Done:  E(RHF) =  -152.106078167     A.U. after   10 cycles
 E2 =    -0.5260532630D+00 EUMP2 =    -0.15263213143030D+03
 CCSD(T)
 CCSD(T)= -0.15265937570D+03

 The electronic state is 1-A'.
 Alpha  occ. eigenvalues --  -20.54920 -20.54830  -1.32212  -1.32120  -0.69623
 Alpha  occ. eigenvalues --   -0.69528  -0.55602  -0.55494  -0.49314  -0.49223
 Alpha virt. eigenvalues --    0.14326   0.15035   0.20563   0.20836   0.54756
 Alpha virt. eigenvalues --    0.55201   0.57728   0.57869   0.66638   0.70850
 Alpha virt. eigenvalues --    0.79538   0.79672   0.80971   0.81166   0.82549

 Mulliken charges:
               1
     1  O   -0.501017
     2  H    0.249392
     3  H    0.251638
     4  O   -0.500819
     5  H    0.248940
     6  H    0.251866
 Sum of Mulliken charges =  -0.00000

 Dipole moment (field-independent basis, Debye):
    X=             -0.7454    Y=             -0.1534    Z=              0.0000  Tot=              0.7610
 Quadrupole moment (field-independent basis, Debye-Ang):
   XX=             -8.1165   YY=              6.3662   ZZ=            -14.7099
   XY=             -1.1544   XZ=              0.0000   YZ=              0.0000

 Normal termination of Gaussian 16 at Fri Aug 26 17:34:02 2022.
