 Gaussian 16, Revision A.03,
 Gaussian 16:  ES64L-G16RevA.03 25-Dec-2016

 ------------------
 #p CCSD(T)/cc-pVTZ
 ------------------

 ------------
 H2O_H2O_2036
 ------------
 Symbolic Z-matrix:
 Charge =  0 Multiplicity = 1

                         Standard orientation:
 ---------------------------------------------------------------------
 Center     Atomic      Atomic             Coordinates (Angstroms)
 Number     Number       Type             X           Y           Z
 ---------------------------------------------------------------------
      1          8           0        0.037682   -1.865242    0.000000
      2          1           0       -0.762873   -2.434994    0.000000
      3          1           0        0.836267   -2.437752    0.000000
      4          8           0        0.037682    1.893459    0.000000
      5          1           0        0.263907    2.849664    0.000000
      6          1           0       -0.940209    1.797351    0.000000
 ---------------------------------------------------------------------

 SCF Done:  E(RHF) =  -152.105667679     A.U. after   10 cycles
 E2 =    -0.5264027724D+00 EUMP2 =    -0.15263207045123D+03
 CCSD(T)
 CCSD(T)= -0.15265929425D+03

 The electronic state is 1-A'.
 Alpha  occ. eigenvalues --  -20.54878 -20.54382  -1.32157  -1.31655  -0.69575
 Alpha  occ. eigenvalues --   -0.69052  -0.55585  -0.54906  -0.49261  -0.48758
 Alpha virt. eigenvalues --    0.13843   0.15950   0.20378   0.21577   0.53338
 Alpha virt. eigenvalues --    0.55509   0.57775   0.58327   0.63366   0.75906
 Alpha virt. eigenvalues --    0.79113   0.79531   0.80560   0.80922   0.83481

 Mulliken charges:
               1
     1  O   -0.494436
     2  H    0.244121
     3  H    0.251080
     4  O   -0.494970
     5  H    0.242377
     6  H    0.251829
 Sum of Mulliken charges =  -0.00000

 Dipole moment (field-independent basis, Debye):
    X=             -1.2664    Y=             -0.5177    Z=              0.0000  Tot=              1.3681
 Quadrupole moment (field-independent basis, Debye-Ang):
   XX=             -8.7199   YY=              1.8805   ZZ=            -14.7112
   XY=             -1.6152   XZ=              0.0000   YZ=              0.0000

 Normal termination of Gaussian 16 at Sat Aug 27 08:13:42 2022.
