 Gaussian 16, Revision A.03,
 Gaussian 16:  ES64L-G16RevA.03 25-Dec-2016

 ------------------
 #p CCSD(T)/cc-pVTZ
 ------------------

 -----------
 H2O_H2O_948
 -----------
 Symbolic Z-matrix:
 Charge =  0 Multiplicity = 1

                         Standard orientation:
 ---------------------------------------------------------------------
 Center     Atomic      Atomic             Coordinates (Angstroms)
 Number     Number       Type             X           Y           Z
 ---------------------------------------------------------------------
      1          8           0        0.057193   -1.237801    0.000000
      2          1           0       -0.744542   -1.805890    0.000000
      3          1           0        0.854588   -1.811967    0.000000
      4          8           0        0.057193    1.344123    0.000000
      5          1           0       -0.457244    2.181297    0.000000
      6          1           0       -0.567896    0.585987    0.000000
 ---------------------------------------------------------------------

 SCF Done:  E(RHF) =  -152.104067775     A.U. after   10 cycles
 E2 =    -0.5296202052D+00 EUMP2 =    -0.15263368798039D+03
 CCSD(T)
 CCSD(T)= -0.15266061952D+03

 The electronic state is 1-A'.
 Alpha  occ. eigenvalues --  -20.56863 -20.52052  -1.34550  -1.29520  -0.71888
 Alpha  occ. eigenvalues --   -0.68200  -0.56740  -0.53088  -0.51577  -0.46604
 Alpha virt. eigenvalues --    0.12952   0.18102   0.19363   0.26599   0.50734
 Alpha virt. eigenvalues --    0.56026   0.59589   0.60852   0.71081   0.73568
 Alpha virt. eigenvalues --    0.75007   0.81052   0.82679   0.83621   0.86656

 Mulliken charges:
               1
     1  O   -0.469231
     2  H    0.237951
     3  H    0.255647
     4  O   -0.517848
     5  H    0.224688
     6  H    0.268793
 Sum of Mulliken charges =  -0.00000

 Dipole moment (field-independent basis, Debye):
    X=             -1.8089    Y=             -2.2436    Z=              0.0000  Tot=              2.8820
 Quadrupole moment (field-independent basis, Debye-Ang):
   XX=             -9.8498   YY=             -5.0255   ZZ=            -14.7200
   XY=             -2.7499   XZ=              0.0000   YZ=              0.0000

 Normal termination of Gaussian 16 at Fri Aug 26 21:25:59 2022.
