 Gaussian 16, Revision A.03,
 Gaussian 16:  ES64L-G16RevA.03 25-Dec-2016

 ------------------
 #p CCSD(T)/cc-pVTZ
 ------------------

 ------------
 H2O_H2O_1866
 ------------
 Symbolic Z-matrix:
 Charge =  0 Multiplicity = 1

                         Standard orientation:
 ---------------------------------------------------------------------
 Center     Atomic      Atomic             Coordinates (Angstroms)
 Number     Number       Type             X           Y           Z
 ---------------------------------------------------------------------
      1          8           0        0.049529   -1.756605    0.000000
      2          1           0       -0.751402   -2.325828    0.000000
      3          1           0        0.847736   -2.329642    0.000000
      4          8           0        0.049529    1.813482    0.000000
      5          1           0       -0.042966    2.791720    0.000000
      6          1           0       -0.845839    1.408733    0.000000
 ---------------------------------------------------------------------

 SCF Done:  E(RHF) =  -152.106658837     A.U. after   10 cycles
 E2 =    -0.5265161125D+00 EUMP2 =    -0.15263317494945D+03
 CCSD(T)
 CCSD(T)= -0.15266036435D+03

 The electronic state is 1-A'.
 Alpha  occ. eigenvalues --  -20.55328 -20.54168  -1.32602  -1.31439  -0.70020
 Alpha  occ. eigenvalues --   -0.68816  -0.56011  -0.54792  -0.49713  -0.48554
 Alpha virt. eigenvalues --    0.13525   0.16276   0.20118   0.22389   0.53794
 Alpha virt. eigenvalues --    0.54670   0.57428   0.58559   0.64452   0.76361
 Alpha virt. eigenvalues --    0.78491   0.78515   0.79735   0.80855   0.85004

 Mulliken charges:
               1
     1  O   -0.494945
     2  H    0.243773
     3  H    0.253780
     4  O   -0.499322
     5  H    0.240555
     6  H    0.256159
 Sum of Mulliken charges =  -0.00000

 Dipole moment (field-independent basis, Debye):
    X=             -1.6549    Y=             -1.0579    Z=              0.0000  Tot=              1.9641
 Quadrupole moment (field-independent basis, Debye-Ang):
   XX=             -9.3597   YY=              0.0459   ZZ=            -14.7145
   XY=             -2.4124   XZ=              0.0000   YZ=              0.0000

 Normal termination of Gaussian 16 at Sat Aug 27 07:15:13 2022.
