 Gaussian 16, Revision A.03,
 Gaussian 16:  ES64L-G16RevA.03 25-Dec-2016

 ------------------
 #p CCSD(T)/cc-pVTZ
 ------------------

 ------------
 H2O_H2O_2172
 ------------
 Symbolic Z-matrix:
 Charge =  0 Multiplicity = 1

                         Standard orientation:
 ---------------------------------------------------------------------
 Center     Atomic      Atomic             Coordinates (Angstroms)
 Number     Number       Type             X           Y           Z
 ---------------------------------------------------------------------
      1          8           0        0.056749   -1.893262    0.000000
      2          1           0       -0.744252   -2.462386    0.000000
      3          1           0        0.854885   -2.466399    0.000000
      4          8           0        0.056749    1.992295    0.000000
      5          1           0       -0.402954    2.860729    0.000000
      6          1           0       -0.615662    1.275796    0.000000
 ---------------------------------------------------------------------

 SCF Done:  E(RHF) =  -152.108556455     A.U. after   10 cycles
 E2 =    -0.5262324829D+00 EUMP2 =    -0.15263478893771D+03
 CCSD(T)
 CCSD(T)= -0.15266194520D+03

 The electronic state is 1-A'.
 Alpha  occ. eigenvalues --  -20.56021 -20.54239  -1.33292  -1.31537  -0.70699
 Alpha  occ. eigenvalues --   -0.68905  -0.56760  -0.55001  -0.50412  -0.48665
 Alpha virt. eigenvalues --    0.13026   0.16162   0.19832   0.23044   0.53843
 Alpha virt. eigenvalues --    0.54938   0.56866   0.58560   0.66154   0.73938
 Alpha virt. eigenvalues --    0.78283   0.79191   0.80303   0.80435   0.83457

 Mulliken charges:
               1
     1  O   -0.503949
     2  H    0.249603
     3  H    0.258185
     4  O   -0.512285
     5  H    0.245641
     6  H    0.262803
 Sum of Mulliken charges =  -0.00000

 Dipole moment (field-independent basis, Debye):
    X=             -1.9138    Y=             -1.8289    Z=              0.0000  Tot=              2.6472
 Quadrupole moment (field-independent basis, Debye-Ang):
   XX=             -9.8256   YY=             -1.3581   ZZ=            -14.7175
   XY=             -3.8144   XZ=              0.0000   YZ=              0.0000

 Normal termination of Gaussian 16 at Sat Aug 27 08:59:52 2022.
