 Gaussian 16, Revision A.03,
 Gaussian 16:  ES64L-G16RevA.03 25-Dec-2016

 ------------------
 #p CCSD(T)/cc-pVTZ
 ------------------

 -----------
 H2O_H2O_193
 -----------
 Symbolic Z-matrix:
 Charge =  0 Multiplicity = 1

                         Standard orientation:
 ---------------------------------------------------------------------
 Center     Atomic      Atomic             Coordinates (Angstroms)
 Number     Number       Type             X           Y           Z
 ---------------------------------------------------------------------
      1          8           0        0.052944   -0.858658    0.000000
      2          1           0       -0.749520   -1.425719    0.000000
      3          1           0        0.849602   -1.433847    0.000000
      4          8           0        0.052944    0.928635    0.000000
      5          1           0       -0.163861    1.887020    0.000000
      6          1           0       -0.783329    0.412735    0.000000
 ---------------------------------------------------------------------

 SCF Done:  E(RHF) =  -151.993561819     A.U. after   11 cycles
 E2 =    -0.5432565446D+00 EUMP2 =    -0.15253681836331D+03
 CCSD(T)
 CCSD(T)= -0.15256264874D+03

 The electronic state is 1-A'.
 Alpha  occ. eigenvalues --  -20.54304 -20.50399  -1.37187  -1.27075  -0.74585
 Alpha  occ. eigenvalues --   -0.70306  -0.54656  -0.52825  -0.44258  -0.43989
 Alpha virt. eigenvalues --    0.13572   0.18985   0.19588   0.24860   0.51237
 Alpha virt. eigenvalues --    0.55810   0.60696   0.65923   0.72963   0.76496
 Alpha virt. eigenvalues --    0.80472   0.80755   0.84029   0.84495   0.88517

 Mulliken charges:
               1
     1  O   -0.358204
     2  H    0.172619
     3  H    0.214139
     4  O   -0.417444
     5  H    0.141627
     6  H    0.247264
 Sum of Mulliken charges =   0.00000

 Dipole moment (field-independent basis, Debye):
    X=             -1.4386    Y=             -1.5770    Z=              0.0000  Tot=              2.1347
 Quadrupole moment (field-independent basis, Debye-Ang):
   XX=             -9.6740   YY=             -7.6653   ZZ=            -14.6295
   XY=             -1.2062   XZ=              0.0000   YZ=              0.0000

 Normal termination of Gaussian 16 at Fri Aug 26 13:51:04 2022.
