 Gaussian 16, Revision A.03,
 Gaussian 16:  ES64L-G16RevA.03 25-Dec-2016

 ------------------
 #p CCSD(T)/cc-pVTZ
 ------------------

 ------------
 H2O_H2O_4633
 ------------
 Symbolic Z-matrix:
 Charge =  0 Multiplicity = 1

                         Standard orientation:
 ---------------------------------------------------------------------
 Center     Atomic      Atomic             Coordinates (Angstroms)
 Number     Number       Type             X           Y           Z
 ---------------------------------------------------------------------
      1          8           0        0.028562   -3.255054    0.000000
      2          1           0       -0.771439   -3.825584    0.000000
      3          1           0        0.827703   -3.826789    0.000000
      4          8           0        0.028562    3.270315    0.000000
      5          1           0        0.436120    4.164408    0.000000
      6          1           0       -0.949381    3.365881    0.000000
 ---------------------------------------------------------------------

 SCF Done:  E(RHF) =  -152.106982511     A.U. after   10 cycles
 E2 =    -0.5259141014D+00 EUMP2 =    -0.15263289661204D+03
 CCSD(T)
 CCSD(T)= -0.15266012594D+03

 The electronic state is 1-A'.
 Alpha  occ. eigenvalues --  -20.55293 -20.55211  -1.32590  -1.32507  -0.69997
 Alpha  occ. eigenvalues --   -0.69912  -0.56018  -0.55935  -0.49698  -0.49616
 Alpha virt. eigenvalues --    0.14347   0.14432   0.20401   0.20487   0.54571
 Alpha virt. eigenvalues --    0.54660   0.57451   0.57534   0.68202   0.68292
 Alpha virt. eigenvalues --    0.79181   0.79263   0.80621   0.80711   0.82548

 Mulliken charges:
               1
     1  O   -0.506358
     2  H    0.252589
     3  H    0.253770
     4  O   -0.506288
     5  H    0.252268
     6  H    0.254020
 Sum of Mulliken charges =  -0.00000

 Dipole moment (field-independent basis, Debye):
    X=             -0.9818    Y=             -0.2661    Z=              0.0000  Tot=              1.0173
 Quadrupole moment (field-independent basis, Debye-Ang):
   XX=             -8.3156   YY=             12.8167   ZZ=            -14.7110
   XY=             -2.4433   XZ=              0.0000   YZ=              0.0000

 Normal termination of Gaussian 16 at Sat Aug 27 08:26:52 2022.
