 Gaussian 16, Revision A.03,
 Gaussian 16:  ES64L-G16RevA.03 25-Dec-2016

 ------------------
 #p CCSD(T)/cc-pVTZ
 ------------------

 ------------
 H2O_H2O_3087
 ------------
 Symbolic Z-matrix:
 Charge =  0 Multiplicity = 1

                         Standard orientation:
 ---------------------------------------------------------------------
 Center     Atomic      Atomic             Coordinates (Angstroms)
 Number     Number       Type             X           Y           Z
 ---------------------------------------------------------------------
      1          8           0        0.040409   -2.420888    0.000000
      2          1           0       -0.759976   -2.990879    0.000000
      3          1           0        0.839165   -2.993159    0.000000
      4          8           0        0.040409    2.454228    0.000000
      5          1           0        0.203322    3.423231    0.000000
      6          1           0       -0.929054    2.294080    0.000000
 ---------------------------------------------------------------------

 SCF Done:  E(RHF) =  -152.106620491     A.U. after   10 cycles
 E2 =    -0.5259993471D+00 EUMP2 =    -0.15263261983850D+03
 CCSD(T)
 CCSD(T)= -0.15265985290D+03

 The electronic state is 1-A'.
 Alpha  occ. eigenvalues --  -20.55188 -20.54857  -1.32482  -1.32148  -0.69891
 Alpha  occ. eigenvalues --   -0.69547  -0.55891  -0.55558  -0.49588  -0.49256
 Alpha virt. eigenvalues --    0.14132   0.14999   0.20385   0.20895   0.54555
 Alpha virt. eigenvalues --    0.55049   0.57523   0.57846   0.67117   0.70170
 Alpha virt. eigenvalues --    0.79288   0.79618   0.80663   0.81156   0.82785

 Mulliken charges:
               1
     1  O   -0.504196
     2  H    0.250215
     3  H    0.254029
     4  O   -0.503772
     5  H    0.249042
     6  H    0.254682
 Sum of Mulliken charges =   0.00000

 Dipole moment (field-independent basis, Debye):
    X=             -1.3800    Y=             -0.5901    Z=              0.0000  Tot=              1.5008
 Quadrupole moment (field-independent basis, Debye-Ang):
   XX=             -8.8352   YY=              5.5752   ZZ=            -14.7109
   XY=             -2.5547   XZ=              0.0000   YZ=              0.0000

 Normal termination of Gaussian 16 at Fri Aug 26 19:18:12 2022.
