 Gaussian 16, Revision A.03,
 Gaussian 16:  ES64L-G16RevA.03 25-Dec-2016

 ------------------
 #p CCSD(T)/cc-pVTZ
 ------------------

 -----------
 H2O_H2O_252
 -----------
 Symbolic Z-matrix:
 Charge =  0 Multiplicity = 1

                         Standard orientation:
 ---------------------------------------------------------------------
 Center     Atomic      Atomic             Coordinates (Angstroms)
 Number     Number       Type             X           Y           Z
 ---------------------------------------------------------------------
      1          8           0        0.007455   -0.936033    0.000000
      2          1           0       -0.792507   -1.506617    0.000000
      3          1           0        0.806635   -1.507712    0.000000
      4          8           0        0.007455    0.937000    0.000000
      5          1           0        0.726097    1.607119    0.000000
      6          1           0       -0.859507    1.399475    0.000000
 ---------------------------------------------------------------------

 SCF Done:  E(RHF) =  -152.020808086     A.U. after   11 cycles
 E2 =    -0.5390027424D+00 EUMP2 =    -0.15255981082878D+03
 CCSD(T)
 CCSD(T)= -0.15258617221D+03

 The electronic state is 1-A'.
 Alpha  occ. eigenvalues --  -20.51420 -20.51392  -1.32854  -1.27892  -0.68932
 Alpha  occ. eigenvalues --   -0.66071  -0.63044  -0.49891  -0.44218  -0.40482
 Alpha virt. eigenvalues --    0.14666   0.18816   0.20327   0.22944   0.50442
 Alpha virt. eigenvalues --    0.59177   0.59217   0.66932   0.68799   0.78736
 Alpha virt. eigenvalues --    0.79895   0.83572   0.84435   0.86555   0.87545

 Mulliken charges:
               1
     1  O   -0.409269
     2  H    0.201765
     3  H    0.207299
     4  O   -0.405993
     5  H    0.193043
     6  H    0.213155
 Sum of Mulliken charges =  -0.00000

 Dipole moment (field-independent basis, Debye):
    X=             -0.2144    Y=             -0.0223    Z=              0.0000  Tot=              0.2156
 Quadrupole moment (field-independent basis, Debye-Ang):
   XX=             -8.2731   YY=             -6.7203   ZZ=            -14.7566
   XY=             -0.0708   XZ=              0.0000   YZ=              0.0000

 733\MP4DQ=-152.5660375\MP4SDQ=-152.5697815\CCSD=-152.568886\CCSD(T)=-1
 Normal termination of Gaussian 16 at Fri Aug 26 14:32:15 2022.
