 Gaussian 16, Revision A.03,
 Gaussian 16:  ES64L-G16RevA.03 25-Dec-2016

 ------------------
 #p CCSD(T)/cc-pVTZ
 ------------------

 ------------
 H2O_H2O_4714
 ------------
 Symbolic Z-matrix:
 Charge =  0 Multiplicity = 1

                         Standard orientation:
 ---------------------------------------------------------------------
 Center     Atomic      Atomic             Coordinates (Angstroms)
 Number     Number       Type             X           Y           Z
 ---------------------------------------------------------------------
      1          8           0        0.045337   -3.279017    0.000000
      2          1           0       -0.754908   -3.849204    0.000000
      3          1           0        0.844233   -3.851094    0.000000
      4          8           0        0.045337    3.323600    0.000000
      5          1           0        0.080137    4.305585    0.000000
      6          1           0       -0.894859    3.038051    0.000000
 ---------------------------------------------------------------------

 SCF Done:  E(RHF) =  -152.107202324     A.U. after   10 cycles
 E2 =    -0.5258946258D+00 EUMP2 =    -0.15263309694983D+03
 CCSD(T)
 CCSD(T)= -0.15266032160D+03

 The electronic state is 1-A'.
 Alpha  occ. eigenvalues --  -20.55446 -20.55210  -1.32743  -1.32507  -0.70150
 Alpha  occ. eigenvalues --   -0.69909  -0.56181  -0.55944  -0.49853  -0.49617
 Alpha virt. eigenvalues --    0.14213   0.14451   0.20278   0.20526   0.54414
 Alpha virt. eigenvalues --    0.54665   0.57315   0.57551   0.68022   0.68266
 Alpha virt. eigenvalues --    0.79026   0.79259   0.80461   0.80715   0.82386

 Mulliken charges:
               1
     1  O   -0.507664
     2  H    0.252935
     3  H    0.254729
     4  O   -0.507511
     5  H    0.252268
     6  H    0.255243
 Sum of Mulliken charges =  -0.00000

 Dipole moment (field-independent basis, Debye):
    X=             -1.5590    Y=             -0.7775    Z=              0.0000  Tot=              1.7421
 Quadrupole moment (field-independent basis, Debye-Ang):
   XX=             -9.0966   YY=             10.4554   ZZ=            -14.7115
   XY=             -4.3578   XZ=              0.0000   YZ=              0.0000

 49778\MP4DQ=-152.6422232\MP4SDQ=-152.64528\CCSD=-152.6446927\CCSD(T)=-
 Normal termination of Gaussian 16 at Sat Aug 27 08:54:32 2022.
