 Gaussian 16, Revision A.03,
 Gaussian 16:  ES64L-G16RevA.03 25-Dec-2016

 ------------------
 #p CCSD(T)/cc-pVTZ
 ------------------

 ----------
 H2O_H2O_54
 ----------
 Symbolic Z-matrix:
 Charge =  0 Multiplicity = 1

                         Standard orientation:
 ---------------------------------------------------------------------
 Center     Atomic      Atomic             Coordinates (Angstroms)
 Number     Number       Type             X           Y           Z
 ---------------------------------------------------------------------
      1          8           0        0.014785   -0.828101    0.000000
      2          1           0       -0.785661   -1.398006    0.000000
      3          1           0        0.813479   -1.400458    0.000000
      4          8           0        0.014785    0.831947    0.000000
      5          1           0        0.640454    1.589605    0.000000
      6          1           0       -0.904832    1.178085    0.000000
 ---------------------------------------------------------------------

 SCF Done:  E(RHF) =  -151.938398650     A.U. after   12 cycles
 E2 =    -0.5494911284D+00 EUMP2 =    -0.15248788977868D+03
 CCSD(T)
 CCSD(T)= -0.15251258873D+03

 The electronic state is 1-A'.
 Alpha  occ. eigenvalues --  -20.51442 -20.51332  -1.36235  -1.26989  -0.70997
 Alpha  occ. eigenvalues --   -0.68191  -0.64653  -0.52478  -0.43246  -0.33942
 Alpha virt. eigenvalues --    0.14419   0.19542   0.19882   0.23145   0.51147
 Alpha virt. eigenvalues --    0.58143   0.59119   0.66210   0.68782   0.79100
 Alpha virt. eigenvalues --    0.80471   0.83835   0.83841   0.85768   0.88159

 Mulliken charges:
               1
     1  O   -0.354719
     2  H    0.169706
     3  H    0.185543
     4  O   -0.343934
     5  H    0.139229
     6  H    0.204175
 Sum of Mulliken charges =  -0.00000

 Dipole moment (field-independent basis, Debye):
    X=             -0.4225    Y=             -0.1067    Z=              0.0000  Tot=              0.4357
 Quadrupole moment (field-independent basis, Debye-Ang):
   XX=             -8.5887   YY=             -8.8151   ZZ=            -14.7626
   XY=             -0.2147   XZ=              0.0000   YZ=              0.0000

 Normal termination of Gaussian 16 at Fri Aug 26 12:18:41 2022.
