 Gaussian 16, Revision A.03,
 Gaussian 16:  ES64L-G16RevA.03 25-Dec-2016

 ------------------
 #p CCSD(T)/cc-pVTZ
 ------------------

 ------------
 H2O_H2O_3605
 ------------
 Symbolic Z-matrix:
 Charge =  0 Multiplicity = 1

                         Standard orientation:
 ---------------------------------------------------------------------
 Center     Atomic      Atomic             Coordinates (Angstroms)
 Number     Number       Type             X           Y           Z
 ---------------------------------------------------------------------
      1          8           0        0.018360   -2.714929    0.000000
      2          1           0       -0.781543   -3.285596    0.000000
      3          1           0        0.817599   -3.286526    0.000000
      4          8           0        0.018360    2.720970    0.000000
      5          1           0        0.592378    3.518472    0.000000
      6          1           0       -0.922197    3.005326    0.000000
 ---------------------------------------------------------------------

 SCF Done:  E(RHF) =  -152.106509891     A.U. after   10 cycles
 E2 =    -0.5259743573D+00 EUMP2 =    -0.15263248424789D+03
 CCSD(T)
 CCSD(T)= -0.15265972251D+03

 The electronic state is 1-A'.
 Alpha  occ. eigenvalues --  -20.55072 -20.55025  -1.32366  -1.32319  -0.69775
 Alpha  occ. eigenvalues --   -0.69726  -0.55771  -0.55724  -0.49471  -0.49424
 Alpha virt. eigenvalues --    0.14448   0.14658   0.20536   0.20631   0.54775
 Alpha virt. eigenvalues --    0.54869   0.57631   0.57691   0.68125   0.68906
 Alpha virt. eigenvalues --    0.79406   0.79453   0.80849   0.80915   0.82769

 Mulliken charges:
               1
     1  O   -0.503583
     2  H    0.251155
     3  H    0.252429
     4  O   -0.503509
     5  H    0.250887
     6  H    0.252622
 Sum of Mulliken charges =  -0.00000

 Dipole moment (field-independent basis, Debye):
    X=             -0.6289    Y=             -0.1060    Z=              0.0000  Tot=              0.6378
 Quadrupole moment (field-independent basis, Debye-Ang):
   XX=             -8.0206   YY=              9.3259   ZZ=            -14.7103
   XY=             -1.1770   XZ=              0.0000   YZ=              0.0000

 Normal termination of Gaussian 16 at Sat Aug 27 01:50:32 2022.
