 Gaussian 16, Revision A.03,
 Gaussian 16:  ES64L-G16RevA.03 25-Dec-2016

 ------------------
 #p CCSD(T)/cc-pVTZ
 ------------------

 ------------
 H2O_H2O_3679
 ------------
 Symbolic Z-matrix:
 Charge =  0 Multiplicity = 1

                         Standard orientation:
 ---------------------------------------------------------------------
 Center     Atomic      Atomic             Coordinates (Angstroms)
 Number     Number       Type             X           Y           Z
 ---------------------------------------------------------------------
      1          8           0        0.014783   -2.755991    0.000000
      2          1           0       -0.785052   -3.326754    0.000000
      3          1           0        0.814090   -3.327492    0.000000
      4          8           0        0.014783    2.759870    0.000000
      5          1           0        0.639640    3.518196    0.000000
      6          1           0       -0.905205    3.105021    0.000000
 ---------------------------------------------------------------------

 SCF Done:  E(RHF) =  -152.106525719     A.U. after   10 cycles
 E2 =    -0.5259704541D+00 EUMP2 =    -0.15263249617281D+03
 CCSD(T)
 CCSD(T)= -0.15265973425D+03

 The electronic state is 1-A'.
 Alpha  occ. eigenvalues --  -20.55073 -20.55043  -1.32367  -1.32338  -0.69776
 Alpha  occ. eigenvalues --   -0.69745  -0.55773  -0.55743  -0.49472  -0.49443
 Alpha virt. eigenvalues --    0.14461   0.14629   0.20540   0.20611   0.54777
 Alpha virt. eigenvalues --    0.54846   0.57631   0.57674   0.68190   0.68815
 Alpha virt. eigenvalues --    0.79405   0.79435   0.80849   0.80894   0.82770

 Mulliken charges:
               1
     1  O   -0.503673
     2  H    0.251345
     3  H    0.252328
     4  O   -0.503628
     5  H    0.251146
     6  H    0.252481
 Sum of Mulliken charges =  -0.00000

 Dipole moment (field-independent basis, Debye):
    X=             -0.5065    Y=             -0.0680    Z=              0.0000  Tot=              0.5111
 Quadrupole moment (field-independent basis, Debye-Ang):
   XX=             -7.9457   YY=              9.7764   ZZ=            -14.7103
   XY=             -0.9577   XZ=              0.0000   YZ=              0.0000

 Normal termination of Gaussian 16 at Sat Aug 27 02:25:23 2022.
