 Gaussian 16, Revision A.03,
 Gaussian 16:  ES64L-G16RevA.03 25-Dec-2016

 ------------------
 #p CCSD(T)/cc-pVTZ
 ------------------

 -----------
 H2O_H2O_971
 -----------
 Symbolic Z-matrix:
 Charge =  0 Multiplicity = 1

                         Standard orientation:
 ---------------------------------------------------------------------
 Center     Atomic      Atomic             Coordinates (Angstroms)
 Number     Number       Type             X           Y           Z
 ---------------------------------------------------------------------
      1          8           0        0.056185   -1.259131    0.000000
      2          1           0       -0.745491   -1.827305    0.000000
      3          1           0        0.853640   -1.833214    0.000000
      4          8           0        0.056185    1.350659    0.000000
      5          1           0       -0.344671    2.247776    0.000000
      6          1           0       -0.662443    0.680525    0.000000
 ---------------------------------------------------------------------

 SCF Done:  E(RHF) =  -152.103666663     A.U. after   10 cycles
 E2 =    -0.5291559920D+00 EUMP2 =    -0.15263282265451D+03
 CCSD(T)
 CCSD(T)= -0.15265985264D+03

 The electronic state is 1-A'.
 Alpha  occ. eigenvalues --  -20.56248 -20.52504  -1.33847  -1.29863  -0.71227
 Alpha  occ. eigenvalues --   -0.68050  -0.56423  -0.53348  -0.50915  -0.46944
 Alpha virt. eigenvalues --    0.13202   0.17833   0.19598   0.25398   0.51631
 Alpha virt. eigenvalues --    0.56526   0.58991   0.60117   0.71052   0.74081
 Alpha virt. eigenvalues --    0.75644   0.81440   0.82694   0.84077   0.84748

 Mulliken charges:
               1
     1  O   -0.473108
     2  H    0.236468
     3  H    0.254027
     4  O   -0.502778
     5  H    0.223416
     6  H    0.261975
 Sum of Mulliken charges =  -0.00000

 Dipole moment (field-independent basis, Debye):
    X=             -1.7789    Y=             -1.8772    Z=              0.0000  Tot=              2.5862
 Quadrupole moment (field-independent basis, Debye-Ang):
   XX=             -9.7979   YY=             -4.3442   ZZ=            -14.7238
   XY=             -2.4687   XZ=              0.0000   YZ=              0.0000

 Normal termination of Gaussian 16 at Fri Aug 26 21:37:56 2022.
