 Gaussian 16, Revision A.03,
 Gaussian 16:  ES64L-G16RevA.03 25-Dec-2016

 ------------------
 #p CCSD(T)/cc-pVTZ
 ------------------

 ------------
 H2O_H2O_3533
 ------------
 Symbolic Z-matrix:
 Charge =  0 Multiplicity = 1

                         Standard orientation:
 ---------------------------------------------------------------------
 Center     Atomic      Atomic             Coordinates (Angstroms)
 Number     Number       Type             X           Y           Z
 ---------------------------------------------------------------------
      1          8           0        0.028564   -2.670039    0.000000
      2          1           0       -0.771531   -3.240437    0.000000
      3          1           0        0.827610   -3.241905    0.000000
      4          8           0        0.028564    2.685290    0.000000
      5          1           0        0.436269    3.579317    0.000000
      6          1           0       -0.949364    2.781017    0.000000
 ---------------------------------------------------------------------

 SCF Done:  E(RHF) =  -152.106582918     A.U. after   10 cycles
 E2 =    -0.5259716770D+00 EUMP2 =    -0.15263255459483D+03
 CCSD(T)
 CCSD(T)= -0.15265979107D+03

 The electronic state is 1-A'.
 Alpha  occ. eigenvalues --  -20.55124 -20.55001  -1.32419  -1.32294  -0.69827
 Alpha  occ. eigenvalues --   -0.69699  -0.55827  -0.55703  -0.49524  -0.49401
 Alpha virt. eigenvalues --    0.14387   0.14698   0.20491   0.20671   0.54720
 Alpha virt. eigenvalues --    0.54897   0.57585   0.57719   0.67998   0.68995
 Alpha virt. eigenvalues --    0.79353   0.79475   0.80794   0.80943   0.82737

 Mulliken charges:
               1
     1  O   -0.504026
     2  H    0.250980
     3  H    0.253049
     4  O   -0.503847
     5  H    0.250465
     6  H    0.253380
 Sum of Mulliken charges =   0.00000

 Dipole moment (field-independent basis, Debye):
    X=             -0.9781    Y=             -0.2680    Z=              0.0000  Tot=              1.0141
 Quadrupole moment (field-independent basis, Debye-Ang):
   XX=             -8.3211   YY=              8.4362   ZZ=            -14.7105
   XY=             -1.8750   XZ=              0.0000   YZ=              0.0000

 Normal termination of Gaussian 16 at Sat Aug 27 01:17:16 2022.
