 Gaussian 16, Revision A.03,
 Gaussian 16:  ES64L-G16RevA.03 25-Dec-2016

 ------------------
 #p CCSD(T)/cc-pVTZ
 ------------------

 ------------
 H2O_H2O_3613
 ------------
 Symbolic Z-matrix:
 Charge =  0 Multiplicity = 1

                         Standard orientation:
 ---------------------------------------------------------------------
 Center     Atomic      Atomic             Coordinates (Angstroms)
 Number     Number       Type             X           Y           Z
 ---------------------------------------------------------------------
      1          8           0        0.042966   -2.697140    0.000000
      2          1           0       -0.757381   -3.267184    0.000000
      3          1           0        0.841760   -3.269360    0.000000
      4          8           0        0.042966    2.735935    0.000000
      5          1           0        0.142091    3.713524    0.000000
      6          1           0       -0.913932    2.512661    0.000000
 ---------------------------------------------------------------------

 SCF Done:  E(RHF) =  -152.106913177     A.U. after   10 cycles
 E2 =    -0.5259428645D+00 EUMP2 =    -0.15263285604130D+03
 CCSD(T)
 CCSD(T)= -0.15266008537D+03

 The electronic state is 1-A'.
 Alpha  occ. eigenvalues --  -20.55310 -20.55003  -1.32607  -1.32297  -0.70014
 Alpha  occ. eigenvalues --   -0.69697  -0.56031  -0.55722  -0.49715  -0.49407
 Alpha virt. eigenvalues --    0.14227   0.14714   0.20351   0.20726   0.54534
 Alpha virt. eigenvalues --    0.54889   0.57425   0.57735   0.67877   0.68860
 Alpha virt. eigenvalues --    0.79165   0.79467   0.80598   0.80922   0.82591

 Mulliken charges:
               1
     1  O   -0.505986
     2  H    0.251502
     3  H    0.254492
     4  O   -0.505662
     5  H    0.250491
     6  H    0.255163
 Sum of Mulliken charges =  -0.00000

 Dipole moment (field-independent basis, Debye):
    X=             -1.4722    Y=             -0.6818    Z=              0.0000  Tot=              1.6224
 Quadrupole moment (field-independent basis, Debye-Ang):
   XX=             -8.9663   YY=              7.1083   ZZ=            -14.7112
   XY=             -3.1957   XZ=              0.0000   YZ=              0.0000

 Normal termination of Gaussian 16 at Sat Aug 27 01:54:11 2022.
