 Gaussian 16, Revision A.03,
 Gaussian 16:  ES64L-G16RevA.03 25-Dec-2016

 ------------------
 #p CCSD(T)/cc-pVTZ
 ------------------

 ------------
 H2O_H2O_1888
 ------------
 Symbolic Z-matrix:
 Charge =  0 Multiplicity = 1

                         Standard orientation:
 ---------------------------------------------------------------------
 Center     Atomic      Atomic             Coordinates (Angstroms)
 Number     Number       Type             X           Y           Z
 ---------------------------------------------------------------------
      1          8           0        0.042980   -1.779754    0.000000
      2          1           0       -0.757763   -2.349242    0.000000
      3          1           0        0.841376   -2.352527    0.000000
      4          8           0        0.042980    1.818489    0.000000
      5          1           0        0.142783    2.796009    0.000000
      6          1           0       -0.914074    1.595878    0.000000
 ---------------------------------------------------------------------

 SCF Done:  E(RHF) =  -152.105864040     A.U. after   10 cycles
 E2 =    -0.5265172244D+00 EUMP2 =    -0.15263238126459D+03
 CCSD(T)
 CCSD(T)= -0.15265959230D+03

 The electronic state is 1-A'.
 Alpha  occ. eigenvalues --  -20.55005 -20.54251  -1.32282  -1.31519  -0.69701
 Alpha  occ. eigenvalues --   -0.68908  -0.55714  -0.54777  -0.49389  -0.48626
 Alpha virt. eigenvalues --    0.13732   0.16158   0.20277   0.21924   0.53315
 Alpha virt. eigenvalues --    0.55250   0.57681   0.58502   0.63788   0.76550
 Alpha virt. eigenvalues --    0.78780   0.78813   0.80405   0.80849   0.84681

 Mulliken charges:
               1
     1  O   -0.493036
     2  H    0.242883
     3  H    0.251636
     4  O   -0.494782
     5  H    0.240408
     6  H    0.252890
 Sum of Mulliken charges =  -0.00000

 Dipole moment (field-independent basis, Debye):
    X=             -1.4377    Y=             -0.7170    Z=              0.0000  Tot=              1.6065
 Quadrupole moment (field-independent basis, Debye-Ang):
   XX=             -8.9878   YY=              0.8954   ZZ=            -14.7124
   XY=             -1.8688   XZ=              0.0000   YZ=              0.0000

 Normal termination of Gaussian 16 at Sat Aug 27 07:22:34 2022.
