 Gaussian 16, Revision A.03,
 Gaussian 16:  ES64L-G16RevA.03 25-Dec-2016

 ------------------
 #p CCSD(T)/cc-pVTZ
 ------------------

 ------------
 H2O_H2O_2219
 ------------
 Symbolic Z-matrix:
 Charge =  0 Multiplicity = 1

                         Standard orientation:
 ---------------------------------------------------------------------
 Center     Atomic      Atomic             Coordinates (Angstroms)
 Number     Number       Type             X           Y           Z
 ---------------------------------------------------------------------
      1          8           0        0.054174   -1.931682    0.000000
      2          1           0       -0.746745   -2.500923    0.000000
      3          1           0        0.852393   -2.504701    0.000000
      4          8           0        0.054174    2.008935    0.000000
      5          1           0       -0.227412    2.950325    0.000000
      6          1           0       -0.745015    1.437267    0.000000
 ---------------------------------------------------------------------

 SCF Done:  E(RHF) =  -152.107626376     A.U. after   10 cycles
 E2 =    -0.5262200045D+00 EUMP2 =    -0.15263384638099D+03
 CCSD(T)
 CCSD(T)= -0.15266102833D+03

 The electronic state is 1-A'.
 Alpha  occ. eigenvalues --  -20.55665 -20.54356  -1.32942  -1.31643  -0.70353
 Alpha  occ. eigenvalues --   -0.69015  -0.56373  -0.55079  -0.50056  -0.48764
 Alpha virt. eigenvalues --    0.13263   0.15994   0.20003   0.22327   0.54175
 Alpha virt. eigenvalues --    0.54362   0.57170   0.58481   0.65428   0.74662
 Alpha virt. eigenvalues --    0.78672   0.79230   0.80223   0.81196   0.83799

 Mulliken charges:
               1
     1  O   -0.502825
     2  H    0.248342
     3  H    0.256778
     4  O   -0.507408
     5  H    0.245131
     6  H    0.259982
 Sum of Mulliken charges =  -0.00000

 Dipole moment (field-independent basis, Debye):
    X=             -1.8280    Y=             -1.4162    Z=              0.0000  Tot=              2.3124
 Quadrupole moment (field-independent basis, Debye-Ang):
   XX=             -9.6501   YY=              0.0984   ZZ=            -14.7151
   XY=             -3.3211   XZ=              0.0000   YZ=              0.0000

 Normal termination of Gaussian 16 at Sat Aug 27 09:16:51 2022.
