 Gaussian 16, Revision A.03,
 Gaussian 16:  ES64L-G16RevA.03 25-Dec-2016

 ------------------
 #p CCSD(T)/cc-pVTZ
 ------------------

 ----------
 H2O_H2O_48
 ----------
 Symbolic Z-matrix:
 Charge =  0 Multiplicity = 1

                         Standard orientation:
 ---------------------------------------------------------------------
 Center     Atomic      Atomic             Coordinates (Angstroms)
 Number     Number       Type             X           Y           Z
 ---------------------------------------------------------------------
      1          8           0        0.057312   -0.759282    0.000000
      2          1           0       -0.745693   -1.325575    0.000000
      3          1           0        0.853419   -1.335233    0.000000
      4          8           0        0.057312    0.865347    0.000000
      5          1           0       -0.455249    1.703671    0.000000
      6          1           0       -0.569473    0.108613    0.000000
 ---------------------------------------------------------------------

 SCF Done:  E(RHF) =  -151.846746910     A.U. after   12 cycles
 E2 =    -0.5551355510D+00 EUMP2 =    -0.15240188246116D+03
 CCSD(T)
 CCSD(T)= -0.15242527475D+03

 The electronic state is 1-A'.
 Alpha  occ. eigenvalues --  -20.57894 -20.45624  -1.46645  -1.24591  -0.82959
 Alpha  occ. eigenvalues --   -0.75030  -0.58265  -0.49397  -0.41382  -0.39071
 Alpha virt. eigenvalues --    0.12311   0.17171   0.21289   0.26948   0.48250
 Alpha virt. eigenvalues --    0.52275   0.63422   0.70751   0.73598   0.74544
 Alpha virt. eigenvalues --    0.77013   0.78440   0.85005   0.85073   0.89524

 Mulliken charges:
               1
     1  O   -0.220017
     2  H    0.153277
     3  H    0.214424
     4  O   -0.538243
     5  H    0.115331
     6  H    0.275226
 Sum of Mulliken charges =  -0.00000

 Dipole moment (field-independent basis, Debye):
    X=             -1.4031    Y=             -3.0068    Z=              0.0000  Tot=              3.3181
 Quadrupole moment (field-independent basis, Debye-Ang):
   XX=             -9.8540   YY=             -9.7626   ZZ=            -14.4746
   XY=             -1.7080   XZ=              0.0000   YZ=              0.0000

 Normal termination of Gaussian 16 at Fri Aug 26 12:15:04 2022.
