 Gaussian 16, Revision A.03,
 Gaussian 16:  ES64L-G16RevA.03 25-Dec-2016

 ------------------
 #p CCSD(T)/cc-pVTZ
 ------------------

 -----------
 H2O_H2O_773
 -----------
 Symbolic Z-matrix:
 Charge =  0 Multiplicity = 1

                         Standard orientation:
 ---------------------------------------------------------------------
 Center     Atomic      Atomic             Coordinates (Angstroms)
 Number     Number       Type             X           Y           Z
 ---------------------------------------------------------------------
      1          8           0        0.057209   -1.144747    0.000000
      2          1           0       -0.744694   -1.712600    0.000000
      3          1           0        0.854434   -1.719149    0.000000
      4          8           0        0.057209    1.251035    0.000000
      5          1           0       -0.456981    2.088362    0.000000
      6          1           0       -0.568104    0.493085    0.000000
 ---------------------------------------------------------------------

 SCF Done:  E(RHF) =  -152.096372684     A.U. after   11 cycles
 E2 =    -0.5313323228D+00 EUMP2 =    -0.15262770500682D+03
 CCSD(T)
 CCSD(T)= -0.15265449138D+03

 The electronic state is 1-A'.
 Alpha  occ. eigenvalues --  -20.56945 -20.51319  -1.35062  -1.28916  -0.72371
 Alpha  occ. eigenvalues --   -0.68775  -0.55810  -0.52549  -0.51963  -0.45956
 Alpha virt. eigenvalues --    0.12917   0.18473   0.19246   0.26943   0.50188
 Alpha virt. eigenvalues --    0.55699   0.60906   0.62682   0.71488   0.73489
 Alpha virt. eigenvalues --    0.75957   0.82443   0.82886   0.83528   0.86751

 Mulliken charges:
               1
     1  O   -0.447738
     2  H    0.230224
     3  H    0.251616
     4  O   -0.517489
     5  H    0.216093
     6  H    0.267295
 Sum of Mulliken charges =  -0.00000

 Dipole moment (field-independent basis, Debye):
    X=             -1.7709    Y=             -2.3300    Z=              0.0000  Tot=              2.9266
 Quadrupole moment (field-independent basis, Debye-Ang):
   XX=             -9.8456   YY=             -5.6160   ZZ=            -14.7056
   XY=             -2.5728   XZ=              0.0000   YZ=              0.0000

 Normal termination of Gaussian 16 at Fri Aug 26 19:51:17 2022.
