 Gaussian 16, Revision A.03,
 Gaussian 16:  ES64L-G16RevA.03 25-Dec-2016

 ------------------
 #p CCSD(T)/cc-pVTZ
 ------------------

 ------------
 H2O_H2O_1144
 ------------
 Symbolic Z-matrix:
 Charge =  0 Multiplicity = 1

                         Standard orientation:
 ---------------------------------------------------------------------
 Center     Atomic      Atomic             Coordinates (Angstroms)
 Number     Number       Type             X           Y           Z
 ---------------------------------------------------------------------
      1          8           0        0.054211   -1.360012    0.000000
      2          1           0       -0.747257   -1.928479    0.000000
      3          1           0        0.851876   -1.933802    0.000000
      4          8           0        0.054211    1.437161    0.000000
      5          1           0       -0.226465    2.378823    0.000000
      6          1           0       -0.745530    0.866266    0.000000
 ---------------------------------------------------------------------

 SCF Done:  E(RHF) =  -152.105403752     A.U. after   10 cycles
 E2 =    -0.5280538838D+00 EUMP2 =    -0.15263345763620D+03
 CCSD(T)
 CCSD(T)= -0.15266058428D+03

 The electronic state is 1-A'.
 Alpha  occ. eigenvalues --  -20.55753 -20.53139  -1.33158  -1.30419  -0.70569
 Alpha  occ. eigenvalues --   -0.68047  -0.56371  -0.53733  -0.50269  -0.47515
 Alpha virt. eigenvalues --    0.13413   0.17358   0.19814   0.24269   0.52891
 Alpha virt. eigenvalues --    0.56985   0.57422   0.58908   0.69897   0.75276
 Alpha virt. eigenvalues --    0.75366   0.78780   0.81527   0.82498   0.84589

 Mulliken charges:
               1
     1  O   -0.481424
     2  H    0.237482
     3  H    0.254686
     4  O   -0.494997
     5  H    0.227514
     6  H    0.256738
 Sum of Mulliken charges =   0.00000

 Dipole moment (field-independent basis, Debye):
    X=             -1.7423    Y=             -1.5256    Z=              0.0000  Tot=              2.3159
 Quadrupole moment (field-independent basis, Debye-Ang):
   XX=             -9.6749   YY=             -3.2099   ZZ=            -14.7244
   XY=             -2.3015   XZ=              0.0000   YZ=              0.0000

 Normal termination of Gaussian 16 at Sat Aug 27 02:27:59 2022.
