 Gaussian 16, Revision A.03,
 Gaussian 16:  ES64L-G16RevA.03 25-Dec-2016

 ------------------
 #p CCSD(T)/cc-pVTZ
 ------------------

 ------------
 H2O_H2O_3936
 ------------
 Symbolic Z-matrix:
 Charge =  0 Multiplicity = 1

                         Standard orientation:
 ---------------------------------------------------------------------
 Center     Atomic      Atomic             Coordinates (Angstroms)
 Number     Number       Type             X           Y           Z
 ---------------------------------------------------------------------
      1          8           0        0.037673   -2.875707    0.000000
      2          1           0       -0.762538   -3.445942    0.000000
      3          1           0        0.836603   -3.447736    0.000000
      4          8           0        0.037673    2.903969    0.000000
      5          1           0        0.263322    3.860311    0.000000
      6          1           0       -0.940160    2.807272    0.000000
 ---------------------------------------------------------------------

 SCF Done:  E(RHF) =  -152.106896632     A.U. after   10 cycles
 E2 =    -0.5259334802D+00 EUMP2 =    -0.15263283011233D+03
 CCSD(T)
 CCSD(T)= -0.15266006055D+03

 The electronic state is 1-A'.
 Alpha  occ. eigenvalues --  -20.55280 -20.55084  -1.32576  -1.32378  -0.69984
 Alpha  occ. eigenvalues --   -0.69781  -0.56000  -0.55802  -0.49684  -0.49487
 Alpha virt. eigenvalues --    0.14322   0.14580   0.20394   0.20617   0.54579
 Alpha virt. eigenvalues --    0.54800   0.57456   0.57656   0.68123   0.68539
 Alpha virt. eigenvalues --    0.79195   0.79389   0.80636   0.80849   0.82573

 Mulliken charges:
               1
     1  O   -0.505873
     2  H    0.251837
     3  H    0.254037
     4  O   -0.505673
     5  H    0.251167
     6  H    0.254505
 Sum of Mulliken charges =  -0.00000

 Dipole moment (field-independent basis, Debye):
    X=             -1.2925    Y=             -0.4950    Z=              0.0000  Tot=              1.3841
 Quadrupole moment (field-independent basis, Debye-Ang):
   XX=             -8.6974   YY=              9.0764   ZZ=            -14.7110
   XY=             -2.8987   XZ=              0.0000   YZ=              0.0000

 Normal termination of Gaussian 16 at Sat Aug 27 04:25:25 2022.
