 Gaussian 16, Revision A.03,
 Gaussian 16:  ES64L-G16RevA.03 25-Dec-2016

 ------------------
 #p CCSD(T)/cc-pVTZ
 ------------------

 ------------
 H2O_H2O_3026
 ------------
 Symbolic Z-matrix:
 Charge =  0 Multiplicity = 1

                         Standard orientation:
 ---------------------------------------------------------------------
 Center     Atomic      Atomic             Coordinates (Angstroms)
 Number     Number       Type             X           Y           Z
 ---------------------------------------------------------------------
      1          8           0        0.003735   -2.412272    0.000000
      2          1           0       -0.795912   -2.983297    0.000000
      3          1           0        0.803230   -2.983510    0.000000
      4          8           0        0.003735    2.412515    0.000000
      5          1           0        0.764324    3.034618    0.000000
      6          1           0       -0.831409    2.930242    0.000000
 ---------------------------------------------------------------------

 SCF Done:  E(RHF) =  -152.106018140     A.U. after   10 cycles
 E2 =    -0.5260466065D+00 EUMP2 =    -0.15263206474690D+03
 CCSD(T)
 CCSD(T)= -0.15265931136D+03

 The electronic state is 1-A'.
 Alpha  occ. eigenvalues --  -20.54872 -20.54870  -1.32164  -1.32162  -0.69575
 Alpha  occ. eigenvalues --   -0.69572  -0.55566  -0.55518  -0.49267  -0.49262
 Alpha virt. eigenvalues --    0.14423   0.14949   0.20611   0.20774   0.54847
 Alpha virt. eigenvalues --    0.55155   0.57759   0.57839   0.67008   0.70452
 Alpha virt. eigenvalues --    0.79574   0.79645   0.81020   0.81119   0.82595

 Mulliken charges:
               1
     1  O   -0.500677
     2  H    0.250159
     3  H    0.250519
     4  O   -0.500672
     5  H    0.250108
     6  H    0.250564
 Sum of Mulliken charges =  -0.00000

 Dipole moment (field-independent basis, Debye):
    X=             -0.1275    Y=             -0.0043    Z=              0.0000  Tot=              0.1275
 Quadrupole moment (field-independent basis, Debye-Ang):
   XX=             -7.8258   YY=              7.2126   ZZ=            -14.7097
   XY=             -0.1941   XZ=              0.0000   YZ=              0.0000

 Normal termination of Gaussian 16 at Fri Aug 26 18:38:44 2022.
