 Gaussian 16, Revision A.03,
 Gaussian 16:  ES64L-G16RevA.03 25-Dec-2016

 ------------------
 #p CCSD(T)/cc-pVTZ
 ------------------

 -----------
 H2O_H2O_388
 -----------
 Symbolic Z-matrix:
 Charge =  0 Multiplicity = 1

                         Standard orientation:
 ---------------------------------------------------------------------
 Center     Atomic      Atomic             Coordinates (Angstroms)
 Number     Number       Type             X           Y           Z
 ---------------------------------------------------------------------
      1          8           0        0.043012   -0.982072    0.000000
      2          1           0       -0.758662   -1.550249    0.000000
      3          1           0        0.840469   -1.556152    0.000000
      4          8           0        0.043012    1.020666    0.000000
      5          1           0        0.144414    1.998023    0.000000
      6          1           0       -0.914405    0.799623    0.000000
 ---------------------------------------------------------------------

 SCF Done:  E(RHF) =  -152.057241859     A.U. after   11 cycles
 E2 =    -0.5352750307D+00 EUMP2 =    -0.15259251689003D+03
 CCSD(T)
 CCSD(T)= -0.15261931110D+03

 The electronic state is 1-A'.
 Alpha  occ. eigenvalues --  -20.53291 -20.51865  -1.33137  -1.28622  -0.70247
 Alpha  occ. eigenvalues --   -0.67913  -0.58145  -0.50111  -0.46348  -0.45309
 Alpha virt. eigenvalues --    0.14142   0.18204   0.20055   0.23716   0.53206
 Alpha virt. eigenvalues --    0.57327   0.58489   0.63510   0.71775   0.76392
 Alpha virt. eigenvalues --    0.80008   0.82005   0.83242   0.85134   0.88256

 Mulliken charges:
               1
     1  O   -0.433108
     2  H    0.206386
     3  H    0.227047
     4  O   -0.410455
     5  H    0.172568
     6  H    0.237562
 Sum of Mulliken charges =  -0.00000

 Dipole moment (field-independent basis, Debye):
    X=             -1.2427    Y=             -0.7925    Z=              0.0000  Tot=              1.4739
 Quadrupole moment (field-independent basis, Debye-Ang):
   XX=             -9.1536   YY=             -5.8308   ZZ=            -14.7159
   XY=             -0.7828   XZ=              0.0000   YZ=              0.0000

 Normal termination of Gaussian 16 at Fri Aug 26 15:56:32 2022.
