 Gaussian 16, Revision A.03,
 Gaussian 16:  ES64L-G16RevA.03 25-Dec-2016

 ------------------
 #p CCSD(T)/cc-pVTZ
 ------------------

 -----------
 H2O_H2O_103
 -----------
 Symbolic Z-matrix:
 Charge =  0 Multiplicity = 1

                         Standard orientation:
 ---------------------------------------------------------------------
 Center     Atomic      Atomic             Coordinates (Angstroms)
 Number     Number       Type             X           Y           Z
 ---------------------------------------------------------------------
      1          8           0        0.011143   -0.855604    0.000000
      2          1           0       -0.789066   -1.425840    0.000000
      3          1           0        0.810075   -1.427630    0.000000
      4          8           0        0.011143    0.857773    0.000000
      5          1           0        0.684730    1.573167    0.000000
      6          1           0       -0.884034    1.262945    0.000000
 ---------------------------------------------------------------------

 SCF Done:  E(RHF) =  -151.964052970     A.U. after   11 cycles
 E2 =    -0.5461866790D+00 EUMP2 =    -0.15251023964933D+03
 CCSD(T)
 CCSD(T)= -0.15253552002D+03

 The electronic state is 1-A'.
 Alpha  occ. eigenvalues --  -20.51269 -20.51207  -1.35043  -1.27181  -0.70166
 Alpha  occ. eigenvalues --   -0.66998  -0.64809  -0.51581  -0.43428  -0.35736
 Alpha virt. eigenvalues --    0.14541   0.19381   0.19996   0.23084   0.50806
 Alpha virt. eigenvalues --    0.58700   0.59185   0.66723   0.68379   0.79213
 Alpha virt. eigenvalues --    0.80482   0.83949   0.84122   0.86109   0.87946

 Mulliken charges:
               1
     1  O   -0.371798
     2  H    0.180310
     3  H    0.191551
     4  O   -0.364609
     5  H    0.160536
     6  H    0.204010
 Sum of Mulliken charges =  -0.00000

 Dipole moment (field-independent basis, Debye):
    X=             -0.3179    Y=             -0.0572    Z=              0.0000  Tot=              0.3230
 Quadrupole moment (field-independent basis, Debye-Ang):
   XX=             -8.4710   YY=             -8.1994   ZZ=            -14.7617
   XY=             -0.1396   XZ=              0.0000   YZ=              0.0000

 32129\MP4DQ=-152.514453\MP4SDQ=-152.5185906\CCSD=-152.5174225\CCSD(T)=
 Normal termination of Gaussian 16 at Fri Aug 26 12:47:27 2022.
