 Gaussian 16, Revision A.03,
 Gaussian 16:  ES64L-G16RevA.03 25-Dec-2016

 ------------------
 #p CCSD(T)/cc-pVTZ
 ------------------

 -----------
 H2O_H2O_232
 -----------
 Symbolic Z-matrix:
 Charge =  0 Multiplicity = 1

                         Standard orientation:
 ---------------------------------------------------------------------
 Center     Atomic      Atomic             Coordinates (Angstroms)
 Number     Number       Type             X           Y           Z
 ---------------------------------------------------------------------
      1          8           0        0.025274   -0.916927    0.000000
      2          1           0       -0.775640   -1.486173    0.000000
      3          1           0        0.823497   -1.489942    0.000000
      4          8           0        0.025274    0.928588    0.000000
      5          1           0        0.491822    1.793365    0.000000
      6          1           0       -0.944068    1.089464    0.000000
 ---------------------------------------------------------------------

 SCF Done:  E(RHF) =  -152.017546257     A.U. after   11 cycles
 E2 =    -0.5396783569D+00 EUMP2 =    -0.15255722461374D+03
 CCSD(T)
 CCSD(T)= -0.15258348722D+03

 The electronic state is 1-A'.
 Alpha  occ. eigenvalues --  -20.51821 -20.51466  -1.33467  -1.27820  -0.69735
 Alpha  occ. eigenvalues --   -0.66966  -0.61900  -0.50365  -0.44228  -0.40760
 Alpha virt. eigenvalues --    0.14505   0.18658   0.20186   0.23244   0.52095
 Alpha virt. eigenvalues --    0.57889   0.58886   0.65608   0.69978   0.78290
 Alpha virt. eigenvalues --    0.79323   0.83103   0.83876   0.86071   0.88156

 Mulliken charges:
               1
     1  O   -0.413675
     2  H    0.197387
     3  H    0.214672
     4  O   -0.388087
     5  H    0.163794
     6  H    0.225910
 Sum of Mulliken charges =  -0.00000

 Dipole moment (field-independent basis, Debye):
    X=             -0.7171    Y=             -0.2626    Z=              0.0000  Tot=              0.7637
 Quadrupole moment (field-independent basis, Debye-Ang):
   XX=             -8.5784   YY=             -6.9023   ZZ=            -14.7384
   XY=             -0.2828   XZ=              0.0000   YZ=              0.0000

 Normal termination of Gaussian 16 at Fri Aug 26 14:19:06 2022.
