 Gaussian 16, Revision A.03,
 Gaussian 16:  ES64L-G16RevA.03 25-Dec-2016

 ------------------
 #p CCSD(T)/cc-pVTZ
 ------------------

 ------------
 H2O_H2O_2598
 ------------
 Symbolic Z-matrix:
 Charge =  0 Multiplicity = 1

                         Standard orientation:
 ---------------------------------------------------------------------
 Center     Atomic      Atomic             Coordinates (Angstroms)
 Number     Number       Type             X           Y           Z
 ---------------------------------------------------------------------
      1          8           0        0.057112   -2.115239    0.000000
      2          1           0       -0.743750   -2.684561    0.000000
      3          1           0        0.855388   -2.688179    0.000000
      4          8           0        0.057112    2.221737    0.000000
      5          1           0       -0.458613    3.058119    0.000000
      6          1           0       -0.566811    1.462640    0.000000
 ---------------------------------------------------------------------

 SCF Done:  E(RHF) =  -152.108399870     A.U. after   10 cycles
 E2 =    -0.5260337193D+00 EUMP2 =    -0.15263443358954D+03
 CCSD(T)
 CCSD(T)= -0.15266160783D+03

 The electronic state is 1-A'.
 Alpha  occ. eigenvalues --  -20.55988 -20.54513  -1.33269  -1.31814  -0.70675
 Alpha  occ. eigenvalues --   -0.69190  -0.56745  -0.55278  -0.50388  -0.48938
 Alpha virt. eigenvalues --    0.13047   0.15729   0.19861   0.22166   0.53932
 Alpha virt. eigenvalues --    0.54817   0.56911   0.58346   0.66546   0.71908
 Alpha virt. eigenvalues --    0.78493   0.79400   0.79921   0.80701   0.82531

 Mulliken charges:
               1
     1  O   -0.508799
     2  H    0.252065
     3  H    0.258690
     4  O   -0.512366
     5  H    0.248311
     6  H    0.262100
 Sum of Mulliken charges =  -0.00000

 Dipole moment (field-independent basis, Debye):
    X=             -1.9410    Y=             -1.9285    Z=              0.0000  Tot=              2.7362
 Quadrupole moment (field-independent basis, Debye-Ang):
   XX=             -9.8522   YY=             -0.8664   ZZ=            -14.7161
   XY=             -4.4036   XZ=              0.0000   YZ=              0.0000

 Normal termination of Gaussian 16 at Fri Aug 26 14:12:30 2022.
