 Gaussian 16, Revision A.03,
 Gaussian 16:  ES64L-G16RevA.03 25-Dec-2016

 ------------------
 #p CCSD(T)/cc-pVTZ
 ------------------

 ------------
 H2O_H2O_3575
 ------------
 Symbolic Z-matrix:
 Charge =  0 Multiplicity = 1

                         Standard orientation:
 ---------------------------------------------------------------------
 Center     Atomic      Atomic             Coordinates (Angstroms)
 Number     Number       Type             X           Y           Z
 ---------------------------------------------------------------------
      1          8           0        0.000000   -0.000000    2.704914
      2          1           0        0.000000    0.799571    3.276046
      3          1           0       -0.000000   -0.799571    3.276046
      4          8           0        0.000000   -0.000000   -2.704914
      5          1           0       -0.000000   -0.799571   -3.276046
      6          1           0        0.000000    0.799571   -3.276046
 ---------------------------------------------------------------------

 SCF Done:  E(RHF) =  -152.106422967     A.U. after   10 cycles
 E2 =    -0.5259821002D+00 EUMP2 =    -0.15263240506684D+03
 CCSD(T)
 CCSD(T)= -0.15265964516D+03

 The electronic state is 1-AG.
 Alpha  occ. eigenvalues --  -20.55022 -20.55022  -1.32316  -1.32316  -0.69725
 Alpha  occ. eigenvalues --   -0.69725  -0.55721  -0.55713  -0.49421  -0.49420
 Alpha virt. eigenvalues --    0.14479   0.14666   0.20564   0.20629   0.54811
 Alpha virt. eigenvalues --    0.54883   0.57665   0.57696   0.68139   0.68964
 Alpha virt. eigenvalues --    0.79452   0.79461   0.80887   0.80929   0.82786

 Mulliken charges:
               1
     1  O   -0.503065
     2  H    0.251532
     3  H    0.251532
     4  O   -0.503065
     5  H    0.251532
     6  H    0.251532
 Sum of Mulliken charges =  -0.00000

 Dipole moment (field-independent basis, Debye):
    X=             -0.0000    Y=              0.0000    Z=              0.0000  Tot=              0.0000
 Quadrupole moment (field-independent basis, Debye-Ang):
   XX=            -14.7101   YY=             -7.8097   ZZ=              9.5910
   XY=              0.0000   XZ=              0.0000   YZ=             -0.0000

 \MP4DQ=-152.6415281\MP4SDQ=-152.6445919\CCSD=-152.6440022\CCSD(T)=-152
 Normal termination of Gaussian 16 at Sat Aug 27 01:37:16 2022.
