 Gaussian 16, Revision A.03,
 Gaussian 16:  ES64L-G16RevA.03 25-Dec-2016

 ------------------
 #p CCSD(T)/cc-pVTZ
 ------------------

 ------------
 H2O_H2O_1849
 ------------
 Symbolic Z-matrix:
 Charge =  0 Multiplicity = 1

                         Standard orientation:
 ---------------------------------------------------------------------
 Center     Atomic      Atomic             Coordinates (Angstroms)
 Number     Number       Type             X           Y           Z
 ---------------------------------------------------------------------
      1          8           0        0.057272   -1.712336    0.000000
      2          1           0       -0.743883   -2.281244    0.000000
      3          1           0        0.855253   -2.285688    0.000000
      4          8           0        0.057272    1.826245    0.000000
      5          1           0       -0.511636    2.627401    0.000000
      6          1           0       -0.516080    1.028264    0.000000
 ---------------------------------------------------------------------

 SCF Done:  E(RHF) =  -152.109755117     A.U. after   10 cycles
 E2 =    -0.5265116132D+00 EUMP2 =    -0.15263626673048D+03
 CCSD(T)
 CCSD(T)= -0.15266338029D+03

 The electronic state is 1-A'.
 Alpha  occ. eigenvalues --  -20.56446 -20.53844  -1.33710  -1.31159  -0.71110
 Alpha  occ. eigenvalues --   -0.68539  -0.57215  -0.54645  -0.50836  -0.48295
 Alpha virt. eigenvalues --    0.12866   0.16665   0.19633   0.24656   0.52879
 Alpha virt. eigenvalues --    0.55935   0.56449   0.58051   0.67346   0.74480
 Alpha virt. eigenvalues --    0.77235   0.77827   0.79725   0.80837   0.84142

 Mulliken charges:
               1
     1  O   -0.500294
     2  H    0.249121
     3  H    0.259397
     4  O   -0.517276
     5  H    0.243717
     6  H    0.265334
 Sum of Mulliken charges =  -0.00000

 Dipole moment (field-independent basis, Debye):
    X=             -1.9163    Y=             -2.1590    Z=              0.0000  Tot=              2.8868
 Quadrupole moment (field-independent basis, Debye-Ang):
   XX=             -9.8600   YY=             -3.0626   ZZ=            -14.7221
   XY=             -3.7848   XZ=              0.0000   YZ=              0.0000

 Normal termination of Gaussian 16 at Sat Aug 27 07:09:35 2022.
