 Gaussian 16, Revision A.03,
 Gaussian 16:  ES64L-G16RevA.03 25-Dec-2016

 ------------------
 #p CCSD(T)/cc-pVTZ
 ------------------

 ------------
 H2O_H2O_3189
 ------------
 Symbolic Z-matrix:
 Charge =  0 Multiplicity = 1

                         Standard orientation:
 ---------------------------------------------------------------------
 Center     Atomic      Atomic             Coordinates (Angstroms)
 Number     Number       Type             X           Y           Z
 ---------------------------------------------------------------------
      1          8           0        0.045346   -2.467985    0.000000
      2          1           0       -0.755119   -3.037864    0.000000
      3          1           0        0.844021   -3.040369    0.000000
      4          8           0        0.045346    2.512533    0.000000
      5          1           0        0.080523    3.494504    0.000000
      6          1           0       -0.894960    2.227345    0.000000
 ---------------------------------------------------------------------

 SCF Done:  E(RHF) =  -152.106856157     A.U. after   10 cycles
 E2 =    -0.5259739318D+00 EUMP2 =    -0.15263283008837D+03
 CCSD(T)
 CCSD(T)= -0.15266005836D+03

 The electronic state is 1-A'.
 Alpha  occ. eigenvalues --  -20.55304 -20.54878  -1.32599  -1.32170  -0.70008
 Alpha  occ. eigenvalues --   -0.69567  -0.56019  -0.55591  -0.49706  -0.49280
 Alpha virt. eigenvalues --    0.14058   0.14967   0.20313   0.20908   0.54471
 Alpha virt. eigenvalues --    0.55000   0.57428   0.57832   0.67273   0.69820
 Alpha virt. eigenvalues --    0.79173   0.79591   0.80541   0.81059   0.82783

 Mulliken charges:
               1
     1  O   -0.505570
     2  H    0.250799
     3  H    0.254830
     4  O   -0.505132
     5  H    0.249379
     6  H    0.255694
 Sum of Mulliken charges =  -0.00000

 Dipole moment (field-independent basis, Debye):
    X=             -1.5499    Y=             -0.7878    Z=              0.0000  Tot=              1.7386
 Quadrupole moment (field-independent basis, Debye-Ang):
   XX=             -9.0992   YY=              5.2167   ZZ=            -14.7113
   XY=             -3.1073   XZ=              0.0000   YZ=              0.0000

 Normal termination of Gaussian 16 at Fri Aug 26 20:13:49 2022.
