 Gaussian 16, Revision A.03,
 Gaussian 16:  ES64L-G16RevA.03 25-Dec-2016

 ------------------
 #p CCSD(T)/cc-pVTZ
 ------------------

 ------------
 H2O_H2O_1500
 ------------
 Symbolic Z-matrix:
 Charge =  0 Multiplicity = 1

                         Standard orientation:
 ---------------------------------------------------------------------
 Center     Atomic      Atomic             Coordinates (Angstroms)
 Number     Number       Type             X           Y           Z
 ---------------------------------------------------------------------
      1          8           0        0.000000   -0.000000    1.601354
      2          1           0        0.000000    0.799571    2.172486
      3          1           0       -0.000000   -0.799571    2.172486
      4          8           0        0.000000   -0.000000   -1.601354
      5          1           0       -0.000000   -0.799571   -2.172486
      6          1           0        0.000000    0.799571   -2.172486
 ---------------------------------------------------------------------

 SCF Done:  E(RHF) =  -152.102637426     A.U. after   10 cycles
 E2 =    -0.5270398890D+00 EUMP2 =    -0.15262967731482D+03
 CCSD(T)
 CCSD(T)= -0.15265695774D+03

 The electronic state is 1-AG.
 Alpha  occ. eigenvalues --  -20.54030 -20.54030  -1.31385  -1.31253  -0.68804
 Alpha  occ. eigenvalues --   -0.68700  -0.55434  -0.53573  -0.48557  -0.48250
 Alpha virt. eigenvalues --    0.14343   0.16460   0.20585   0.21667   0.52334
 Alpha virt. eigenvalues --    0.58173   0.58571   0.59052   0.63156   0.76043
 Alpha virt. eigenvalues --    0.78333   0.78363   0.79619   0.82117   0.85918

 Mulliken charges:
               1
     1  O   -0.477192
     2  H    0.238596
     3  H    0.238596
     4  O   -0.477192
     5  H    0.238596
     6  H    0.238596
 Sum of Mulliken charges =   0.00000

 Dipole moment (field-independent basis, Debye):
    X=             -0.0000    Y=              0.0000    Z=              0.0000  Tot=              0.0000
 Quadrupole moment (field-independent basis, Debye-Ang):
   XX=            -14.7090   YY=             -7.8797   ZZ=              0.4694
   XY=              0.0000   XZ=              0.0000   YZ=             -0.0000

 9\MP4DQ=-152.638638\MP4SDQ=-152.6417687\CCSD=-152.6411522\CCSD(T)=-152
 Normal termination of Gaussian 16 at Sat Aug 27 05:08:05 2022.
