 Gaussian 16, Revision A.03,
 Gaussian 16:  ES64L-G16RevA.03 25-Dec-2016

 ------------------
 #p CCSD(T)/cc-pVTZ
 ------------------

 ----------
 H2O_H2O_91
 ----------
 Symbolic Z-matrix:
 Charge =  0 Multiplicity = 1

                         Standard orientation:
 ---------------------------------------------------------------------
 Center     Atomic      Atomic             Coordinates (Angstroms)
 Number     Number       Type             X           Y           Z
 ---------------------------------------------------------------------
      1          8           0        0.049605   -0.812733    0.000000
      2          1           0       -0.752847   -1.379810    0.000000
      3          1           0        0.846275   -1.387906    0.000000
      4          8           0        0.049605    0.869345    0.000000
      5          1           0       -0.040271    1.847828    0.000000
      6          1           0       -0.846843    0.466995    0.000000
 ---------------------------------------------------------------------

 SCF Done:  E(RHF) =  -151.952352618     A.U. after   12 cycles
 E2 =    -0.5475114464D+00 EUMP2 =    -0.15249986406451D+03
 CCSD(T)
 CCSD(T)= -0.15252515328D+03

 The electronic state is 1-A'.
 Alpha  occ. eigenvalues --  -20.53563 -20.50855  -1.38315  -1.26664  -0.75049
 Alpha  occ. eigenvalues --   -0.70593  -0.56494  -0.53574  -0.43546  -0.40096
 Alpha virt. eigenvalues --    0.13739   0.19026   0.19698   0.24306   0.51802
 Alpha virt. eigenvalues --    0.56300   0.59539   0.66126   0.73263   0.76937
 Alpha virt. eigenvalues --    0.80598   0.81375   0.83462   0.83942   0.88944

 Mulliken charges:
               1
     1  O   -0.336587
     2  H    0.156076
     3  H    0.199817
     4  O   -0.370712
     5  H    0.110941
     6  H    0.240465
 Sum of Mulliken charges =  -0.00000

 Dipole moment (field-independent basis, Debye):
    X=             -1.3066    Y=             -1.2949    Z=              0.0000  Tot=              1.8396
 Quadrupole moment (field-independent basis, Debye-Ang):
   XX=             -9.5455   YY=             -8.4683   ZZ=            -14.6205
   XY=             -0.8782   XZ=              0.0000   YZ=              0.0000

 Normal termination of Gaussian 16 at Fri Aug 26 12:40:09 2022.
