 Gaussian 16, Revision A.03,
 Gaussian 16:  ES64L-G16RevA.03 25-Dec-2016

 ------------------
 #p CCSD(T)/cc-pVTZ
 ------------------

 ------------
 H2O_H2O_3255
 ------------
 Symbolic Z-matrix:
 Charge =  0 Multiplicity = 1

                         Standard orientation:
 ---------------------------------------------------------------------
 Center     Atomic      Atomic             Coordinates (Angstroms)
 Number     Number       Type             X           Y           Z
 ---------------------------------------------------------------------
      1          8           0        0.018360   -2.528787    0.000000
      2          1           0       -0.781567   -3.099420    0.000000
      3          1           0        0.817575   -3.100418    0.000000
      4          8           0        0.018360    2.534827    0.000000
      5          1           0        0.592412    3.332303    0.000000
      6          1           0       -0.922184    2.819222    0.000000
 ---------------------------------------------------------------------

 SCF Done:  E(RHF) =  -152.106288933     A.U. after   10 cycles
 E2 =    -0.5260085831D+00 EUMP2 =    -0.15263229751640D+03
 CCSD(T)
 CCSD(T)= -0.15265953950D+03

 The electronic state is 1-A'.
 Alpha  occ. eigenvalues --  -20.54988 -20.54934  -1.32281  -1.32226  -0.69691
 Alpha  occ. eigenvalues --   -0.69634  -0.55677  -0.55618  -0.49385  -0.49330
 Alpha virt. eigenvalues --    0.14419   0.14820   0.20563   0.20719   0.54808
 Alpha virt. eigenvalues --    0.55009   0.57688   0.57774   0.67637   0.69630
 Alpha virt. eigenvalues --    0.79487   0.79549   0.80918   0.81035   0.82735

 Mulliken charges:
               1
     1  O   -0.502289
     2  H    0.250370
     3  H    0.251921
     4  O   -0.502185
     5  H    0.250061
     6  H    0.252121
 Sum of Mulliken charges =  -0.00000

 Dipole moment (field-independent basis, Debye):
    X=             -0.6276    Y=             -0.1064    Z=              0.0000  Tot=              0.6366
 Quadrupole moment (field-independent basis, Debye-Ang):
   XX=             -8.0243   YY=              7.8624   ZZ=            -14.7101
   XY=             -1.0615   XZ=              0.0000   YZ=              0.0000

 Normal termination of Gaussian 16 at Fri Aug 26 20:46:36 2022.
