 Gaussian 16, Revision A.03,
 Gaussian 16:  ES64L-G16RevA.03 25-Dec-2016

 ------------------
 #p CCSD(T)/cc-pVTZ
 ------------------

 ------------
 H2O_H2O_3294
 ------------
 Symbolic Z-matrix:
 Charge =  0 Multiplicity = 1

                         Standard orientation:
 ---------------------------------------------------------------------
 Center     Atomic      Atomic             Coordinates (Angstroms)
 Number     Number       Type             X           Y           Z
 ---------------------------------------------------------------------
      1          8           0        0.054153   -2.503376    0.000000
      2          1           0       -0.746463   -3.073042    0.000000
      3          1           0        0.852677   -3.075971    0.000000
      4          8           0        0.054153    2.580687    0.000000
      5          1           0       -0.227933    3.521927    0.000000
      6          1           0       -0.744732    2.008595    0.000000
 ---------------------------------------------------------------------

 SCF Done:  E(RHF) =  -152.107428058     A.U. after   10 cycles
 E2 =    -0.5259283028D+00 EUMP2 =    -0.15263335636127D+03
 CCSD(T)
 CCSD(T)= -0.15266057126D+03

 The electronic state is 1-A'.
 Alpha  occ. eigenvalues --  -20.55594 -20.54874  -1.32891  -1.32170  -0.70297
 Alpha  occ. eigenvalues --   -0.69561  -0.56337  -0.55612  -0.50002  -0.49284
 Alpha virt. eigenvalues --    0.13775   0.15011   0.20117   0.21033   0.54205
 Alpha virt. eigenvalues --    0.54935   0.57188   0.57835   0.67149   0.69559
 Alpha virt. eigenvalues --    0.78882   0.79581   0.80192   0.80708   0.82749

 Mulliken charges:
               1
     1  O   -0.508740
     2  H    0.252216
     3  H    0.256666
     4  O   -0.508315
     5  H    0.250010
     6  H    0.258162
 Sum of Mulliken charges =   0.00000

 Dipole moment (field-independent basis, Debye):
    X=             -1.8527    Y=             -1.3680    Z=              0.0000  Tot=              2.3030
 Quadrupole moment (field-independent basis, Debye-Ang):
   XX=             -9.6477   YY=              3.1520   ZZ=            -14.7126
   XY=             -4.3634   XZ=              0.0000   YZ=              0.0000

 Normal termination of Gaussian 16 at Fri Aug 26 21:07:50 2022.
