 Gaussian 16, Revision A.03,
 Gaussian 16:  ES64L-G16RevA.03 25-Dec-2016

 ------------------
 #p CCSD(T)/cc-pVTZ
 ------------------

 ------------
 H2O_H2O_3291
 ------------
 Symbolic Z-matrix:
 Charge =  0 Multiplicity = 1

                         Standard orientation:
 ---------------------------------------------------------------------
 Center     Atomic      Atomic             Coordinates (Angstroms)
 Number     Number       Type             X           Y           Z
 ---------------------------------------------------------------------
      1          8           0        0.049509   -2.514434    0.000000
      2          1           0       -0.751017   -3.084227    0.000000
      3          1           0        0.848123   -3.086904    0.000000
      4          8           0        0.049509    2.571382    0.000000
      5          1           0       -0.043682    3.549555    0.000000
      6          1           0       -0.845571    2.165997    0.000000
 ---------------------------------------------------------------------

 SCF Done:  E(RHF) =  -152.107088888     A.U. after   10 cycles
 E2 =    -0.5259497996D+00 EUMP2 =    -0.15263303868770D+03
 CCSD(T)
 CCSD(T)= -0.15266026211D+03

 The electronic state is 1-A'.
 Alpha  occ. eigenvalues --  -20.55421 -20.54897  -1.32717  -1.32190  -0.70125
 Alpha  occ. eigenvalues --   -0.69585  -0.56148  -0.55621  -0.49826  -0.49302
 Alpha virt. eigenvalues --    0.13977   0.14942   0.20238   0.20925   0.54376
 Alpha virt. eigenvalues --    0.54963   0.57331   0.57821   0.67340   0.69534
 Alpha virt. eigenvalues --    0.79055   0.79567   0.80421   0.80928   0.82728

 Mulliken charges:
               1
     1  O   -0.506923
     2  H    0.251429
     3  H    0.255563
     4  O   -0.506479
     5  H    0.249761
     6  H    0.256649
 Sum of Mulliken charges =  -0.00000

 Dipole moment (field-independent basis, Debye):
    X=             -1.6935    Y=             -1.0062    Z=              0.0000  Tot=              1.9699
 Quadrupole moment (field-independent basis, Debye-Ang):
   XX=             -9.3460   YY=              4.6897   ZZ=            -14.7118
   XY=             -3.6738   XZ=              0.0000   YZ=              0.0000

 Normal termination of Gaussian 16 at Fri Aug 26 21:06:19 2022.
