 Gaussian 16, Revision A.03,
 Gaussian 16:  ES64L-G16RevA.03 25-Dec-2016

 ------------------
 #p CCSD(T)/cc-pVTZ
 ------------------

 ------------
 H2O_H2O_4224
 ------------
 Symbolic Z-matrix:
 Charge =  0 Multiplicity = 1

                         Standard orientation:
 ---------------------------------------------------------------------
 Center     Atomic      Atomic             Coordinates (Angstroms)
 Number     Number       Type             X           Y           Z
 ---------------------------------------------------------------------
      1          8           0        0.057206   -2.975379    0.000000
      2          1           0       -0.743290   -3.545213    0.000000
      3          1           0        0.855850   -3.547806    0.000000
      4          8           0        0.057206    3.089419    0.000000
      5          1           0       -0.512629    3.889916    0.000000
      6          1           0       -0.515222    2.290776    0.000000
 ---------------------------------------------------------------------

 SCF Done:  E(RHF) =  -152.107751524     A.U. after   10 cycles
 E2 =    -0.5258544001D+00 EUMP2 =    -0.15263360592459D+03
 CCSD(T)
 CCSD(T)= -0.15266081833D+03

 The electronic state is 1-A'.
 Alpha  occ. eigenvalues --  -20.55800 -20.55085  -1.33100  -1.32386  -0.70506
 Alpha  occ. eigenvalues --   -0.69783  -0.56564  -0.55841  -0.50214  -0.49502
 Alpha virt. eigenvalues --    0.13856   0.14647   0.19994   0.20772   0.54049
 Alpha virt. eigenvalues --    0.54781   0.56999   0.57706   0.67505   0.68430
 Alpha virt. eigenvalues --    0.78667   0.79366   0.80089   0.80754   0.82159

 Mulliken charges:
               1
     1  O   -0.510930
     2  H    0.254162
     3  H    0.256779
     4  O   -0.510449
     5  H    0.252261
     6  H    0.258179
 Sum of Mulliken charges =  -0.00000

 Dipole moment (field-independent basis, Debye):
    X=             -1.9652    Y=             -1.9968    Z=              0.0000  Tot=              2.8017
 Quadrupole moment (field-independent basis, Debye-Ang):
   XX=             -9.8642   YY=              2.0143   ZZ=            -14.7129
   XY=             -6.2241   XZ=              0.0000   YZ=              0.0000

 Normal termination of Gaussian 16 at Sat Aug 27 06:07:09 2022.
