 Gaussian 16, Revision A.03,
 Gaussian 16:  ES64L-G16RevA.03 25-Dec-2016

 ------------------
 #p CCSD(T)/cc-pVTZ
 ------------------

 ------------
 H2O_H2O_4419
 ------------
 Symbolic Z-matrix:
 Charge =  0 Multiplicity = 1

                         Standard orientation:
 ---------------------------------------------------------------------
 Center     Atomic      Atomic             Coordinates (Angstroms)
 Number     Number       Type             X           Y           Z
 ---------------------------------------------------------------------
      1          8           0        0.054140   -3.101672    0.000000
      2          1           0       -0.746277   -3.671618    0.000000
      3          1           0        0.852863   -3.673989    0.000000
      4          8           0        0.054140    3.179021    0.000000
      5          1           0       -0.228274    4.120163    0.000000
      6          1           0       -0.744546    2.606650    0.000000
 ---------------------------------------------------------------------

 SCF Done:  E(RHF) =  -152.107425167     A.U. after   10 cycles
 E2 =    -0.5258792938D+00 EUMP2 =    -0.15263330446116D+03
 CCSD(T)
 CCSD(T)= -0.15266052408D+03

 The electronic state is 1-A'.
 Alpha  occ. eigenvalues --  -20.55600 -20.55146  -1.32899  -1.32444  -0.70305
 Alpha  occ. eigenvalues --   -0.69843  -0.56347  -0.55889  -0.50011  -0.49557
 Alpha virt. eigenvalues --    0.14065   0.14540   0.20151   0.20639   0.54255
 Alpha virt. eigenvalues --    0.54731   0.57176   0.57631   0.67816   0.68331
 Alpha virt. eigenvalues --    0.78869   0.79316   0.80299   0.80778   0.82237

 Mulliken charges:
               1
     1  O   -0.508997
     2  H    0.253295
     3  H    0.255702
     4  O   -0.508714
     5  H    0.252088
     6  H    0.256625
 Sum of Mulliken charges =  -0.00000

 Dipole moment (field-independent basis, Debye):
    X=             -1.8607    Y=             -1.3519    Z=              0.0000  Tot=              2.3000
 Quadrupole moment (field-independent basis, Debye-Ang):
   XX=             -9.6487   YY=              6.3213   ZZ=            -14.7121
   XY=             -5.4655   XZ=              0.0000   YZ=              0.0000

 Normal termination of Gaussian 16 at Sat Aug 27 07:13:02 2022.
