 Gaussian 16, Revision A.03,
 Gaussian 16:  ES64L-G16RevA.03 25-Dec-2016

 ------------------
 #p CCSD(T)/cc-pVTZ
 ------------------

 ------------
 H2O_H2O_4084
 ------------
 Symbolic Z-matrix:
 Charge =  0 Multiplicity = 1

                         Standard orientation:
 ---------------------------------------------------------------------
 Center     Atomic      Atomic             Coordinates (Angstroms)
 Number     Number       Type             X           Y           Z
 ---------------------------------------------------------------------
      1          8           0        0.031739   -2.960409    0.000000
      2          1           0       -0.768357   -3.530805    0.000000
      3          1           0        0.830785   -3.532276    0.000000
      4          8           0        0.031739    2.979601    0.000000
      5          1           0        0.380099    3.898378    0.000000
      6          1           0       -0.950355    3.011165    0.000000
 ---------------------------------------------------------------------

 SCF Done:  E(RHF) =  -152.106856573     A.U. after   10 cycles
 E2 =    -0.5259332087D+00 EUMP2 =    -0.15263278978214D+03
 CCSD(T)
 CCSD(T)= -0.15266002130D+03

 The electronic state is 1-A'.
 Alpha  occ. eigenvalues --  -20.55244 -20.55118  -1.32540  -1.32413  -0.69947
 Alpha  occ. eigenvalues --   -0.69818  -0.55962  -0.55835  -0.49647  -0.49521
 Alpha virt. eigenvalues --    0.14369   0.14530   0.20429   0.20569   0.54619
 Alpha virt. eigenvalues --    0.54760   0.57490   0.57618   0.68211   0.68460
 Alpha virt. eigenvalues --    0.79231   0.79356   0.80674   0.80812   0.82605

 Mulliken charges:
               1
     1  O   -0.505626
     2  H    0.251955
     3  H    0.253671
     4  O   -0.505494
     5  H    0.251484
     6  H    0.254010
 Sum of Mulliken charges =  -0.00000

 Dipole moment (field-independent basis, Debye):
    X=             -1.0894    Y=             -0.3357    Z=              0.0000  Tot=              1.1400
 Quadrupole moment (field-independent basis, Debye-Ang):
   XX=             -8.4381   YY=             10.3362   ZZ=            -14.7108
   XY=             -2.4379   XZ=              0.0000   YZ=              0.0000

 Normal termination of Gaussian 16 at Sat Aug 27 05:17:44 2022.
