 Gaussian 16, Revision A.03,
 Gaussian 16:  ES64L-G16RevA.03 25-Dec-2016

 ------------------
 #p CCSD(T)/cc-pVTZ
 ------------------

 ------------
 H2O_H2O_3889
 ------------
 Symbolic Z-matrix:
 Charge =  0 Multiplicity = 1

                         Standard orientation:
 ---------------------------------------------------------------------
 Center     Atomic      Atomic             Coordinates (Angstroms)
 Number     Number       Type             X           Y           Z
 ---------------------------------------------------------------------
      1          8           0        0.045341   -2.840261    0.000000
      2          1           0       -0.755007   -3.410303    0.000000
      3          1           0        0.844133   -3.412482    0.000000
      4          8           0        0.045341    2.884827    0.000000
      5          1           0        0.080318    3.866806    0.000000
      6          1           0       -0.894906    2.599449    0.000000
 ---------------------------------------------------------------------

 SCF Done:  E(RHF) =  -152.107055382     A.U. after   10 cycles
 E2 =    -0.5259219459D+00 EUMP2 =    -0.15263297732765D+03
 CCSD(T)
 CCSD(T)= -0.15266020419D+03

 The electronic state is 1-A'.
 Alpha  occ. eigenvalues --  -20.55380 -20.55063  -1.32677  -1.32358  -0.70084
 Alpha  occ. eigenvalues --   -0.69758  -0.56108  -0.55789  -0.49786  -0.49468
 Alpha virt. eigenvalues --    0.14219   0.14623   0.20312   0.20672   0.54474
 Alpha virt. eigenvalues --    0.54824   0.57367   0.57687   0.67977   0.68571
 Alpha virt. eigenvalues --    0.79093   0.79406   0.80529   0.80863   0.82487

 Mulliken charges:
               1
     1  O   -0.506821
     2  H    0.252056
     3  H    0.254768
     4  O   -0.506539
     5  H    0.251074
     6  H    0.255463
 Sum of Mulliken charges =  -0.00000

 Dipole moment (field-independent basis, Debye):
    X=             -1.5555    Y=             -0.7814    Z=              0.0000  Tot=              1.7407
 Quadrupole moment (field-independent basis, Debye-Ang):
   XX=             -9.0974   YY=              7.6293   ZZ=            -14.7114
   XY=             -3.6796   XZ=              0.0000   YZ=              0.0000

 Normal termination of Gaussian 16 at Sat Aug 27 04:05:28 2022.
