 Gaussian 16, Revision A.03,
 Gaussian 16:  ES64L-G16RevA.03 25-Dec-2016

 ------------------
 #p CCSD(T)/cc-pVTZ
 ------------------

 ------------
 H2O_H2O_2282
 ------------
 Symbolic Z-matrix:
 Charge =  0 Multiplicity = 1

                         Standard orientation:
 ---------------------------------------------------------------------
 Center     Atomic      Atomic             Coordinates (Angstroms)
 Number     Number       Type             X           Y           Z
 ---------------------------------------------------------------------
      1          8           0        0.025267   -2.007158    0.000000
      2          1           0       -0.774921   -2.577426    0.000000
      3          1           0        0.824220   -2.579153    0.000000
      4          8           0        0.025267    2.018883    0.000000
      5          1           0        0.490710    2.884256    0.000000
      6          1           0       -0.944280    2.178523    0.000000
 ---------------------------------------------------------------------

 SCF Done:  E(RHF) =  -152.105472249     A.U. after   10 cycles
 E2 =    -0.5262631073D+00 EUMP2 =    -0.15263173535627D+03
 CCSD(T)
 CCSD(T)= -0.15265897670D+03

 The electronic state is 1-A'.
 Alpha  occ. eigenvalues --  -20.54730 -20.54556  -1.32014  -1.31837  -0.69430
 Alpha  occ. eigenvalues --   -0.69245  -0.55444  -0.55083  -0.49116  -0.48935
 Alpha virt. eigenvalues --    0.14084   0.15622   0.20537   0.21183   0.54090
 Alpha virt. eigenvalues --    0.55802   0.57845   0.58128   0.63190   0.74509
 Alpha virt. eigenvalues --    0.79469   0.80207   0.80571   0.81177   0.82362

 Mulliken charges:
               1
     1  O   -0.496040
     2  H    0.246129
     3  H    0.250069
     4  O   -0.495803
     5  H    0.245339
     6  H    0.250307
 Sum of Mulliken charges =  -0.00000

 Dipole moment (field-independent basis, Debye):
    X=             -0.8542    Y=             -0.2123    Z=              0.0000  Tot=              0.8801
 Quadrupole moment (field-independent basis, Debye-Ang):
   XX=             -8.2299   YY=              3.5310   ZZ=            -14.7100
   XY=             -1.0657   XZ=              0.0000   YZ=              0.0000

 Normal termination of Gaussian 16 at Sat Aug 27 09:38:15 2022.
