 Gaussian 16, Revision A.03,
 Gaussian 16:  ES64L-G16RevA.03 25-Dec-2016

 ------------------
 #p CCSD(T)/cc-pVTZ
 ------------------

 ------------
 H2O_H2O_2648
 ------------
 Symbolic Z-matrix:
 Charge =  0 Multiplicity = 1

                         Standard orientation:
 ---------------------------------------------------------------------
 Center     Atomic      Atomic             Coordinates (Angstroms)
 Number     Number       Type             X           Y           Z
 ---------------------------------------------------------------------
      1          8           0        0.057110   -2.141830    0.000000
      2          1           0       -0.743735   -2.711173    0.000000
      3          1           0        0.855403   -2.714747    0.000000
      4          8           0        0.057110    2.248330    0.000000
      5          1           0       -0.458637    3.084698    0.000000
      6          1           0       -0.566792    1.489217    0.000000
 ---------------------------------------------------------------------

 SCF Done:  E(RHF) =  -152.108353719     A.U. after   10 cycles
 E2 =    -0.5260183654D+00 EUMP2 =    -0.15263437208397D+03
 CCSD(T)
 CCSD(T)= -0.15266154893D+03

 The electronic state is 1-A'.
 Alpha  occ. eigenvalues --  -20.55973 -20.54542  -1.33256  -1.31843  -0.70662
 Alpha  occ. eigenvalues --   -0.69220  -0.56731  -0.55306  -0.50375  -0.48967
 Alpha virt. eigenvalues --    0.13069   0.15678   0.19869   0.22063   0.53930
 Alpha virt. eigenvalues --    0.54814   0.56921   0.58294   0.66558   0.71692
 Alpha virt. eigenvalues --    0.78511   0.79416   0.79890   0.80611   0.82593

 Mulliken charges:
               1
     1  O   -0.509147
     2  H    0.252232
     3  H    0.258672
     4  O   -0.512206
     5  H    0.248521
     6  H    0.261927
 Sum of Mulliken charges =  -0.00000

 Dipole moment (field-independent basis, Debye):
    X=             -1.9422    Y=             -1.9247    Z=              0.0000  Tot=              2.7344
 Quadrupole moment (field-independent basis, Debye-Ang):
   XX=             -9.8523   YY=             -0.7527   ZZ=            -14.7159
   XY=             -4.4546   XZ=              0.0000   YZ=              0.0000

 Normal termination of Gaussian 16 at Fri Aug 26 14:42:52 2022.
