 Gaussian 16, Revision A.03,
 Gaussian 16:  ES64L-G16RevA.03 25-Dec-2016

 ------------------
 #p CCSD(T)/cc-pVTZ
 ------------------

 ------------
 H2O_H2O_2091
 ------------
 Symbolic Z-matrix:
 Charge =  0 Multiplicity = 1

                         Standard orientation:
 ---------------------------------------------------------------------
 Center     Atomic      Atomic             Coordinates (Angstroms)
 Number     Number       Type             X           Y           Z
 ---------------------------------------------------------------------
      1          8           0        0.049525   -1.876260    0.000000
      2          1           0       -0.751321   -2.445603    0.000000
      3          1           0        0.847817   -2.449178    0.000000
      4          8           0        0.049525    1.933152    0.000000
      5          1           0       -0.043117    2.911376    0.000000
      6          1           0       -0.845782    1.528269    0.000000
 ---------------------------------------------------------------------

 SCF Done:  E(RHF) =  -152.106812765     A.U. after   10 cycles
 E2 =    -0.5263236221D+00 EUMP2 =    -0.15263313638694D+03
 CCSD(T)
 CCSD(T)= -0.15266033332D+03

 The electronic state is 1-A'.
 Alpha  occ. eigenvalues --  -20.55346 -20.54336  -1.32624  -1.31613  -0.70039
 Alpha  occ. eigenvalues --   -0.68992  -0.56029  -0.55001  -0.49733  -0.48729
 Alpha virt. eigenvalues --    0.13492   0.16030   0.20144   0.22056   0.53685
 Alpha virt. eigenvalues --    0.54715   0.57421   0.58453   0.64588   0.75673
 Alpha virt. eigenvalues --    0.78834   0.79110   0.80408   0.80934   0.84567

 Mulliken charges:
               1
     1  O   -0.498981
     2  H    0.246056
     3  H    0.254694
     4  O   -0.501939
     5  H    0.243293
     6  H    0.256877
 Sum of Mulliken charges =  -0.00000

 Dipole moment (field-independent basis, Debye):
    X=             -1.6659    Y=             -1.0453    Z=              0.0000  Tot=              1.9667
 Quadrupole moment (field-independent basis, Debye-Ang):
   XX=             -9.3546   YY=              0.7975   ZZ=            -14.7137
   XY=             -2.6103   XZ=              0.0000   YZ=              0.0000

 Normal termination of Gaussian 16 at Sat Aug 27 08:32:06 2022.
