 Gaussian 16, Revision A.03,
 Gaussian 16:  ES64L-G16RevA.03 25-Dec-2016

 ------------------
 #p CCSD(T)/cc-pVTZ
 ------------------

 ------------
 H2O_H2O_1577
 ------------
 Symbolic Z-matrix:
 Charge =  0 Multiplicity = 1

                         Standard orientation:
 ---------------------------------------------------------------------
 Center     Atomic      Atomic             Coordinates (Angstroms)
 Number     Number       Type             X           Y           Z
 ---------------------------------------------------------------------
      1          8           0        0.007455   -1.640713    0.000000
      2          1           0       -0.792339   -2.211533    0.000000
      3          1           0        0.806803   -2.212158    0.000000
      4          8           0        0.007455    1.641685    0.000000
      5          1           0        0.725900    2.312015    0.000000
      6          1           0       -0.859643    2.103905    0.000000
 ---------------------------------------------------------------------

 SCF Done:  E(RHF) =  -152.103117129     A.U. after   10 cycles
 E2 =    -0.5269243847D+00 EUMP2 =    -0.15263004151350D+03
 CCSD(T)
 CCSD(T)= -0.15265731331D+03

 The electronic state is 1-A'.
 Alpha  occ. eigenvalues --  -20.54122 -20.54101  -1.31450  -1.31341  -0.68870
 Alpha  occ. eigenvalues --   -0.68781  -0.55392  -0.53807  -0.48612  -0.48353
 Alpha virt. eigenvalues --    0.14303   0.16363   0.20584   0.21610   0.52626
 Alpha virt. eigenvalues --    0.58129   0.58442   0.58616   0.62480   0.76095
 Alpha virt. eigenvalues --    0.78527   0.78628   0.79783   0.81872   0.85321

 Mulliken charges:
               1
     1  O   -0.479498
     2  H    0.238786
     3  H    0.240752
     4  O   -0.479411
     5  H    0.238711
     6  H    0.240659
 Sum of Mulliken charges =   0.00000

 Dipole moment (field-independent basis, Debye):
    X=             -0.2472    Y=             -0.0182    Z=              0.0000  Tot=              0.2478
 Quadrupole moment (field-independent basis, Debye-Ang):
   XX=             -7.9072   YY=              0.7993   ZZ=            -14.7089
   XY=             -0.1980   XZ=              0.0000   YZ=              0.0000

 Normal termination of Gaussian 16 at Sat Aug 27 05:34:18 2022.
