 Gaussian 16, Revision A.03,
 Gaussian 16:  ES64L-G16RevA.03 25-Dec-2016

 ------------------
 #p CCSD(T)/cc-pVTZ
 ------------------

 ------------
 H2O_H2O_3311
 ------------
 Symbolic Z-matrix:
 Charge =  0 Multiplicity = 1

                         Standard orientation:
 ---------------------------------------------------------------------
 Center     Atomic      Atomic             Coordinates (Angstroms)
 Number     Number       Type             X           Y           Z
 ---------------------------------------------------------------------
      1          8           0        0.037675   -2.543315    0.000000
      2          1           0       -0.762619   -3.113434    0.000000
      3          1           0        0.836522   -3.115460    0.000000
      4          8           0        0.037675    2.571567    0.000000
      5          1           0        0.263464    3.527874    0.000000
      6          1           0       -0.940172    2.475011    0.000000
 ---------------------------------------------------------------------

 SCF Done:  E(RHF) =  -152.106648522     A.U. after   10 cycles
 E2 =    -0.5259786513D+00 EUMP2 =    -0.15263262717360D+03
 CCSD(T)
 CCSD(T)= -0.15265986127D+03

 The electronic state is 1-A'.
 Alpha  occ. eigenvalues --  -20.55183 -20.54931  -1.32478  -1.32223  -0.69887
 Alpha  occ. eigenvalues --   -0.69625  -0.55889  -0.55635  -0.49584  -0.49331
 Alpha virt. eigenvalues --    0.14251   0.14839   0.20420   0.20782   0.54628
 Alpha virt. eigenvalues --    0.54977   0.57529   0.57787   0.67608   0.69445
 Alpha virt. eigenvalues --    0.79293   0.79543   0.80713   0.81029   0.82731

 Mulliken charges:
               1
     1  O   -0.504419
     2  H    0.250662
     3  H    0.253773
     4  O   -0.504078
     5  H    0.249748
     6  H    0.254315
 Sum of Mulliken charges =  -0.00000

 Dipole moment (field-independent basis, Debye):
    X=             -1.2886    Y=             -0.4981    Z=              0.0000  Tot=              1.3815
 Quadrupole moment (field-independent basis, Debye-Ang):
   XX=             -8.7003   YY=              6.7308   ZZ=            -14.7108
   XY=             -2.4741   XZ=              0.0000   YZ=              0.0000

 Normal termination of Gaussian 16 at Fri Aug 26 21:16:11 2022.
