 Gaussian 16, Revision A.03,
 Gaussian 16:  ES64L-G16RevA.03 25-Dec-2016

 ------------------
 #p CCSD(T)/cc-pVTZ
 ------------------

 ------------
 H2O_H2O_1821
 ------------
 Symbolic Z-matrix:
 Charge =  0 Multiplicity = 1

                         Standard orientation:
 ---------------------------------------------------------------------
 Center     Atomic      Atomic             Coordinates (Angstroms)
 Number     Number       Type             X           Y           Z
 ---------------------------------------------------------------------
      1          8           0        0.056142   -1.711137    0.000000
      2          1           0       -0.744994   -2.280072    0.000000
      3          1           0        0.854142   -2.284461    0.000000
      4          8           0        0.056142    1.802771    0.000000
      5          1           0       -0.345568    2.699507    0.000000
      6          1           0       -0.661849    1.131954    0.000000
 ---------------------------------------------------------------------

 SCF Done:  E(RHF) =  -152.108471361     A.U. after   10 cycles
 E2 =    -0.5265395451D+00 EUMP2 =    -0.15263501090659D+03
 CCSD(T)
 CCSD(T)= -0.15266215334D+03

 The electronic state is 1-A'.
 Alpha  occ. eigenvalues --  -20.56009 -20.53952  -1.33279  -1.31243  -0.70688
 Alpha  occ. eigenvalues --   -0.68615  -0.56721  -0.54703  -0.50398  -0.48373
 Alpha virt. eigenvalues --    0.13133   0.16546   0.19812   0.23689   0.53532
 Alpha virt. eigenvalues --    0.55157   0.56829   0.58331   0.66066   0.75241
 Alpha virt. eigenvalues --    0.77715   0.78003   0.79080   0.80899   0.84474

 Mulliken charges:
               1
     1  O   -0.497774
     2  H    0.246397
     3  H    0.257314
     4  O   -0.510034
     5  H    0.241993
     6  H    0.262104
 Sum of Mulliken charges =  -0.00000

 Dipole moment (field-independent basis, Debye):
    X=             -1.8741    Y=             -1.7274    Z=              0.0000  Tot=              2.5487
 Quadrupole moment (field-independent basis, Debye-Ang):
   XX=             -9.7849   YY=             -1.8245   ZZ=            -14.7192
   XY=             -3.2964   XZ=              0.0000   YZ=              0.0000

 Normal termination of Gaussian 16 at Sat Aug 27 06:58:40 2022.
