 Gaussian 16, Revision A.03,
 Gaussian 16:  ES64L-G16RevA.03 25-Dec-2016

 ------------------
 #p CCSD(T)/cc-pVTZ
 ------------------

 ------------
 H2O_H2O_3267
 ------------
 Symbolic Z-matrix:
 Charge =  0 Multiplicity = 1

                         Standard orientation:
 ---------------------------------------------------------------------
 Center     Atomic      Atomic             Coordinates (Angstroms)
 Number     Number       Type             X           Y           Z
 ---------------------------------------------------------------------
      1          8           0        0.051279   -2.497566    0.000000
      2          1           0       -0.749287   -3.067303    0.000000
      3          1           0        0.849853   -3.070091    0.000000
      4          8           0        0.051279    2.561092    0.000000
      5          1           0       -0.105621    3.531086    0.000000
      6          1           0       -0.815404    2.098094    0.000000
 ---------------------------------------------------------------------

 SCF Done:  E(RHF) =  -152.107194313     A.U. after   10 cycles
 E2 =    -0.5259451774D+00 EUMP2 =    -0.15263313948991D+03
 CCSD(T)
 CCSD(T)= -0.15266036006D+03

 The electronic state is 1-A'.
 Alpha  occ. eigenvalues --  -20.55476 -20.54882  -1.32772  -1.32175  -0.70180
 Alpha  occ. eigenvalues --   -0.69569  -0.56208  -0.55610  -0.49882  -0.49288
 Alpha virt. eigenvalues --    0.13900   0.14981   0.20197   0.20972   0.54316
 Alpha virt. eigenvalues --    0.54958   0.57286   0.57831   0.67245   0.69614
 Alpha virt. eigenvalues --    0.79000   0.79579   0.80340   0.80874   0.82745

 Mulliken charges:
               1
     1  O   -0.507477
     2  H    0.251623
     3  H    0.255952
     4  O   -0.507038
     5  H    0.249757
     6  H    0.257183
 Sum of Mulliken charges =  -0.00000

 Dipole moment (field-independent basis, Debye):
    X=             -1.7539    Y=             -1.1235    Z=              0.0000  Tot=              2.0829
 Quadrupole moment (field-independent basis, Debye-Ang):
   XX=             -9.4577   YY=              4.1298   ZZ=            -14.7120
   XY=             -3.8876   XZ=              0.0000   YZ=              0.0000

 Normal termination of Gaussian 16 at Fri Aug 26 20:52:25 2022.
