 Gaussian 16, Revision A.03,
 Gaussian 16:  ES64L-G16RevA.03 25-Dec-2016

 ------------------
 #p CCSD(T)/cc-pVTZ
 ------------------

 ------------
 H2O_H2O_1451
 ------------
 Symbolic Z-matrix:
 Charge =  0 Multiplicity = 1

                         Standard orientation:
 ---------------------------------------------------------------------
 Center     Atomic      Atomic             Coordinates (Angstroms)
 Number     Number       Type             X           Y           Z
 ---------------------------------------------------------------------
      1          8           0        0.003735   -1.574630    0.000000
      2          1           0       -0.795952   -2.145598    0.000000
      3          1           0        0.803190   -2.145925    0.000000
      4          8           0        0.003735    1.574873    0.000000
      5          1           0        0.764368    2.196921    0.000000
      6          1           0       -0.831372    2.092658    0.000000
 ---------------------------------------------------------------------

 SCF Done:  E(RHF) =  -152.102327177     A.U. after   10 cycles
 E2 =    -0.5271240372D+00 EUMP2 =    -0.15262945121421D+03
 CCSD(T)
 CCSD(T)= -0.15265673633D+03

 The electronic state is 1-A'.
 Alpha  occ. eigenvalues --  -20.53983 -20.53978  -1.31351  -1.31198  -0.68767
 Alpha  occ. eigenvalues --   -0.68648  -0.55476  -0.53418  -0.48530  -0.48183
 Alpha virt. eigenvalues --    0.14356   0.16528   0.20579   0.21716   0.52146
 Alpha virt. eigenvalues --    0.58212   0.58594   0.59288   0.63842   0.76089
 Alpha virt. eigenvalues --    0.78186   0.78211   0.79514   0.82277   0.86045

 Mulliken charges:
               1
     1  O   -0.475859
     2  H    0.237376
     3  H    0.238491
     4  O   -0.475807
     5  H    0.237399
     6  H    0.238400
 Sum of Mulliken charges =  -0.00000

 Dipole moment (field-independent basis, Debye):
    X=             -0.1231    Y=             -0.0046    Z=              0.0000  Tot=              0.1232
 Quadrupole moment (field-independent basis, Debye-Ang):
   XX=             -7.8930   YY=              0.2287   ZZ=            -14.7093
   XY=             -0.0903   XZ=              0.0000   YZ=              0.0000

 Normal termination of Gaussian 16 at Sat Aug 27 04:50:21 2022.
