 Gaussian 16, Revision A.03,
 Gaussian 16:  ES64L-G16RevA.03 25-Dec-2016

 ------------------
 #p CCSD(T)/cc-pVTZ
 ------------------

 ------------
 H2O_H2O_4228
 ------------
 Symbolic Z-matrix:
 Charge =  0 Multiplicity = 1

                         Standard orientation:
 ---------------------------------------------------------------------
 Center     Atomic      Atomic             Coordinates (Angstroms)
 Number     Number       Type             X           Y           Z
 ---------------------------------------------------------------------
      1          8           0        0.011143   -3.049419    0.000000
      2          1           0       -0.788608   -3.620300    0.000000
      3          1           0        0.810534   -3.620803    0.000000
      4          8           0        0.011143    3.051607    0.000000
      5          1           0        0.684153    3.767542    0.000000
      6          1           0       -0.884360    3.456059    0.000000
 ---------------------------------------------------------------------

 SCF Done:  E(RHF) =  -152.106758357     A.U. after   10 cycles
 E2 =    -0.5259383451D+00 EUMP2 =    -0.15263269670176D+03
 CCSD(T)
 CCSD(T)= -0.15265993051D+03

 The electronic state is 1-A'.
 Alpha  occ. eigenvalues --  -20.55166 -20.55153  -1.32462  -1.32448  -0.69869
 Alpha  occ. eigenvalues --   -0.69855  -0.55879  -0.55866  -0.49569  -0.49555
 Alpha virt. eigenvalues --    0.14440   0.14487   0.20493   0.20517   0.54698
 Alpha virt. eigenvalues --    0.54717   0.57560   0.57577   0.68313   0.68424
 Alpha virt. eigenvalues --    0.79310   0.79323   0.80755   0.80770   0.82685

 Mulliken charges:
               1
     1  O   -0.505034
     2  H    0.252238
     3  H    0.252796
     4  O   -0.505018
     5  H    0.252121
     6  H    0.252897
 Sum of Mulliken charges =  -0.00000

 Dipole moment (field-independent basis, Debye):
    X=             -0.3826    Y=             -0.0382    Z=              0.0000  Tot=              0.3845
 Quadrupole moment (field-independent basis, Debye-Ang):
   XX=             -7.8823   YY=             12.2104   ZZ=            -14.7106
   XY=             -0.8266   XZ=              0.0000   YZ=              0.0000

 Normal termination of Gaussian 16 at Sat Aug 27 06:08:28 2022.
