 Gaussian 16, Revision A.03,
 Gaussian 16:  ES64L-G16RevA.03 25-Dec-2016

 ------------------
 #p CCSD(T)/cc-pVTZ
 ------------------

 ------------
 H2O_H2O_1507
 ------------
 Symbolic Z-matrix:
 Charge =  0 Multiplicity = 1

                         Standard orientation:
 ---------------------------------------------------------------------
 Center     Atomic      Atomic             Coordinates (Angstroms)
 Number     Number       Type             X           Y           Z
 ---------------------------------------------------------------------
      1          8           0        0.025269   -1.594992    0.000000
      2          1           0       -0.775078   -2.165038    0.000000
      3          1           0        0.824063   -2.167210    0.000000
      4          8           0        0.025269    1.606704    0.000000
      5          1           0        0.490952    2.471946    0.000000
      6          1           0       -0.944234    1.766612    0.000000
 ---------------------------------------------------------------------

 SCF Done:  E(RHF) =  -152.103323004     A.U. after   10 cycles
 E2 =    -0.5270296742D+00 EUMP2 =    -0.15263035267801D+03
 CCSD(T)
 CCSD(T)= -0.15265761311D+03

 The electronic state is 1-A'.
 Alpha  occ. eigenvalues --  -20.54276 -20.54011  -1.31580  -1.31271  -0.69005
 Alpha  occ. eigenvalues --   -0.68695  -0.55505  -0.53784  -0.48723  -0.48309
 Alpha virt. eigenvalues --    0.14180   0.16477   0.20493   0.21830   0.52628
 Alpha virt. eigenvalues --    0.57740   0.58156   0.58703   0.64151   0.76857
 Alpha virt. eigenvalues --    0.78206   0.78596   0.79385   0.82050   0.85821

 Mulliken charges:
               1
     1  O   -0.480048
     2  H    0.236737
     3  H    0.243819
     4  O   -0.478810
     5  H    0.235218
     6  H    0.243085
 Sum of Mulliken charges =  -0.00000

 Dipole moment (field-independent basis, Debye):
    X=             -0.8340    Y=             -0.2200    Z=              0.0000  Tot=              0.8626
 Quadrupole moment (field-independent basis, Debye-Ang):
   XX=             -8.2699   YY=              0.2140   ZZ=            -14.7103
   XY=             -0.7213   XZ=              0.0000   YZ=              0.0000

 Normal termination of Gaussian 16 at Sat Aug 27 05:10:30 2022.
