 Gaussian 16, Revision A.03,
 Gaussian 16:  ES64L-G16RevA.03 25-Dec-2016

 ------------------
 #p CCSD(T)/cc-pVTZ
 ------------------

 ------------
 H2O_H2O_4871
 ------------
 Symbolic Z-matrix:
 Charge =  0 Multiplicity = 1

                         Standard orientation:
 ---------------------------------------------------------------------
 Center     Atomic      Atomic             Coordinates (Angstroms)
 Number     Number       Type             X           Y           Z
 ---------------------------------------------------------------------
      1          8           0        0.056081   -3.333160    0.000000
      2          1           0       -0.744304   -3.903151    0.000000
      3          1           0        0.854837   -3.905433    0.000000
      4          8           0        0.056081    3.424942    0.000000
      5          1           0       -0.346809    4.321148    0.000000
      6          1           0       -0.661025    2.753180    0.000000
 ---------------------------------------------------------------------

 SCF Done:  E(RHF) =  -152.107525863     A.U. after   10 cycles
 E2 =    -0.5258643259D+00 EUMP2 =    -0.15263339018885D+03
 CCSD(T)
 CCSD(T)= -0.15266060807D+03

 The electronic state is 1-A'.
 Alpha  occ. eigenvalues --  -20.55670 -20.55211  -1.32970  -1.32510  -0.70376
 Alpha  occ. eigenvalues --   -0.69911  -0.56422  -0.55960  -0.50082  -0.49624
 Alpha virt. eigenvalues --    0.14015   0.14476   0.20096   0.20583   0.54185
 Alpha virt. eigenvalues --    0.54661   0.57114   0.57573   0.67755   0.68233
 Alpha virt. eigenvalues --    0.78797   0.79250   0.80226   0.80711   0.82151

 Mulliken charges:
               1
     1  O   -0.509581
     2  H    0.253808
     3  H    0.255772
     4  O   -0.509334
     5  H    0.252683
     6  H    0.256650
 Sum of Mulliken charges =  -0.00000

 Dipole moment (field-independent basis, Debye):
    X=             -1.9293    Y=             -1.6004    Z=              0.0000  Tot=              2.5067
 Quadrupole moment (field-independent basis, Debye-Ang):
   XX=             -9.7847   YY=              5.9878   ZZ=            -14.7123
   XY=             -6.3745   XZ=              0.0000   YZ=              0.0000

 Normal termination of Gaussian 16 at Sat Aug 27 09:48:23 2022.
