 Gaussian 16, Revision A.03,
 Gaussian 16:  ES64L-G16RevA.03 25-Dec-2016

 ------------------
 #p CCSD(T)/cc-pVTZ
 ------------------

 -----------
 H2O_H2O_648
 -----------
 Symbolic Z-matrix:
 Charge =  0 Multiplicity = 1

                         Standard orientation:
 ---------------------------------------------------------------------
 Center     Atomic      Atomic             Coordinates (Angstroms)
 Number     Number       Type             X           Y           Z
 ---------------------------------------------------------------------
      1          8           0        0.057222   -1.078282    0.000000
      2          1           0       -0.744818   -1.645942    0.000000
      3          1           0        0.854309   -1.652876    0.000000
      4          8           0        0.057222    1.184542    0.000000
      5          1           0       -0.456767    2.021992    0.000000
      6          1           0       -0.568274    0.426742    0.000000
 ---------------------------------------------------------------------

 SCF Done:  E(RHF) =  -152.086175211     A.U. after   11 cycles
 E2 =    -0.5330619052D+00 EUMP2 =    -0.15261923711650D+03
 CCSD(T)
 CCSD(T)= -0.15264585039D+03

 The electronic state is 1-A'.
 Alpha  occ. eigenvalues --  -20.56983 -20.50652  -1.35627  -1.28385  -0.72947
 Alpha  occ. eigenvalues --   -0.69452  -0.54664  -0.52350  -0.52097  -0.45386
 Alpha virt. eigenvalues --    0.12870   0.18701   0.19198   0.27141   0.49809
 Alpha virt. eigenvalues --    0.55362   0.61577   0.64370   0.71693   0.73718
 Alpha virt. eigenvalues --    0.76662   0.81880   0.83559   0.84102   0.86983

 Mulliken charges:
               1
     1  O   -0.426209
     2  H    0.222588
     3  H    0.247911
     4  O   -0.517364
     5  H    0.207657
     6  H    0.265417
 Sum of Mulliken charges =   0.00000

 Dipole moment (field-independent basis, Debye):
    X=             -1.7369    Y=             -2.4071    Z=              0.0000  Tot=              2.9683
 Quadrupole moment (field-independent basis, Debye-Ang):
   XX=             -9.8412   YY=             -6.0860   ZZ=            -14.6883
   XY=             -2.4426   XZ=              0.0000   YZ=              0.0000

 Normal termination of Gaussian 16 at Fri Aug 26 18:39:58 2022.
