 Gaussian 16, Revision A.03,
 Gaussian 16:  ES64L-G16RevA.03 25-Dec-2016

 ------------------
 #p CCSD(T)/cc-pVTZ
 ------------------

 ------------
 H2O_H2O_3142
 ------------
 Symbolic Z-matrix:
 Charge =  0 Multiplicity = 1

                         Standard orientation:
 ---------------------------------------------------------------------
 Center     Atomic      Atomic             Coordinates (Angstroms)
 Number     Number       Type             X           Y           Z
 ---------------------------------------------------------------------
      1          8           0        0.051280   -2.431089    0.000000
      2          1           0       -0.749312   -3.000788    0.000000
      3          1           0        0.849827   -3.003651    0.000000
      4          8           0        0.051280    2.494610    0.000000
      5          1           0       -0.105574    3.464612    0.000000
      6          1           0       -0.815424    2.031653    0.000000
 ---------------------------------------------------------------------

 SCF Done:  E(RHF) =  -152.107180859     A.U. after   10 cycles
 E2 =    -0.5259590251D+00 EUMP2 =    -0.15263313988410D+03
 CCSD(T)
 CCSD(T)= -0.15266035942D+03

 The electronic state is 1-A'.
 Alpha  occ. eigenvalues --  -20.55471 -20.54840  -1.32766  -1.32133  -0.70174
 Alpha  occ. eigenvalues --   -0.69525  -0.56200  -0.55566  -0.49876  -0.49246
 Alpha virt. eigenvalues --    0.13836   0.15069   0.20189   0.21043   0.54291
 Alpha virt. eigenvalues --    0.54967   0.57294   0.57856   0.67055   0.70017
 Alpha virt. eigenvalues --    0.79007   0.79621   0.80294   0.80927   0.82791

 Mulliken charges:
               1
     1  O   -0.507258
     2  H    0.251373
     3  H    0.256034
     4  O   -0.506870
     5  H    0.249387
     6  H    0.257333
 Sum of Mulliken charges =  -0.00000

 Dipole moment (field-independent basis, Debye):
    X=             -1.7523    Y=             -1.1261    Z=              0.0000  Tot=              2.0830
 Quadrupole moment (field-independent basis, Debye-Ang):
   XX=             -9.4579   YY=              3.7433   ZZ=            -14.7121
   XY=             -3.7724   XZ=              0.0000   YZ=              0.0000

 8105\MP4DQ=-152.6422523\MP4SDQ=-152.6453119\CCSD=-152.6447226\CCSD(T)=
 Normal termination of Gaussian 16 at Fri Aug 26 19:46:17 2022.
