 Gaussian 16, Revision A.03,
 Gaussian 16:  ES64L-G16RevA.03 25-Dec-2016

 ------------------
 #p CCSD(T)/cc-pVTZ
 ------------------

 ------------
 H2O_H2O_3381
 ------------
 Symbolic Z-matrix:
 Charge =  0 Multiplicity = 1

                         Standard orientation:
 ---------------------------------------------------------------------
 Center     Atomic      Atomic             Coordinates (Angstroms)
 Number     Number       Type             X           Y           Z
 ---------------------------------------------------------------------
      1          8           0        0.021859   -2.593842    0.000000
      2          1           0       -0.778125   -3.164394    0.000000
      3          1           0        0.821017   -3.165552    0.000000
      4          8           0        0.021859    2.602505    0.000000
      5          1           0        0.542608    3.435768    0.000000
      6          1           0       -0.935250    2.824872    0.000000
 ---------------------------------------------------------------------

 SCF Done:  E(RHF) =  -152.106410013     A.U. after   10 cycles
 E2 =    -0.5259921104D+00 EUMP2 =    -0.15263240212292D+03
 CCSD(T)
 CCSD(T)= -0.15265964194D+03

 The electronic state is 1-A'.
 Alpha  occ. eigenvalues --  -20.55040 -20.54967  -1.32335  -1.32260  -0.69744
 Alpha  occ. eigenvalues --   -0.69666  -0.55735  -0.55659  -0.49439  -0.49364
 Alpha virt. eigenvalues --    0.14417   0.14758   0.20539   0.20691   0.54782
 Alpha virt. eigenvalues --    0.54951   0.57651   0.57745   0.67852   0.69302
 Alpha virt. eigenvalues --    0.79437   0.79513   0.80873   0.80989   0.82760

 Mulliken charges:
               1
     1  O   -0.503004
     2  H    0.250643
     3  H    0.252363
     4  O   -0.502876
     5  H    0.250271
     6  H    0.252604
 Sum of Mulliken charges =  -0.00000

 Dipole moment (field-independent basis, Debye):
    X=             -0.7479    Y=             -0.1524    Z=              0.0000  Tot=              0.7632
 Quadrupole moment (field-independent basis, Debye-Ang):
   XX=             -8.1109   YY=              8.2316   ZZ=            -14.7102
   XY=             -1.3308   XZ=              0.0000   YZ=              0.0000

 Normal termination of Gaussian 16 at Fri Aug 26 21:51:38 2022.
