 Gaussian 16, Revision A.03,
 Gaussian 16:  ES64L-G16RevA.03 25-Dec-2016

 ------------------
 #p CCSD(T)/cc-pVTZ
 ------------------

 ------------
 H2O_H2O_2774
 ------------
 Symbolic Z-matrix:
 Charge =  0 Multiplicity = 1

                         Standard orientation:
 ---------------------------------------------------------------------
 Center     Atomic      Atomic             Coordinates (Angstroms)
 Number     Number       Type             X           Y           Z
 ---------------------------------------------------------------------
      1          8           0        0.057237   -2.204249    0.000000
      2          1           0       -0.743574   -2.773641    0.000000
      3          1           0        0.855565   -2.777118    0.000000
      4          8           0        0.057237    2.318227    0.000000
      5          1           0       -0.512155    3.119038    0.000000
      6          1           0       -0.515632    1.519899    0.000000
 ---------------------------------------------------------------------

 SCF Done:  E(RHF) =  -152.108441936     A.U. after   10 cycles
 E2 =    -0.5259786097D+00 EUMP2 =    -0.15263442054564D+03
 CCSD(T)
 CCSD(T)= -0.15266159818D+03

 The electronic state is 1-A'.
 Alpha  occ. eigenvalues --  -20.56021 -20.54595  -1.33307  -1.31898  -0.70712
 Alpha  occ. eigenvalues --   -0.69278  -0.56788  -0.55364  -0.50426  -0.49022
 Alpha virt. eigenvalues --    0.13060   0.15584   0.19845   0.21927   0.53865
 Alpha virt. eigenvalues --    0.54866   0.56875   0.58208   0.66668   0.70989
 Alpha virt. eigenvalues --    0.78469   0.79392   0.79829   0.80277   0.82735

 Mulliken charges:
               1
     1  O   -0.510457
     2  H    0.253049
     3  H    0.258916
     4  O   -0.512731
     5  H    0.249225
     6  H    0.261999
 Sum of Mulliken charges =  -0.00000

 Dipole moment (field-independent basis, Debye):
    X=             -1.9497    Y=             -2.0516    Z=              0.0000  Tot=              2.8303
 Quadrupole moment (field-independent basis, Debye-Ang):
   XX=             -9.8618   YY=             -1.0589   ZZ=            -14.7159
   XY=             -4.7254   XZ=              0.0000   YZ=              0.0000

 Normal termination of Gaussian 16 at Fri Aug 26 16:00:24 2022.
