 Gaussian 16, Revision A.03,
 Gaussian 16:  ES64L-G16RevA.03 25-Dec-2016

 ------------------
 #p CCSD(T)/cc-pVTZ
 ------------------

 ------------
 H2O_H2O_1612
 ------------
 Symbolic Z-matrix:
 Charge =  0 Multiplicity = 1

                         Standard orientation:
 ---------------------------------------------------------------------
 Center     Atomic      Atomic             Coordinates (Angstroms)
 Number     Number       Type             X           Y           Z
 ---------------------------------------------------------------------
      1          8           0        0.040420   -1.636458    0.000000
      2          1           0       -0.760350   -2.205907    0.000000
      3          1           0        0.838788   -2.209270    0.000000
      4          8           0        0.040420    1.669744    0.000000
      5          1           0        0.203989    2.638636    0.000000
      6          1           0       -0.929151    1.510251    0.000000
 ---------------------------------------------------------------------

 SCF Done:  E(RHF) =  -152.104964070     A.U. after   10 cycles
 E2 =    -0.5268516035D+00 EUMP2 =    -0.15263181567314D+03
 CCSD(T)
 CCSD(T)= -0.15265903632D+03

 The electronic state is 1-A'.
 Alpha  occ. eigenvalues --  -20.54793 -20.54045  -1.32077  -1.31303  -0.69502
 Alpha  occ. eigenvalues --   -0.68700  -0.55654  -0.54322  -0.49191  -0.48396
 Alpha virt. eigenvalues --    0.13875   0.16435   0.20305   0.22137   0.53352
 Alpha virt. eigenvalues --    0.55989   0.57826   0.58650   0.64302   0.76940
 Alpha virt. eigenvalues --    0.78227   0.78618   0.79251   0.81619   0.85420

 Mulliken charges:
               1
     1  O   -0.486291
     2  H    0.239012
     3  H    0.249053
     4  O   -0.487131
     5  H    0.235786
     6  H    0.249570
 Sum of Mulliken charges =  -0.00000

 Dipole moment (field-independent basis, Debye):
    X=             -1.3381    Y=             -0.6246    Z=              0.0000  Tot=              1.4767
 Quadrupole moment (field-independent basis, Debye-Ang):
   XX=             -8.8701   YY=              0.0334   ZZ=            -14.7126
   XY=             -1.4933   XZ=              0.0000   YZ=              0.0000

 Normal termination of Gaussian 16 at Sat Aug 27 05:46:22 2022.
