 Gaussian 16, Revision A.03,
 Gaussian 16:  ES64L-G16RevA.03 25-Dec-2016

 ------------------
 #p CCSD(T)/cc-pVTZ
 ------------------

 ------------
 H2O_H2O_1809
 ------------
 Symbolic Z-matrix:
 Charge =  0 Multiplicity = 1

                         Standard orientation:
 ---------------------------------------------------------------------
 Center     Atomic      Atomic             Coordinates (Angstroms)
 Number     Number       Type             X           Y           Z
 ---------------------------------------------------------------------
      1          8           0        0.031745   -1.750502    0.000000
      2          1           0       -0.768711   -2.320392    0.000000
      3          1           0        0.830429   -2.322874    0.000000
      4          8           0        0.031745    1.769654    0.000000
      5          1           0        0.380686    2.688211    0.000000
      6          1           0       -0.950329    1.801838    0.000000
 ---------------------------------------------------------------------

 SCF Done:  E(RHF) =  -152.104853533     A.U. after   10 cycles
 E2 =    -0.5266230855D+00 EUMP2 =    -0.15263147661827D+03
 CCSD(T)
 CCSD(T)= -0.15265871085D+03

 The electronic state is 1-A'.
 Alpha  occ. eigenvalues --  -20.54627 -20.54250  -1.31907  -1.31517  -0.69330
 Alpha  occ. eigenvalues --   -0.68923  -0.55468  -0.54540  -0.49016  -0.48607
 Alpha virt. eigenvalues --    0.13992   0.16154   0.20445   0.21651   0.53104
 Alpha virt. eigenvalues --    0.56159   0.57942   0.58457   0.62920   0.76561
 Alpha virt. eigenvalues --    0.78858   0.79055   0.80380   0.81116   0.84064

 Mulliken charges:
               1
     1  O   -0.488429
     2  H    0.241120
     3  H    0.248040
     4  O   -0.488696
     5  H    0.239588
     6  H    0.248377
 Sum of Mulliken charges =  -0.00000

 Dipole moment (field-independent basis, Debye):
    X=             -1.0600    Y=             -0.3552    Z=              0.0000  Tot=              1.1180
 Quadrupole moment (field-independent basis, Debye-Ang):
   XX=             -8.4760   YY=              1.2980   ZZ=            -14.7105
   XY=             -1.1451   XZ=              0.0000   YZ=              0.0000

 Normal termination of Gaussian 16 at Sat Aug 27 06:54:30 2022.
