 Gaussian 16, Revision A.03,
 Gaussian 16:  ES64L-G16RevA.03 25-Dec-2016

 ------------------
 #p CCSD(T)/cc-pVTZ
 ------------------

 ------------
 H2O_H2O_3582
 ------------
 Symbolic Z-matrix:
 Charge =  0 Multiplicity = 1

                         Standard orientation:
 ---------------------------------------------------------------------
 Center     Atomic      Atomic             Coordinates (Angstroms)
 Number     Number       Type             X           Y           Z
 ---------------------------------------------------------------------
      1          8           0        0.025265   -2.698538    0.000000
      2          1           0       -0.774765   -3.269027    0.000000
      3          1           0        0.824377   -3.270313    0.000000
      4          8           0        0.025265    2.710278    0.000000
      5          1           0        0.490469    3.575778    0.000000
      6          1           0       -0.944326    2.869648    0.000000
 ---------------------------------------------------------------------

 SCF Done:  E(RHF) =  -152.106565347     A.U. after   10 cycles
 E2 =    -0.5259709656D+00 EUMP2 =    -0.15263253631228D+03
 CCSD(T)
 CCSD(T)= -0.15265977330D+03

 The electronic state is 1-A'.
 Alpha  occ. eigenvalues --  -20.55108 -20.55015  -1.32403  -1.32309  -0.69811
 Alpha  occ. eigenvalues --   -0.69715  -0.55810  -0.55717  -0.49508  -0.49415
 Alpha virt. eigenvalues --    0.14414   0.14673   0.20507   0.20649   0.54740
 Alpha virt. eigenvalues --    0.54879   0.57600   0.57703   0.68068   0.68926
 Alpha virt. eigenvalues --    0.79369   0.79461   0.80812   0.80926   0.82747

 Mulliken charges:
               1
     1  O   -0.503917
     2  H    0.251070
     3  H    0.252849
     4  O   -0.503779
     5  H    0.250650
     6  H    0.253128
 Sum of Mulliken charges =   0.00000

 Dipole moment (field-independent basis, Debye):
    X=             -0.8654    Y=             -0.2061    Z=              0.0000  Tot=              0.8896
 Quadrupole moment (field-independent basis, Debye-Ang):
   XX=             -8.2095   YY=              8.8626   ZZ=            -14.7104
   XY=             -1.6535   XZ=              0.0000   YZ=              0.0000

 Normal termination of Gaussian 16 at Sat Aug 27 01:40:26 2022.
