 Gaussian 16, Revision A.03,
 Gaussian 16:  ES64L-G16RevA.03 25-Dec-2016

 ------------------
 #p CCSD(T)/cc-pVTZ
 ------------------

 ------------
 H2O_H2O_4936
 ------------
 Symbolic Z-matrix:
 Charge =  0 Multiplicity = 1

                         Standard orientation:
 ---------------------------------------------------------------------
 Center     Atomic      Atomic             Coordinates (Angstroms)
 Number     Number       Type             X           Y           Z
 ---------------------------------------------------------------------
      1          8           0        0.037671   -3.407537    0.000000
      2          1           0       -0.762441   -3.977911    0.000000
      3          1           0        0.836700   -3.979426    0.000000
      4          8           0        0.037671    3.435812    0.000000
      5          1           0        0.263153    4.392193    0.000000
      6          1           0       -0.940145    3.338943    0.000000
 ---------------------------------------------------------------------

 SCF Done:  E(RHF) =  -152.107129730     A.U. after   10 cycles
 E2 =    -0.5258986701D+00 EUMP2 =    -0.15263302839993D+03
 CCSD(T)
 CCSD(T)= -0.15266025476D+03

 The electronic state is 1-A'.
 Alpha  occ. eigenvalues --  -20.55386 -20.55247  -1.32683  -1.32544  -0.70089
 Alpha  occ. eigenvalues --   -0.69948  -0.56117  -0.55978  -0.49792  -0.49654
 Alpha virt. eigenvalues --    0.14269   0.14407   0.20329   0.20473   0.54476
 Alpha virt. eigenvalues --    0.54624   0.57370   0.57508   0.68094   0.68234
 Alpha virt. eigenvalues --    0.79087   0.79224   0.80524   0.80674   0.82449

 Mulliken charges:
               1
     1  O   -0.507229
     2  H    0.252938
     3  H    0.254291
     4  O   -0.507135
     5  H    0.252504
     6  H    0.254631
 Sum of Mulliken charges =  -0.00000

 Dipole moment (field-independent basis, Debye):
    X=             -1.2958    Y=             -0.4925    Z=              0.0000  Tot=              1.3863
 Quadrupole moment (field-independent basis, Debye-Ang):
   XX=             -8.6951   YY=             12.8045   ZZ=            -14.7113
   XY=             -3.5819   XZ=              0.0000   YZ=              0.0000

 Normal termination of Gaussian 16 at Sat Aug 27 10:13:02 2022.
