 Gaussian 16, Revision A.03,
 Gaussian 16:  ES64L-G16RevA.03 25-Dec-2016

 ------------------
 #p CCSD(T)/cc-pVTZ
 ------------------

 ------------
 H2O_H2O_3463
 ------------
 Symbolic Z-matrix:
 Charge =  0 Multiplicity = 1

                         Standard orientation:
 ---------------------------------------------------------------------
 Center     Atomic      Atomic             Coordinates (Angstroms)
 Number     Number       Type             X           Y           Z
 ---------------------------------------------------------------------
      1          8           0        0.042967   -2.617366    0.000000
      2          1           0       -0.757404   -3.187377    0.000000
      3          1           0        0.841737   -3.189619    0.000000
      4          8           0        0.042967    2.656158    0.000000
      5          1           0        0.142132    3.633743    0.000000
      6          1           0       -0.913941    2.432923    0.000000
 ---------------------------------------------------------------------

 SCF Done:  E(RHF) =  -152.106863220     A.U. after   10 cycles
 E2 =    -0.5259538511D+00 EUMP2 =    -0.15263281707065D+03
 CCSD(T)
 CCSD(T)= -0.15266004696D+03

 The electronic state is 1-A'.
 Alpha  occ. eigenvalues --  -20.55291 -20.54964  -1.32587  -1.32257  -0.69995
 Alpha  occ. eigenvalues --   -0.69657  -0.56009  -0.55680  -0.49695  -0.49367
 Alpha virt. eigenvalues --    0.14198   0.14786   0.20353   0.20773   0.54539
 Alpha virt. eigenvalues --    0.54930   0.57440   0.57767   0.67733   0.69108
 Alpha virt. eigenvalues --    0.79184   0.79506   0.80608   0.80961   0.82648

 Mulliken charges:
               1
     1  O   -0.505688
     2  H    0.251224
     3  H    0.254479
     4  O   -0.505325
     5  H    0.250131
     6  H    0.255179
 Sum of Mulliken charges =  -0.00000

 Dipole moment (field-independent basis, Debye):
    X=             -1.4711    Y=             -0.6829    Z=              0.0000  Tot=              1.6219
 Quadrupole moment (field-independent basis, Debye-Ang):
   XX=             -8.9668   YY=              6.5749   ZZ=            -14.7111
   XY=             -3.0795   XZ=              0.0000   YZ=              0.0000

 Normal termination of Gaussian 16 at Fri Aug 26 22:33:19 2022.
