 Gaussian 16, Revision A.03,
 Gaussian 16:  ES64L-G16RevA.03 25-Dec-2016

 ------------------
 #p CCSD(T)/cc-pVTZ
 ------------------

 ------------
 H2O_H2O_1673
 ------------
 Symbolic Z-matrix:
 Charge =  0 Multiplicity = 1

                         Standard orientation:
 ---------------------------------------------------------------------
 Center     Atomic      Atomic             Coordinates (Angstroms)
 Number     Number       Type             X           Y           Z
 ---------------------------------------------------------------------
      1          8           0        0.057147   -1.623330    0.000000
      2          1           0       -0.744092   -2.192120    0.000000
      3          1           0        0.855043   -2.196800    0.000000
      4          8           0        0.057147    1.729752    0.000000
      5          1           0       -0.458022    2.566476    0.000000
      6          1           0       -0.567280    0.971070    0.000000
 ---------------------------------------------------------------------

 SCF Done:  E(RHF) =  -152.109498220     A.U. after   10 cycles
 E2 =    -0.5267507114D+00 EUMP2 =    -0.15263624893129D+03
 CCSD(T)
 CCSD(T)= -0.15266335765D+03

 The electronic state is 1-A'.
 Alpha  occ. eigenvalues --  -20.56396 -20.53673  -1.33669  -1.30984  -0.71070
 Alpha  occ. eigenvalues --   -0.68387  -0.57137  -0.54471  -0.50791  -0.48120
 Alpha virt. eigenvalues --    0.12965   0.16857   0.19646   0.24818   0.52757
 Alpha virt. eigenvalues --    0.55620   0.56617   0.58109   0.67416   0.75313
 Alpha virt. eigenvalues --    0.76748   0.76768   0.80056   0.81202   0.84186

 Mulliken charges:
               1
     1  O   -0.496950
     2  H    0.247154
     3  H    0.259271
     4  O   -0.515333
     5  H    0.241293
     6  H    0.264564
 Sum of Mulliken charges =  -0.00000

 Dipole moment (field-independent basis, Debye):
    X=             -1.8988    Y=             -2.0417    Z=              0.0000  Tot=              2.7882
 Quadrupole moment (field-independent basis, Debye-Ang):
   XX=             -9.8524   YY=             -3.0326   ZZ=            -14.7231
   XY=             -3.4685   XZ=              0.0000   YZ=              0.0000

 Normal termination of Gaussian 16 at Sat Aug 27 06:08:51 2022.
