 Gaussian 16, Revision A.03,
 Gaussian 16:  ES64L-G16RevA.03 25-Dec-2016

 ------------------
 #p CCSD(T)/cc-pVTZ
 ------------------

 ------------
 H2O_H2O_4741
 ------------
 Symbolic Z-matrix:
 Charge =  0 Multiplicity = 1

                         Standard orientation:
 ---------------------------------------------------------------------
 Center     Atomic      Atomic             Coordinates (Angstroms)
 Number     Number       Type             X           Y           Z
 ---------------------------------------------------------------------
      1          8           0        0.049498   -3.285577    0.000000
      2          1           0       -0.750806   -3.855681    0.000000
      3          1           0        0.848335   -3.857736    0.000000
      4          8           0        0.049498    3.342563    0.000000
      5          1           0       -0.044074    4.320699    0.000000
      6          1           0       -0.845424    2.936830    0.000000
 ---------------------------------------------------------------------

 SCF Done:  E(RHF) =  -152.107291083     A.U. after   10 cycles
 E2 =    -0.5258866486D+00 EUMP2 =    -0.15263317773124D+03
 CCSD(T)
 CCSD(T)= -0.15266040050D+03

 The electronic state is 1-A'.
 Alpha  occ. eigenvalues --  -20.55507 -20.55208  -1.32805  -1.32505  -0.70212
 Alpha  occ. eigenvalues --   -0.69907  -0.56247  -0.55947  -0.49916  -0.49617
 Alpha virt. eigenvalues --    0.14159   0.14460   0.20228   0.20544   0.54351
 Alpha virt. eigenvalues --    0.54667   0.57260   0.57559   0.67949   0.68259
 Alpha virt. eigenvalues --    0.78963   0.79259   0.80397   0.80717   0.82322

 Mulliken charges:
               1
     1  O   -0.508191
     2  H    0.253136
     3  H    0.255055
     4  O   -0.508011
     5  H    0.252334
     6  H    0.255676
 Sum of Mulliken charges =  -0.00000

 Dipole moment (field-independent basis, Debye):
    X=             -1.7023    Y=             -0.9939    Z=              0.0000  Tot=              1.9712
 Quadrupole moment (field-independent basis, Debye-Ang):
   XX=             -9.3455   YY=              9.3291   ZZ=            -14.7117
   XY=             -4.9731   XZ=              0.0000   YZ=              0.0000

 Normal termination of Gaussian 16 at Sat Aug 27 09:05:12 2022.
