 Gaussian 16, Revision A.03,
 Gaussian 16:  ES64L-G16RevA.03 25-Dec-2016

 ------------------
 #p CCSD(T)/cc-pVTZ
 ------------------

 ----------
 H2O_H2O_56
 ----------
 Symbolic Z-matrix:
 Charge =  0 Multiplicity = 1

                         Standard orientation:
 ---------------------------------------------------------------------
 Center     Atomic      Atomic             Coordinates (Angstroms)
 Number     Number       Type             X           Y           Z
 ---------------------------------------------------------------------
      1          8           0        0.021866   -0.825521    0.000000
      2          1           0       -0.778998   -1.394838    0.000000
      3          1           0        0.820140   -1.398464    0.000000
      4          8           0        0.021866    0.834117    0.000000
      5          1           0        0.543900    1.666575    0.000000
      6          1           0       -0.934899    1.057960    0.000000
 ---------------------------------------------------------------------

 SCF Done:  E(RHF) =  -151.941235863     A.U. after   12 cycles
 E2 =    -0.5491111835D+00 EUMP2 =    -0.15249034704655D+03
 CCSD(T)
 CCSD(T)= -0.15251512097D+03

 The electronic state is 1-A'.
 Alpha  occ. eigenvalues --  -20.51638 -20.51388  -1.36409  -1.26959  -0.71464
 Alpha  occ. eigenvalues --   -0.68485  -0.63801  -0.52583  -0.43282  -0.34489
 Alpha virt. eigenvalues --    0.14343   0.19385   0.19883   0.23274   0.51984
 Alpha virt. eigenvalues --    0.57292   0.59001   0.65889   0.69754   0.78829
 Alpha virt. eigenvalues --    0.80043   0.83488   0.83581   0.85473   0.88449

 Mulliken charges:
               1
     1  O   -0.358430
     2  H    0.169648
     3  H    0.189743
     4  O   -0.341033
     5  H    0.125949
     6  H    0.214122
 Sum of Mulliken charges =   0.00000

 Dipole moment (field-independent basis, Debye):
    X=             -0.6167    Y=             -0.2308    Z=              0.0000  Tot=              0.6585
 Quadrupole moment (field-independent basis, Debye-Ang):
   XX=             -8.6781   YY=             -8.7873   ZZ=            -14.7451
   XY=             -0.3071   XZ=              0.0000   YZ=              0.0000

 47\MP4DQ=-152.4937427\MP4SDQ=-152.4980184\CCSD=-152.4967204\CCSD(T)=-1
 Normal termination of Gaussian 16 at Fri Aug 26 12:19:45 2022.
