 Gaussian 16, Revision A.03,
 Gaussian 16:  ES64L-G16RevA.03 25-Dec-2016

 ------------------
 #p CCSD(T)/cc-pVTZ
 ------------------

 ----------
 H2O_H2O_58
 ----------
 Symbolic Z-matrix:
 Charge =  0 Multiplicity = 1

                         Standard orientation:
 ---------------------------------------------------------------------
 Center     Atomic      Atomic             Coordinates (Angstroms)
 Number     Number       Type             X           Y           Z
 ---------------------------------------------------------------------
      1          8           0        0.028579   -0.821969    0.000000
      2          1           0       -0.772681   -1.390728    0.000000
      3          1           0        0.826454   -1.395468    0.000000
      4          8           0        0.028579    0.837103    0.000000
      5          1           0        0.438112    1.730294    0.000000
      6          1           0       -0.949151    0.934830    0.000000
 ---------------------------------------------------------------------

 SCF Done:  E(RHF) =  -151.944202335     A.U. after   12 cycles
 E2 =    -0.5487110859D+00 EUMP2 =    -0.15249291342100D+03
 CCSD(T)
 CCSD(T)= -0.15251778135D+03

 The electronic state is 1-A'.
 Alpha  occ. eigenvalues --  -20.51897 -20.51442  -1.36665  -1.26916  -0.72050
 Alpha  occ. eigenvalues --   -0.68831  -0.62739  -0.52735  -0.43327  -0.35221
 Alpha virt. eigenvalues --    0.14250   0.19242   0.19863   0.23417   0.52950
 Alpha virt. eigenvalues --    0.56345   0.58857   0.65672   0.70976   0.78464
 Alpha virt. eigenvalues --    0.79746   0.83050   0.83279   0.85044   0.88739

 Mulliken charges:
               1
     1  O   -0.358211
     2  H    0.168643
     3  H    0.191134
     4  O   -0.338633
     5  H    0.115991
     6  H    0.221076
 Sum of Mulliken charges =  -0.00000

 Dipole moment (field-independent basis, Debye):
    X=             -0.7933    Y=             -0.3909    Z=              0.0000  Tot=              0.8844
 Quadrupole moment (field-independent basis, Debye-Ang):
   XX=             -8.8066   YY=             -8.7520   ZZ=            -14.7224
   XY=             -0.3916   XZ=              0.0000   YZ=              0.0000

 53208\MP4DQ=-152.496499\MP4SDQ=-152.5007291\CCSD=-152.4994569\CCSD(T)=
 Normal termination of Gaussian 16 at Fri Aug 26 12:20:53 2022.
