 Gaussian 16, Revision A.03,
 Gaussian 16:  ES64L-G16RevA.03 25-Dec-2016

 ------------------
 #p CCSD(T)/cc-pVTZ
 ------------------

 ------------
 H2O_H2O_2786
 ------------
 Symbolic Z-matrix:
 Charge =  0 Multiplicity = 1

                         Standard orientation:
 ---------------------------------------------------------------------
 Center     Atomic      Atomic             Coordinates (Angstroms)
 Number     Number       Type             X           Y           Z
 ---------------------------------------------------------------------
      1          8           0        0.037678   -2.264108    0.000000
      2          1           0       -0.762705   -2.834101    0.000000
      3          1           0        0.836435   -2.836377    0.000000
      4          8           0        0.037678    2.292347    0.000000
      5          1           0        0.263614    3.248620    0.000000
      6          1           0       -0.940185    2.195943    0.000000
 ---------------------------------------------------------------------

 SCF Done:  E(RHF) =  -152.106350617     A.U. after   10 cycles
 E2 =    -0.5260585089D+00 EUMP2 =    -0.15263240912585D+03
 CCSD(T)
 CCSD(T)= -0.15265964450D+03

 The electronic state is 1-A'.
 Alpha  occ. eigenvalues --  -20.55078 -20.54754  -1.32370  -1.32043  -0.69781
 Alpha  occ. eigenvalues --   -0.69443  -0.55766  -0.55435  -0.49474  -0.49149
 Alpha virt. eigenvalues --    0.14062   0.15217   0.20415   0.21015   0.54469
 Alpha virt. eigenvalues --    0.55186   0.57610   0.57927   0.66158   0.71621
 Alpha virt. eigenvalues --    0.79383   0.79740   0.80717   0.81357   0.82673

 Mulliken charges:
               1
     1  O   -0.502408
     2  H    0.249121
     3  H    0.253390
     4  O   -0.501975
     5  H    0.247926
     6  H    0.253946
 Sum of Mulliken charges =  -0.00000

 Dipole moment (field-independent basis, Debye):
    X=             -1.2830    Y=             -0.5029    Z=              0.0000  Tot=              1.3780
 Quadrupole moment (field-independent basis, Debye-Ang):
   XX=             -8.7048   YY=              4.7484   ZZ=            -14.7107
   XY=             -2.1193   XZ=              0.0000   YZ=              0.0000

 Normal termination of Gaussian 16 at Fri Aug 26 16:09:49 2022.
