 Gaussian 16, Revision A.03,
 Gaussian 16:  ES64L-G16RevA.03 25-Dec-2016

 ------------------
 #p CCSD(T)/cc-pVTZ
 ------------------

 ------------
 H2O_H2O_1014
 ------------
 Symbolic Z-matrix:
 Charge =  0 Multiplicity = 1

                         Standard orientation:
 ---------------------------------------------------------------------
 Center     Atomic      Atomic             Coordinates (Angstroms)
 Number     Number       Type             X           Y           Z
 ---------------------------------------------------------------------
      1          8           0        0.045376   -1.311305    0.000000
      2          1           0       -0.755862   -1.880096    0.000000
      3          1           0        0.843273   -1.884773    0.000000
      4          8           0        0.045376    1.355729    0.000000
      5          1           0        0.081887    2.337653    0.000000
      6          1           0       -0.895316    1.071821    0.000000
 ---------------------------------------------------------------------

 SCF Done:  E(RHF) =  -152.100945723     A.U. after   11 cycles
 E2 =    -0.5284146274D+00 EUMP2 =    -0.15262936035077D+03
 CCSD(T)
 CCSD(T)= -0.15265657161D+03

 The electronic state is 1-A'.
 Alpha  occ. eigenvalues --  -20.54662 -20.53244  -1.32142  -1.30478  -0.69551
 Alpha  occ. eigenvalues --   -0.68043  -0.56195  -0.52702  -0.49299  -0.47484
 Alpha virt. eigenvalues --    0.13903   0.17226   0.20149   0.23215   0.53492
 Alpha virt. eigenvalues --    0.57763   0.58194   0.59172   0.70017   0.75940
 Alpha virt. eigenvalues --    0.76884   0.77325   0.82676   0.83067   0.85387

 Mulliken charges:
               1
     1  O   -0.474638
     2  H    0.231070
     3  H    0.247680
     4  O   -0.470191
     5  H    0.219758
     6  H    0.246321
 Sum of Mulliken charges =  -0.00000

 Dipole moment (field-independent basis, Debye):
    X=             -1.4417    Y=             -0.8653    Z=              0.0000  Tot=              1.6815
 Quadrupole moment (field-independent basis, Debye-Ang):
   XX=             -9.1753   YY=             -2.7123   ZZ=            -14.7215
   XY=             -1.3644   XZ=              0.0000   YZ=              0.0000

 5782\MP4DQ=-152.6380306\MP4SDQ=-152.6412262\CCSD=-152.6405842\CCSD(T)=
 Normal termination of Gaussian 16 at Sat Aug 27 01:23:22 2022.
