 Gaussian 16, Revision A.03,
 Gaussian 16:  ES64L-G16RevA.03 25-Dec-2016

 ------------------
 #p CCSD(T)/cc-pVTZ
 ------------------

 -----------
 H2O_H2O_652
 -----------
 Symbolic Z-matrix:
 Charge =  0 Multiplicity = 1

                         Standard orientation:
 ---------------------------------------------------------------------
 Center     Atomic      Atomic             Coordinates (Angstroms)
 Number     Number       Type             X           Y           Z
 ---------------------------------------------------------------------
      1          8           0        0.007455   -1.148766    0.000000
      2          1           0       -0.792435   -1.719452    0.000000
      3          1           0        0.806707   -1.720344    0.000000
      4          8           0        0.007455    1.149735    0.000000
      5          1           0        0.726012    1.819945    0.000000
      6          1           0       -0.859566    1.612100    0.000000
 ---------------------------------------------------------------------

 SCF Done:  E(RHF) =  -152.082496496     A.U. after   11 cycles
 E2 =    -0.5307808979D+00 EUMP2 =    -0.15261327739388D+03
 CCSD(T)
 CCSD(T)= -0.15264049517D+03

 The electronic state is 1-A'.
 Alpha  occ. eigenvalues --  -20.52630 -20.52601  -1.31118  -1.29582  -0.68240
 Alpha  occ. eigenvalues --   -0.67255  -0.58183  -0.48435  -0.48039  -0.46219
 Alpha virt. eigenvalues --    0.14562   0.17854   0.20569   0.22536   0.50278
 Alpha virt. eigenvalues --    0.58990   0.59033   0.64448   0.72224   0.76863
 Alpha virt. eigenvalues --    0.77733   0.80825   0.84271   0.86630   0.86830

 Mulliken charges:
               1
     1  O   -0.451907
     2  H    0.223907
     3  H    0.227711
     4  O   -0.450058
     5  H    0.221418
     6  H    0.228929
 Sum of Mulliken charges =  -0.00000

 Dipole moment (field-independent basis, Debye):
    X=             -0.2278    Y=             -0.0192    Z=              0.0000  Tot=              0.2286
 Quadrupole moment (field-independent basis, Debye-Ang):
   XX=             -8.0695   YY=             -3.9320   ZZ=            -14.7362
   XY=             -0.0876   XZ=              0.0000   YZ=              0.0000

 95007\MP4DQ=-152.6215291\MP4SDQ=-152.624851\CCSD=-152.6241681\CCSD(T)=
 Normal termination of Gaussian 16 at Fri Aug 26 18:42:20 2022.
