 Gaussian 16, Revision A.03,
 Gaussian 16:  ES64L-G16RevA.03 25-Dec-2016

 ------------------
 #p CCSD(T)/cc-pVTZ
 ------------------

 ------------
 H2O_H2O_4556
 ------------
 Symbolic Z-matrix:
 Charge =  0 Multiplicity = 1

                         Standard orientation:
 ---------------------------------------------------------------------
 Center     Atomic      Atomic             Coordinates (Angstroms)
 Number     Number       Type             X           Y           Z
 ---------------------------------------------------------------------
      1          8           0        0.021859   -3.218746    0.000000
      2          1           0       -0.778045   -3.789411    0.000000
      3          1           0        0.821096   -3.790345    0.000000
      4          8           0        0.021859    3.227416    0.000000
      5          1           0        0.542490    4.060752    0.000000
      6          1           0       -0.935282    3.449649    0.000000
 ---------------------------------------------------------------------

 SCF Done:  E(RHF) =  -152.106915571     A.U. after   10 cycles
 E2 =    -0.5259205778D+00 EUMP2 =    -0.15263283614850D+03
 CCSD(T)
 CCSD(T)= -0.15266006686D+03

 The electronic state is 1-A'.
 Alpha  occ. eigenvalues --  -20.55250 -20.55202  -1.32547  -1.32498  -0.69953
 Alpha  occ. eigenvalues --   -0.69904  -0.55971  -0.55923  -0.49654  -0.49606
 Alpha virt. eigenvalues --    0.14383   0.14437   0.20435   0.20486   0.54614
 Alpha virt. eigenvalues --    0.54667   0.57489   0.57537   0.68249   0.68313
 Alpha virt. eigenvalues --    0.79225   0.79272   0.80666   0.80719   0.82593

 Mulliken charges:
               1
     1  O   -0.505962
     2  H    0.252513
     3  H    0.253449
     4  O   -0.505916
     5  H    0.252282
     6  H    0.253635
 Sum of Mulliken charges =  -0.00000

 Dipole moment (field-independent basis, Debye):
    X=             -0.7512    Y=             -0.1512    Z=              0.0000  Tot=              0.7663
 Quadrupole moment (field-independent basis, Debye-Ang):
   XX=             -8.1031   YY=             13.0611   ZZ=            -14.7108
   XY=             -1.7949   XZ=              0.0000   YZ=              0.0000

 Normal termination of Gaussian 16 at Sat Aug 27 07:59:34 2022.
