 Gaussian 16, Revision A.03,
 Gaussian 16:  ES64L-G16RevA.03 25-Dec-2016

 ------------------
 #p CCSD(T)/cc-pVTZ
 ------------------

 ------------
 H2O_H2O_1489
 ------------
 Symbolic Z-matrix:
 Charge =  0 Multiplicity = 1

                         Standard orientation:
 ---------------------------------------------------------------------
 Center     Atomic      Atomic             Coordinates (Angstroms)
 Number     Number       Type             X           Y           Z
 ---------------------------------------------------------------------
      1          8           0        0.045366   -1.563905    0.000000
      2          1           0       -0.755607   -2.133069    0.000000
      3          1           0        0.843530   -2.137002    0.000000
      4          8           0        0.045366    1.608372    0.000000
      5          1           0        0.081420    2.590312    0.000000
      6          1           0       -0.895194    1.324025    0.000000
 ---------------------------------------------------------------------

 SCF Done:  E(RHF) =  -152.105177392     A.U. after   10 cycles
 E2 =    -0.5270423411D+00 EUMP2 =    -0.15263221973296D+03
 CCSD(T)
 CCSD(T)= -0.15265942565D+03

 The electronic state is 1-A'.
 Alpha  occ. eigenvalues --  -20.54978 -20.53877  -1.32270  -1.31131  -0.69695
 Alpha  occ. eigenvalues --   -0.68528  -0.55828  -0.54189  -0.49387  -0.48226
 Alpha virt. eigenvalues --    0.13783   0.16632   0.20187   0.22578   0.53858
 Alpha virt. eigenvalues --    0.55949   0.57674   0.58553   0.65405   0.76407
 Alpha virt. eigenvalues --    0.77672   0.77891   0.79201   0.81932   0.85265

 Mulliken charges:
               1
     1  O   -0.485137
     2  H    0.238098
     3  H    0.250079
     4  O   -0.487340
     5  H    0.233399
     6  H    0.250902
 Sum of Mulliken charges =  -0.00000

 Dipole moment (field-independent basis, Debye):
    X=             -1.4919    Y=             -0.8426    Z=              0.0000  Tot=              1.7134
 Quadrupole moment (field-independent basis, Debye-Ang):
   XX=             -9.1352   YY=             -0.8165   ZZ=            -14.7151
   XY=             -1.7349   XZ=              0.0000   YZ=              0.0000

 Normal termination of Gaussian 16 at Sat Aug 27 05:04:17 2022.
