 Gaussian 16, Revision A.03,
 Gaussian 16:  ES64L-G16RevA.03 25-Dec-2016

 ------------------
 #p CCSD(T)/cc-pVTZ
 ------------------

 ------------
 H2O_H2O_2618
 ------------
 Symbolic Z-matrix:
 Charge =  0 Multiplicity = 1

                         Standard orientation:
 ---------------------------------------------------------------------
 Center     Atomic      Atomic             Coordinates (Angstroms)
 Number     Number       Type             X           Y           Z
 ---------------------------------------------------------------------
      1          8           0        0.052839   -2.148196    0.000000
      2          1           0       -0.747919   -2.717663    0.000000
      3          1           0        0.851220   -2.720990    0.000000
      4          8           0        0.052839    2.218490    0.000000
      5          1           0       -0.166843    3.176219    0.000000
      6          1           0       -0.781881    1.700081    0.000000
 ---------------------------------------------------------------------

 SCF Done:  E(RHF) =  -152.107324454     A.U. after   10 cycles
 E2 =    -0.5260564385D+00 EUMP2 =    -0.15263338089277D+03
 CCSD(T)
 CCSD(T)= -0.15266058562D+03

 The electronic state is 1-A'.
 Alpha  occ. eigenvalues --  -20.55538 -20.54609  -1.32826  -1.31900  -0.70235
 Alpha  occ. eigenvalues --   -0.69283  -0.56258  -0.55333  -0.49937  -0.49016
 Alpha virt. eigenvalues --    0.13460   0.15550   0.20099   0.21571   0.54048
 Alpha virt. eigenvalues --    0.54797   0.57265   0.58103   0.66079   0.72684
 Alpha virt. eigenvalues --    0.78930   0.79863   0.79870   0.81733   0.82621

 Mulliken charges:
               1
     1  O   -0.505912
     2  H    0.250108
     3  H    0.256636
     4  O   -0.506956
     5  H    0.247458
     6  H    0.258666
 Sum of Mulliken charges =  -0.00000

 Dipole moment (field-independent basis, Debye):
    X=             -1.7957    Y=             -1.2653    Z=              0.0000  Tot=              2.1967
 Quadrupole moment (field-independent basis, Debye-Ang):
   XX=             -9.5600   YY=              1.6922   ZZ=            -14.7133
   XY=             -3.5015   XZ=              0.0000   YZ=              0.0000

 Normal termination of Gaussian 16 at Fri Aug 26 14:23:57 2022.
