 Gaussian 16, Revision A.03,
 Gaussian 16:  ES64L-G16RevA.03 25-Dec-2016

 ------------------
 #p CCSD(T)/cc-pVTZ
 ------------------

 ------------
 H2O_H2O_1082
 ------------
 Symbolic Z-matrix:
 Charge =  0 Multiplicity = 1

                         Standard orientation:
 ---------------------------------------------------------------------
 Center     Atomic      Atomic             Coordinates (Angstroms)
 Number     Number       Type             X           Y           Z
 ---------------------------------------------------------------------
      1          8           0        0.025270   -1.368968    0.000000
      2          1           0       -0.775204   -1.938834    0.000000
      3          1           0        0.823936   -1.941364    0.000000
      4          8           0        0.025270    1.380668    0.000000
      5          1           0        0.491147    2.245806    0.000000
      6          1           0       -0.944197    1.540792    0.000000
 ---------------------------------------------------------------------

 SCF Done:  E(RHF) =  -152.099255477     A.U. after   11 cycles
 E2 =    -0.5280789849D+00 EUMP2 =    -0.15262733446227D+03
 CCSD(T)
 CCSD(T)= -0.15265462528D+03

 The electronic state is 1-A'.
 Alpha  occ. eigenvalues --  -20.53805 -20.53485  -1.31293  -1.30704  -0.68683
 Alpha  occ. eigenvalues --   -0.68190  -0.56108  -0.52084  -0.48521  -0.47611
 Alpha virt. eigenvalues --    0.14309   0.17042   0.20488   0.22295   0.51871
 Alpha virt. eigenvalues --    0.58435   0.58724   0.60678   0.69717   0.76580
 Alpha virt. eigenvalues --    0.76905   0.78158   0.80928   0.83350   0.86091

 Mulliken charges:
               1
     1  O   -0.470650
     2  H    0.230240
     3  H    0.240087
     4  O   -0.463304
     5  H    0.226023
     6  H    0.237604
 Sum of Mulliken charges =   0.00000

 Dipole moment (field-independent basis, Debye):
    X=             -0.8107    Y=             -0.2237    Z=              0.0000  Tot=              0.8410
 Quadrupole moment (field-independent basis, Debye-Ang):
   XX=             -8.3193   YY=             -1.7539   ZZ=            -14.7161
   XY=             -0.5389   XZ=              0.0000   YZ=              0.0000

 Normal termination of Gaussian 16 at Sat Aug 27 01:56:07 2022.
