 Gaussian 16, Revision A.03,
 Gaussian 16:  ES64L-G16RevA.03 25-Dec-2016

 ------------------
 #p CCSD(T)/cc-pVTZ
 ------------------

 ------------
 H2O_H2O_1633
 ------------
 Symbolic Z-matrix:
 Charge =  0 Multiplicity = 1

                         Standard orientation:
 ---------------------------------------------------------------------
 Center     Atomic      Atomic             Coordinates (Angstroms)
 Number     Number       Type             X           Y           Z
 ---------------------------------------------------------------------
      1          8           0        0.028568   -1.659567    0.000000
      2          1           0       -0.771845   -2.229519    0.000000
      3          1           0        0.827296   -2.231877    0.000000
      4          8           0        0.028568    1.674786    0.000000
      5          1           0        0.436770    2.568585    0.000000
      6          1           0       -0.949306    1.771057    0.000000
 ---------------------------------------------------------------------

 SCF Done:  E(RHF) =  -152.104096674     A.U. after   10 cycles
 E2 =    -0.5268390861D+00 EUMP2 =    -0.15263093576043D+03
 CCSD(T)
 CCSD(T)= -0.15265818219D+03

 The electronic state is 1-A'.
 Alpha  occ. eigenvalues --  -20.54445 -20.54119  -1.31733  -1.31382  -0.69158
 Alpha  occ. eigenvalues --   -0.68796  -0.55468  -0.54154  -0.48855  -0.48450
 Alpha virt. eigenvalues --    0.14093   0.16338   0.20469   0.21760   0.52892
 Alpha virt. eigenvalues --    0.56922   0.58056   0.58586   0.63389   0.76871
 Alpha virt. eigenvalues --    0.78509   0.78721   0.79788   0.81637   0.85023

 Mulliken charges:
               1
     1  O   -0.483704
     2  H    0.238608
     3  H    0.245777
     4  O   -0.483306
     5  H    0.237037
     6  H    0.245588
 Sum of Mulliken charges =  -0.00000

 Dipole moment (field-independent basis, Debye):
    X=             -0.9479    Y=             -0.2845    Z=              0.0000  Tot=              0.9897
 Quadrupole moment (field-independent basis, Debye-Ang):
   XX=             -8.3689   YY=              0.6734   ZZ=            -14.7103
   XY=             -0.9082   XZ=              0.0000   YZ=              0.0000

 Normal termination of Gaussian 16 at Sat Aug 27 05:53:49 2022.
