 Gaussian 16, Revision A.03,
 Gaussian 16:  ES64L-G16RevA.03 25-Dec-2016

 ------------------
 #p CCSD(T)/cc-pVTZ
 ------------------

 ------------
 H2O_H2O_3326
 ------------
 Symbolic Z-matrix:
 Charge =  0 Multiplicity = 1

                         Standard orientation:
 ---------------------------------------------------------------------
 Center     Atomic      Atomic             Coordinates (Angstroms)
 Number     Number       Type             X           Y           Z
 ---------------------------------------------------------------------
      1          8           0        0.003735   -2.571823    0.000000
      2          1           0       -0.795907   -3.142855    0.000000
      3          1           0        0.803235   -3.143055    0.000000
      4          8           0        0.003735    2.572066    0.000000
      5          1           0        0.764319    3.194174    0.000000
      6          1           0       -0.831413    3.089786    0.000000
 ---------------------------------------------------------------------

 SCF Done:  E(RHF) =  -152.106259838     A.U. after   10 cycles
 E2 =    -0.5260063113D+00 EUMP2 =    -0.15263226614957D+03
 CCSD(T)
 CCSD(T)= -0.15265950909D+03

 The electronic state is 1-A'.
 Alpha  occ. eigenvalues --  -20.54961 -20.54958  -1.32254  -1.32252  -0.69663
 Alpha  occ. eigenvalues --   -0.69661  -0.55654  -0.55636  -0.49357  -0.49355
 Alpha virt. eigenvalues --    0.14466   0.14776   0.20587   0.20688   0.54840
 Alpha virt. eigenvalues --    0.54982   0.57707   0.57755   0.67811   0.69455
 Alpha virt. eigenvalues --    0.79508   0.79532   0.80938   0.81012   0.82758

 Mulliken charges:
               1
     1  O   -0.502110
     2  H    0.250904
     3  H    0.251206
     4  O   -0.502106
     5  H    0.250856
     6  H    0.251249
 Sum of Mulliken charges =  -0.00000

 Dipole moment (field-independent basis, Debye):
    X=             -0.1277    Y=             -0.0043    Z=              0.0000  Tot=              0.1278
 Quadrupole moment (field-independent basis, Debye-Ang):
   XX=             -7.8214   YY=              8.5039   ZZ=            -14.7099
   XY=             -0.2142   XZ=              0.0000   YZ=              0.0000

 Normal termination of Gaussian 16 at Fri Aug 26 21:23:34 2022.
