 Gaussian 16, Revision A.03,
 Gaussian 16:  ES64L-G16RevA.03 25-Dec-2016

 ------------------
 #p CCSD(T)/cc-pVTZ
 ------------------

 ------------
 H2O_H2O_3090
 ------------
 Symbolic Z-matrix:
 Charge =  0 Multiplicity = 1

                         Standard orientation:
 ---------------------------------------------------------------------
 Center     Atomic      Atomic             Coordinates (Angstroms)
 Number     Number       Type             X           Y           Z
 ---------------------------------------------------------------------
      1          8           0        0.047530   -2.411511    0.000000
      2          1           0       -0.752998   -2.981301    0.000000
      3          1           0        0.846142   -2.983983    0.000000
      4          8           0        0.047530    2.462117    0.000000
      5          1           0        0.018517    3.444291    0.000000
      6          1           0       -0.872148    2.116144    0.000000
 ---------------------------------------------------------------------

 SCF Done:  E(RHF) =  -152.106932363     A.U. after   10 cycles
 E2 =    -0.5259795699D+00 EUMP2 =    -0.15263291193248D+03
 CCSD(T)
 CCSD(T)= -0.15266013724D+03

 The electronic state is 1-A'.
 Alpha  occ. eigenvalues --  -20.55348 -20.54838  -1.32643  -1.32130  -0.70051
 Alpha  occ. eigenvalues --   -0.69524  -0.56065  -0.55553  -0.49750  -0.49241
 Alpha virt. eigenvalues --    0.13950   0.15060   0.20269   0.20993   0.54393
 Alpha virt. eigenvalues --    0.55005   0.57394   0.57859   0.67043   0.70192
 Alpha virt. eigenvalues --    0.79129   0.79629   0.80447   0.81093   0.82836

 Mulliken charges:
               1
     1  O   -0.505899
     2  H    0.250764
     3  H    0.255243
     4  O   -0.505473
     5  H    0.249097
     6  H    0.256268
 Sum of Mulliken charges =  -0.00000

 Dipole moment (field-independent basis, Debye):
    X=             -1.6234    Y=             -0.8970    Z=              0.0000  Tot=              1.8547
 Quadrupole moment (field-independent basis, Debye-Ang):
   XX=             -9.2263   YY=              4.4734   ZZ=            -14.7116
   XY=             -3.2617   XZ=              0.0000   YZ=              0.0000

 Normal termination of Gaussian 16 at Fri Aug 26 19:19:52 2022.
