 Gaussian 16, Revision A.03,
 Gaussian 16:  ES64L-G16RevA.03 25-Dec-2016

 ------------------
 #p CCSD(T)/cc-pVTZ
 ------------------

 -----------
 H2O_H2O_624
 -----------
 Symbolic Z-matrix:
 Charge =  0 Multiplicity = 1

                         Standard orientation:
 ---------------------------------------------------------------------
 Center     Atomic      Atomic             Coordinates (Angstroms)
 Number     Number       Type             X           Y           Z
 ---------------------------------------------------------------------
      1          8           0        0.057364   -1.060933    0.000000
      2          1           0       -0.744711   -1.628543    0.000000
      3          1           0        0.854415   -1.635577    0.000000
      4          8           0        0.057364    1.174656    0.000000
      5          1           0       -0.510246    1.976733    0.000000
      6          1           0       -0.517279    0.377605    0.000000
 ---------------------------------------------------------------------

 SCF Done:  E(RHF) =  -152.082739364     A.U. after   11 cycles
 E2 =    -0.5337572758D+00 EUMP2 =    -0.15261649663948D+03
 CCSD(T)
 CCSD(T)= -0.15264295417D+03

 The electronic state is 1-A'.
 Alpha  occ. eigenvalues --  -20.57463 -20.50054  -1.36346  -1.27982  -0.73623
 Alpha  occ. eigenvalues --   -0.70018  -0.54511  -0.52944  -0.51574  -0.44964
 Alpha virt. eigenvalues --    0.12666   0.18677   0.19244   0.27891   0.49239
 Alpha virt. eigenvalues --    0.54945   0.61950   0.65631   0.71544   0.73637
 Alpha virt. eigenvalues --    0.76162   0.81436   0.83497   0.84136   0.86947

 Mulliken charges:
               1
     1  O   -0.414807
     2  H    0.222449
     3  H    0.248498
     4  O   -0.532233
     5  H    0.207284
     6  H    0.268810
 Sum of Mulliken charges =  -0.00000

 Dipole moment (field-independent basis, Debye):
    X=             -1.7336    Y=             -2.6607    Z=              0.0000  Tot=              3.1756
 Quadrupole moment (field-independent basis, Debye-Ang):
   XX=             -9.8340   YY=             -6.4723   ZZ=            -14.6756
   XY=             -2.5523   XZ=              0.0000   YZ=              0.0000

 Normal termination of Gaussian 16 at Fri Aug 26 18:22:00 2022.
