 Gaussian 16, Revision A.03,
 Gaussian 16:  ES64L-G16RevA.03 25-Dec-2016

 ------------------
 #p CCSD(T)/cc-pVTZ
 ------------------

 ------------
 H2O_H2O_3992
 ------------
 Symbolic Z-matrix:
 Charge =  0 Multiplicity = 1

                         Standard orientation:
 ---------------------------------------------------------------------
 Center     Atomic      Atomic             Coordinates (Angstroms)
 Number     Number       Type             X           Y           Z
 ---------------------------------------------------------------------
      1          8           0        0.051271   -2.883135    0.000000
      2          1           0       -0.749163   -3.453057    0.000000
      3          1           0        0.849977   -3.455476    0.000000
      4          8           0        0.051271    2.946685    0.000000
      5          1           0       -0.105853    3.916643    0.000000
      6          1           0       -0.815304    2.483487    0.000000
 ---------------------------------------------------------------------

 SCF Done:  E(RHF) =  -152.107273880     A.U. after   10 cycles
 E2 =    -0.5259012434D+00 EUMP2 =    -0.15263317512357D+03
 CCSD(T)
 CCSD(T)= -0.15266039738D+03

 The electronic state is 1-A'.
 Alpha  occ. eigenvalues --  -20.55509 -20.55072  -1.32807  -1.32368  -0.70214
 Alpha  occ. eigenvalues --   -0.69767  -0.56248  -0.55808  -0.49917  -0.49480
 Alpha virt. eigenvalues --    0.14109   0.14628   0.20215   0.20702   0.54344
 Alpha virt. eigenvalues --    0.54811   0.57255   0.57692   0.67844   0.68512
 Alpha virt. eigenvalues --    0.78963   0.79392   0.80394   0.80837   0.82374

 Mulliken charges:
               1
     1  O   -0.508114
     2  H    0.252621
     3  H    0.255498
     4  O   -0.507786
     5  H    0.251358
     6  H    0.256423
 Sum of Mulliken charges =  -0.00000

 Dipole moment (field-independent basis, Debye):
    X=             -1.7598    Y=             -1.1139    Z=              0.0000  Tot=              2.0827
 Quadrupole moment (field-independent basis, Debye-Ang):
   XX=             -9.4576   YY=              6.3649   ZZ=            -14.7118
   XY=             -4.5588   XZ=              0.0000   YZ=              0.0000

 Normal termination of Gaussian 16 at Sat Aug 27 04:46:28 2022.
