 Gaussian 16, Revision A.03,
 Gaussian 16:  ES64L-G16RevA.03 25-Dec-2016

 ------------------
 #p CCSD(T)/cc-pVTZ
 ------------------

 ------------
 H2O_H2O_3891
 ------------
 Symbolic Z-matrix:
 Charge =  0 Multiplicity = 1

                         Standard orientation:
 ---------------------------------------------------------------------
 Center     Atomic      Atomic             Coordinates (Angstroms)
 Number     Number       Type             X           Y           Z
 ---------------------------------------------------------------------
      1          8           0        0.049504   -2.833527    0.000000
      2          1           0       -0.750916   -3.403469    0.000000
      3          1           0        0.848224   -3.405848    0.000000
      4          8           0        0.049504    2.890493    0.000000
      5          1           0       -0.043870    3.868648    0.000000
      6          1           0       -0.845500    2.484940    0.000000
 ---------------------------------------------------------------------

 SCF Done:  E(RHF) =  -152.107190963     A.U. after   10 cycles
 E2 =    -0.5259109285D+00 EUMP2 =    -0.15263310189143D+03
 CCSD(T)
 CCSD(T)= -0.15266032576D+03

 The electronic state is 1-A'.
 Alpha  occ. eigenvalues --  -20.55461 -20.55055  -1.32759  -1.32350  -0.70166
 Alpha  occ. eigenvalues --   -0.69749  -0.56196  -0.55787  -0.49869  -0.49462
 Alpha virt. eigenvalues --    0.14139   0.14648   0.20249   0.20709   0.54390
 Alpha virt. eigenvalues --    0.54831   0.57296   0.57703   0.67867   0.68578
 Alpha virt. eigenvalues --    0.79011   0.79411   0.80443   0.80855   0.82429

 Mulliken charges:
               1
     1  O   -0.507625
     2  H    0.252343
     3  H    0.255288
     4  O   -0.507298
     5  H    0.251134
     6  H    0.256158
 Sum of Mulliken charges =  -0.00000

 Dipole moment (field-independent basis, Debye):
    X=             -1.6985    Y=             -0.9992    Z=              0.0000  Tot=              1.9705
 Quadrupole moment (field-independent basis, Debye-Ang):
   XX=             -9.3455   YY=              6.6152   ZZ=            -14.7117
   XY=             -4.2099   XZ=              0.0000   YZ=              0.0000

 Normal termination of Gaussian 16 at Sat Aug 27 04:06:18 2022.
