 Gaussian 16, Revision A.03,
 Gaussian 16:  ES64L-G16RevA.03 25-Dec-2016

 ------------------
 #p CCSD(T)/cc-pVTZ
 ------------------

 ------------
 H2O_H2O_3536
 ------------
 Symbolic Z-matrix:
 Charge =  0 Multiplicity = 1

                         Standard orientation:
 ---------------------------------------------------------------------
 Center     Atomic      Atomic             Coordinates (Angstroms)
 Number     Number       Type             X           Y           Z
 ---------------------------------------------------------------------
      1          8           0        0.037675   -2.662976    0.000000
      2          1           0       -0.762587   -3.233140    0.000000
      3          1           0        0.836553   -3.235076    0.000000
      4          8           0        0.037675    2.691232    0.000000
      5          1           0        0.263409    3.647553    0.000000
      6          1           0       -0.940167    2.594621    0.000000
 ---------------------------------------------------------------------

 SCF Done:  E(RHF) =  -152.106750089     A.U. after   10 cycles
 E2 =    -0.5259587615D+00 EUMP2 =    -0.15263270885067D+03
 CCSD(T)
 CCSD(T)= -0.15265994160D+03

 The electronic state is 1-A'.
 Alpha  occ. eigenvalues --  -20.55222 -20.54992  -1.32517  -1.32285  -0.69925
 Alpha  occ. eigenvalues --   -0.69687  -0.55933  -0.55702  -0.49624  -0.49393
 Alpha virt. eigenvalues --    0.14295   0.14724   0.20414   0.20712   0.54620
 Alpha virt. eigenvalues --    0.54904   0.57501   0.57737   0.67901   0.68976
 Alpha virt. eigenvalues --    0.79255   0.79481   0.80690   0.80948   0.82667

 Mulliken charges:
               1
     1  O   -0.505021
     2  H    0.251146
     3  H    0.253881
     4  O   -0.504739
     5  H    0.250332
     6  H    0.254401
 Sum of Mulliken charges =  -0.00000

 Dipole moment (field-independent basis, Debye):
    X=             -1.2903    Y=             -0.4968    Z=              0.0000  Tot=              1.3826
 Quadrupole moment (field-independent basis, Debye-Ang):
   XX=             -8.6991   YY=              7.5769   ZZ=            -14.7108
   XY=             -2.6267   XZ=              0.0000   YZ=              0.0000

 Normal termination of Gaussian 16 at Sat Aug 27 01:18:28 2022.
