 Gaussian 16, Revision A.03,
 Gaussian 16:  ES64L-G16RevA.03 25-Dec-2016

 ------------------
 #p CCSD(T)/cc-pVTZ
 ------------------

 ------------
 H2O_H2O_2139
 ------------
 Symbolic Z-matrix:
 Charge =  0 Multiplicity = 1

                         Standard orientation:
 ---------------------------------------------------------------------
 Center     Atomic      Atomic             Coordinates (Angstroms)
 Number     Number       Type             X           Y           Z
 ---------------------------------------------------------------------
      1          8           0        0.045356   -1.909578    0.000000
      2          1           0       -0.755367   -2.479095    0.000000
      3          1           0        0.843772   -2.482323    0.000000
      4          8           0        0.045356    1.954085    0.000000
      5          1           0        0.080978    2.936041    0.000000
      6          1           0       -0.895079    1.669324    0.000000
 ---------------------------------------------------------------------

 SCF Done:  E(RHF) =  -152.106374174     A.U. after   10 cycles
 E2 =    -0.5263058788D+00 EUMP2 =    -0.15263268005303D+03
 CCSD(T)
 CCSD(T)= -0.15265989072D+03

 The electronic state is 1-A'.
 Alpha  occ. eigenvalues --  -20.55157 -20.54404  -1.32437  -1.31680  -0.69852
 Alpha  occ. eigenvalues --   -0.69067  -0.55836  -0.55037  -0.49543  -0.48791
 Alpha virt. eigenvalues --    0.13640   0.15918   0.20248   0.21742   0.53512
 Alpha virt. eigenvalues --    0.55030   0.57569   0.58340   0.64259   0.75576
 Alpha virt. eigenvalues --    0.79038   0.79476   0.80342   0.81190   0.83915

 Mulliken charges:
               1
     1  O   -0.498281
     2  H    0.245824
     3  H    0.253579
     4  O   -0.499673
     5  H    0.243542
     6  H    0.255008
 Sum of Mulliken charges =  -0.00000

 Dipole moment (field-independent basis, Debye):
    X=             -1.5277    Y=             -0.8140    Z=              0.0000  Tot=              1.7310
 Quadrupole moment (field-independent basis, Debye-Ang):
   XX=             -9.1099   YY=              1.5577   ZZ=            -14.7124
   XY=             -2.2552   XZ=              0.0000   YZ=              0.0000

 Normal termination of Gaussian 16 at Sat Aug 27 08:48:25 2022.
