 Gaussian 16, Revision A.03,
 Gaussian 16:  ES64L-G16RevA.03 25-Dec-2016

 ------------------
 #p CCSD(T)/cc-pVTZ
 ------------------

 ------------
 H2O_H2O_2665
 ------------
 Symbolic Z-matrix:
 Charge =  0 Multiplicity = 1

                         Standard orientation:
 ---------------------------------------------------------------------
 Center     Atomic      Atomic             Coordinates (Angstroms)
 Number     Number       Type             X           Y           Z
 ---------------------------------------------------------------------
      1          8           0        0.047535   -2.185489    0.000000
      2          1           0       -0.753091   -2.755142    0.000000
      3          1           0        0.846048   -2.758099    0.000000
      4          8           0        0.047535    2.236079    0.000000
      5          1           0        0.018690    3.218257    0.000000
      6          1           0       -0.872203    1.890263    0.000000
 ---------------------------------------------------------------------

 SCF Done:  E(RHF) =  -152.106807681     A.U. after   10 cycles
 E2 =    -0.5260626172D+00 EUMP2 =    -0.15263287029844D+03
 CCSD(T)
 CCSD(T)= -0.15266009070D+03

 The electronic state is 1-A'.
 Alpha  occ. eigenvalues --  -20.55305 -20.54670  -1.32596  -1.31958  -0.70006
 Alpha  occ. eigenvalues --   -0.69348  -0.56007  -0.55371  -0.49703  -0.49070
 Alpha virt. eigenvalues --    0.13728   0.15419   0.20241   0.21290   0.54146
 Alpha virt. eigenvalues --    0.55006   0.57444   0.58002   0.65975   0.72471
 Alpha virt. eigenvalues --    0.79157   0.79817   0.80271   0.81701   0.83144

 Mulliken charges:
               1
     1  O   -0.504218
     2  H    0.249409
     3  H    0.255205
     4  O   -0.504225
     5  H    0.247396
     6  H    0.256434
 Sum of Mulliken charges =   0.00000

 Dipole moment (field-independent basis, Debye):
    X=             -1.6164    Y=             -0.9066    Z=              0.0000  Tot=              1.8533
 Quadrupole moment (field-independent basis, Debye-Ang):
   XX=             -9.2285   YY=              3.0494   ZZ=            -14.7120
   XY=             -2.8997   XZ=              0.0000   YZ=              0.0000

 Normal termination of Gaussian 16 at Fri Aug 26 14:51:50 2022.
