 Gaussian 16, Revision A.03,
 Gaussian 16:  ES64L-G16RevA.03 25-Dec-2016

 ------------------
 #p CCSD(T)/cc-pVTZ
 ------------------

 ------------
 H2O_H2O_3441
 ------------
 Symbolic Z-matrix:
 Charge =  0 Multiplicity = 1

                         Standard orientation:
 ---------------------------------------------------------------------
 Center     Atomic      Atomic             Coordinates (Angstroms)
 Number     Number       Type             X           Y           Z
 ---------------------------------------------------------------------
      1          8           0        0.049508   -2.594208    0.000000
      2          1           0       -0.750989   -3.164041    0.000000
      3          1           0        0.848150   -3.166637    0.000000
      4          8           0        0.049508    2.651160    0.000000
      5          1           0       -0.043733    3.629328    0.000000
      6          1           0       -0.845552    2.245729    0.000000
 ---------------------------------------------------------------------

 SCF Done:  E(RHF) =  -152.107116617     A.U. after   10 cycles
 E2 =    -0.5259368222D+00 EUMP2 =    -0.15263305343965D+03
 CCSD(T)
 CCSD(T)= -0.15266027727D+03

 The electronic state is 1-A'.
 Alpha  occ. eigenvalues --  -20.55431 -20.54941  -1.32728  -1.32235  -0.70136
 Alpha  occ. eigenvalues --   -0.69631  -0.56161  -0.55668  -0.49837  -0.49347
 Alpha virt. eigenvalues --    0.14035   0.14851   0.20244   0.20858   0.54390
 Alpha virt. eigenvalues --    0.54935   0.57320   0.57792   0.67533   0.69176
 Alpha virt. eigenvalues --    0.79043   0.79523   0.80444   0.80895   0.82643

 Mulliken charges:
               1
     1  O   -0.507149
     2  H    0.251701
     3  H    0.255488
     4  O   -0.506716
     5  H    0.250160
     6  H    0.256517
 Sum of Mulliken charges =  -0.00000

 Dipole moment (field-independent basis, Debye):
    X=             -1.6951    Y=             -1.0040    Z=              0.0000  Tot=              1.9701
 Quadrupole moment (field-independent basis, Debye-Ang):
   XX=             -9.3458   YY=              5.1719   ZZ=            -14.7117
   XY=             -3.8076   XZ=              0.0000   YZ=              0.0000

 Normal termination of Gaussian 16 at Fri Aug 26 22:21:42 2022.
