 Gaussian 16, Revision A.03,
 Gaussian 16:  ES64L-G16RevA.03 25-Dec-2016

 ------------------
 #p CCSD(T)/cc-pVTZ
 ------------------

 ------------
 H2O_H2O_3529
 ------------
 Symbolic Z-matrix:
 Charge =  0 Multiplicity = 1

                         Standard orientation:
 ---------------------------------------------------------------------
 Center     Atomic      Atomic             Coordinates (Angstroms)
 Number     Number       Type             X           Y           Z
 ---------------------------------------------------------------------
      1          8           0        0.014783   -2.676216    0.000000
      2          1           0       -0.785059   -3.246968    0.000000
      3          1           0        0.814082   -3.247728    0.000000
      4          8           0        0.014783    2.680094    0.000000
      5          1           0        0.639650    3.438413    0.000000
      6          1           0       -0.905200    3.025258    0.000000
 ---------------------------------------------------------------------

 SCF Done:  E(RHF) =  -152.106439961     A.U. after   10 cycles
 E2 =    -0.5259828137D+00 EUMP2 =    -0.15263242277460D+03
 CCSD(T)
 CCSD(T)= -0.15265966238D+03

 The electronic state is 1-A'.
 Alpha  occ. eigenvalues --  -20.55039 -20.55008  -1.32333  -1.32302  -0.69742
 Alpha  occ. eigenvalues --   -0.69710  -0.55735  -0.55703  -0.49438  -0.49406
 Alpha virt. eigenvalues --    0.14458   0.14686   0.20553   0.20644   0.54798
 Alpha virt. eigenvalues --    0.54895   0.57655   0.57706   0.68070   0.69028
 Alpha virt. eigenvalues --    0.79438   0.79471   0.80878   0.80938   0.82778

 Mulliken charges:
               1
     1  O   -0.503172
     2  H    0.251052
     3  H    0.252120
     4  O   -0.503120
     5  H    0.250842
     6  H    0.252277
 Sum of Mulliken charges =  -0.00000

 Dipole moment (field-independent basis, Debye):
    X=             -0.5062    Y=             -0.0681    Z=              0.0000  Tot=              0.5107
 Quadrupole moment (field-independent basis, Debye-Ang):
   XX=             -7.9471   YY=              9.1443   ZZ=            -14.7102
   XY=             -0.9177   XZ=              0.0000   YZ=              0.0000

 Normal termination of Gaussian 16 at Sat Aug 27 01:15:38 2022.
