 Gaussian 16, Revision A.03,
 Gaussian 16:  ES64L-G16RevA.03 25-Dec-2016

 ------------------
 #p CCSD(T)/cc-pVTZ
 ------------------

 ------------
 H2O_H2O_3303
 ------------
 Symbolic Z-matrix:
 Charge =  0 Multiplicity = 1

                         Standard orientation:
 ---------------------------------------------------------------------
 Center     Atomic      Atomic             Coordinates (Angstroms)
 Number     Number       Type             X           Y           Z
 ---------------------------------------------------------------------
      1          8           0        0.011143   -2.557471    0.000000
      2          1           0       -0.788642   -3.128304    0.000000
      3          1           0        0.810500   -3.128903    0.000000
      4          8           0        0.011143    2.559658    0.000000
      5          1           0        0.684196    3.275552    0.000000
      6          1           0       -0.884336    2.964163    0.000000
 ---------------------------------------------------------------------

 SCF Done:  E(RHF) =  -152.106269109     A.U. after   10 cycles
 E2 =    -0.5260070123D+00 EUMP2 =    -0.15263227612177D+03
 CCSD(T)
 CCSD(T)= -0.15265951876D+03

 The electronic state is 1-A'.
 Alpha  occ. eigenvalues --  -20.54970 -20.54950  -1.32263  -1.32243  -0.69672
 Alpha  occ. eigenvalues --   -0.69652  -0.55659  -0.55632  -0.49366  -0.49347
 Alpha virt. eigenvalues --    0.14451   0.14789   0.20580   0.20697   0.54831
 Alpha virt. eigenvalues --    0.54990   0.57702   0.57759   0.67755   0.69510
 Alpha virt. eigenvalues --    0.79503   0.79536   0.80933   0.81017   0.82750

 Mulliken charges:
               1
     1  O   -0.502167
     2  H    0.250627
     3  H    0.251540
     4  O   -0.502129
     5  H    0.250465
     6  H    0.251663
 Sum of Mulliken charges =  -0.00000

 Dipole moment (field-independent basis, Debye):
    X=             -0.3810    Y=             -0.0385    Z=              0.0000  Tot=              0.3830
 Quadrupole moment (field-independent basis, Debye-Ang):
   XX=             -7.8906   YY=              8.2888   ZZ=            -14.7100
   XY=             -0.6408   XZ=              0.0000   YZ=              0.0000

 Normal termination of Gaussian 16 at Fri Aug 26 21:12:12 2022.
