 Gaussian 16, Revision A.03,
 Gaussian 16:  ES64L-G16RevA.03 25-Dec-2016

 ------------------
 #p CCSD(T)/cc-pVTZ
 ------------------

 ------------
 H2O_H2O_3424
 ------------
 Symbolic Z-matrix:
 Charge =  0 Multiplicity = 1

                         Standard orientation:
 ---------------------------------------------------------------------
 Center     Atomic      Atomic             Coordinates (Angstroms)
 Number     Number       Type             X           Y           Z
 ---------------------------------------------------------------------
      1          8           0        0.057221   -2.549925    0.000000
      2          1           0       -0.743426   -3.119548    0.000000
      3          1           0        0.855713   -3.122564    0.000000
      4          8           0        0.057221    2.663936    0.000000
      5          1           0       -0.512402    3.464584    0.000000
      6          1           0       -0.515418    1.865444    0.000000
 ---------------------------------------------------------------------

 SCF Done:  E(RHF) =  -152.107990573     A.U. after   10 cycles
 E2 =    -0.5258811740D+00 EUMP2 =    -0.15263387174649D+03
 CCSD(T)
 CCSD(T)= -0.15266107375D+03

 The electronic state is 1-A'.
 Alpha  occ. eigenvalues --  -20.55880 -20.54872  -1.33177  -1.32174  -0.70582
 Alpha  occ. eigenvalues --   -0.69564  -0.56649  -0.55633  -0.50293  -0.49293
 Alpha virt. eigenvalues --    0.13510   0.15042   0.19933   0.21143   0.53951
 Alpha virt. eigenvalues --    0.54887   0.56947   0.57836   0.66930   0.69277
 Alpha virt. eigenvalues --    0.78595   0.79566   0.79883   0.80256   0.82768

 Mulliken charges:
               1
     1  O   -0.511782
     2  H    0.253985
     3  H    0.258039
     4  O   -0.511276
     5  H    0.250994
     6  H    0.260041
 Sum of Mulliken charges =  -0.00000

 Dipole moment (field-independent basis, Debye):
    X=             -1.9595    Y=             -2.0165    Z=              0.0000  Tot=              2.8118
 Quadrupole moment (field-independent basis, Debye-Ang):
   XX=             -9.8629   YY=              0.3169   ZZ=            -14.7139
   XY=             -5.3946   XZ=              0.0000   YZ=              0.0000

 Normal termination of Gaussian 16 at Fri Aug 26 22:12:54 2022.
