 Gaussian 16, Revision A.03,
 Gaussian 16:  ES64L-G16RevA.03 25-Dec-2016

 ------------------
 #p CCSD(T)/cc-pVTZ
 ------------------

 -----------
 H2O_H2O_119
 -----------
 Symbolic Z-matrix:
 Charge =  0 Multiplicity = 1

                         Standard orientation:
 ---------------------------------------------------------------------
 Center     Atomic      Atomic             Coordinates (Angstroms)
 Number     Number       Type             X           Y           Z
 ---------------------------------------------------------------------
      1          8           0        0.054293   -0.815000    0.000000
      2          1           0       -0.748382   -1.381762    0.000000
      3          1           0        0.850737   -1.390485    0.000000
      4          8           0        0.054293    0.891918    0.000000
      5          1           0       -0.224380    1.834175    0.000000
      6          1           0       -0.746660    0.322725    0.000000
 ---------------------------------------------------------------------

 SCF Done:  E(RHF) =  -151.949818236     A.U. after   12 cycles
 E2 =    -0.5476885204D+00 EUMP2 =    -0.15249750675670D+03
 CCSD(T)
 CCSD(T)= -0.15252266937D+03

 The electronic state is 1-A'.
 Alpha  occ. eigenvalues --  -20.54750 -20.49680  -1.39482  -1.26385  -0.76662
 Alpha  occ. eigenvalues --   -0.71505  -0.54205  -0.53458  -0.43374  -0.42284
 Alpha virt. eigenvalues --    0.13374   0.18810   0.19872   0.25140   0.50616
 Alpha virt. eigenvalues --    0.55047   0.61225   0.67292   0.73138   0.76611
 Alpha virt. eigenvalues --    0.79004   0.80702   0.84108   0.84766   0.88728

 Mulliken charges:
               1
     1  O   -0.319650
     2  H    0.158253
     3  H    0.206465
     4  O   -0.421722
     5  H    0.124498
     6  H    0.252155
 Sum of Mulliken charges =  -0.00000

 Dipole moment (field-independent basis, Debye):
    X=             -1.4293    Y=             -1.8189    Z=              0.0000  Tot=              2.3132
 Quadrupole moment (field-independent basis, Debye-Ang):
   XX=             -9.7544   YY=             -8.4405   ZZ=            -14.5863
   XY=             -1.2403   XZ=              0.0000   YZ=              0.0000

 Normal termination of Gaussian 16 at Fri Aug 26 12:56:26 2022.
