 Gaussian 16, Revision A.03,
 Gaussian 16:  ES64L-G16RevA.03 25-Dec-2016

 ------------------
 #p CCSD(T)/cc-pVTZ
 ------------------

 -----------
 H2O_H2O_966
 -----------
 Symbolic Z-matrix:
 Charge =  0 Multiplicity = 1

                         Standard orientation:
 ---------------------------------------------------------------------
 Center     Atomic      Atomic             Coordinates (Angstroms)
 Number     Number       Type             X           Y           Z
 ---------------------------------------------------------------------
      1          8           0        0.049554   -1.277997    0.000000
      2          1           0       -0.751874   -1.846520    0.000000
      3          1           0        0.847259   -1.851732    0.000000
      4          8           0        0.049554    1.334787    0.000000
      5          1           0       -0.042087    2.313107    0.000000
      6          1           0       -0.846167    0.930821    0.000000
 ---------------------------------------------------------------------

 SCF Done:  E(RHF) =  -152.101013211     A.U. after   11 cycles
 E2 =    -0.5287203781D+00 EUMP2 =    -0.15262973358947D+03
 CCSD(T)
 CCSD(T)= -0.15265690630D+03

 The electronic state is 1-A'.
 Alpha  occ. eigenvalues --  -20.55006 -20.53051  -1.32541  -1.30294  -0.69947
 Alpha  occ. eigenvalues --   -0.67992  -0.56201  -0.52841  -0.49677  -0.47317
 Alpha virt. eigenvalues --    0.13733   0.17401   0.20012   0.23679   0.53214
 Alpha virt. eigenvalues --    0.57476   0.58535   0.59114   0.70606   0.75362
 Alpha virt. eigenvalues --    0.76894   0.78989   0.82962   0.82969   0.85071

 Mulliken charges:
               1
     1  O   -0.474033
     2  H    0.231586
     3  H    0.249526
     4  O   -0.475360
     5  H    0.218654
     6  H    0.249626
 Sum of Mulliken charges =  -0.00000

 Dipole moment (field-independent basis, Debye):
    X=             -1.5664    Y=             -1.1190    Z=              0.0000  Tot=              1.9251
 Quadrupole moment (field-independent basis, Debye-Ang):
   XX=             -9.4101   YY=             -3.2266   ZZ=            -14.7235
   XY=             -1.6389   XZ=              0.0000   YZ=              0.0000

 Normal termination of Gaussian 16 at Fri Aug 26 21:35:28 2022.
