 Gaussian 16, Revision A.03,
 Gaussian 16:  ES64L-G16RevA.03 25-Dec-2016

 ------------------
 #p CCSD(T)/cc-pVTZ
 ------------------

 ------------
 H2O_H2O_2425
 ------------
 Symbolic Z-matrix:
 Charge =  0 Multiplicity = 1

                         Standard orientation:
 ---------------------------------------------------------------------
 Center     Atomic      Atomic             Coordinates (Angstroms)
 Number     Number       Type             X           Y           Z
 ---------------------------------------------------------------------
      1          8           0        0.000000   -0.000000    2.093302
      2          1           0        0.000000    0.799571    2.664434
      3          1           0       -0.000000   -0.799571    2.664434
      4          8           0        0.000000   -0.000000   -2.093302
      5          1           0       -0.000000   -0.799571   -2.664434
      6          1           0        0.000000    0.799571   -2.664434
 ---------------------------------------------------------------------

 SCF Done:  E(RHF) =  -152.105354390     A.U. after   10 cycles
 E2 =    -0.5262080215D+00 EUMP2 =    -0.15263156241114D+03
 CCSD(T)
 CCSD(T)= -0.15265881284D+03

 The electronic state is 1-AG.
 Alpha  occ. eigenvalues --  -20.54643 -20.54643  -1.31933  -1.31925  -0.69349
 Alpha  occ. eigenvalues --   -0.69340  -0.55387  -0.55143  -0.49042  -0.49012
 Alpha virt. eigenvalues --    0.14266   0.15436   0.20640   0.21013   0.54602
 Alpha virt. eigenvalues --    0.55869   0.57868   0.58071   0.63529   0.73745
 Alpha virt. eigenvalues --    0.79605   0.80076   0.81085   0.81549   0.81644

 Mulliken charges:
               1
     1  O   -0.496156
     2  H    0.248078
     3  H    0.248078
     4  O   -0.496156
     5  H    0.248078
     6  H    0.248078
 Sum of Mulliken charges =   0.00000

 Dipole moment (field-independent basis, Debye):
    X=             -0.0000    Y=              0.0000    Z=              0.0000  Tot=              0.0000
 Quadrupole moment (field-independent basis, Debye-Ang):
   XX=            -14.7094   YY=             -7.8305   ZZ=              4.6230
   XY=              0.0000   XZ=              0.0000   YZ=             -0.0000

 9\MP4DQ=-152.6406552\MP4SDQ=-152.6437335\CCSD=-152.6431373\CCSD(T)=-15
 Normal termination of Gaussian 16 at Sat Aug 27 10:29:21 2022.
