 Gaussian 16, Revision A.03,
 Gaussian 16:  ES64L-G16RevA.03 25-Dec-2016

 ------------------
 #p CCSD(T)/cc-pVTZ
 ------------------

 -----------
 H2O_H2O_425
 -----------
 Symbolic Z-matrix:
 Charge =  0 Multiplicity = 1

                         Standard orientation:
 ---------------------------------------------------------------------
 Center     Atomic      Atomic             Coordinates (Angstroms)
 Number     Number       Type             X           Y           Z
 ---------------------------------------------------------------------
      1          8           0        0.000000   -0.000000    1.029630
      2          1           0        0.000000    0.799571    1.600762
      3          1           0       -0.000000   -0.799571    1.600762
      4          8           0        0.000000   -0.000000   -1.029630
      5          1           0       -0.000000   -0.799571   -1.600762
      6          1           0        0.000000    0.799571   -1.600762
 ---------------------------------------------------------------------

 SCF Done:  E(RHF) =  -152.058243907     A.U. after   11 cycles
 E2 =    -0.5341645887D+00 EUMP2 =    -0.15259240849566D+03
 CCSD(T)
 CCSD(T)= -0.15261933960D+03

 The electronic state is 1-AG.
 Alpha  occ. eigenvalues --  -20.51924 -20.51923  -1.31653  -1.28711  -0.68362
 Alpha  occ. eigenvalues --   -0.66564  -0.60484  -0.48914  -0.45172  -0.44466
 Alpha virt. eigenvalues --    0.14655   0.18359   0.20509   0.22748   0.50151
 Alpha virt. eigenvalues --    0.59145   0.59261   0.66045   0.70402   0.77786
 Alpha virt. eigenvalues --    0.79038   0.82518   0.84490   0.86697   0.87159

 Mulliken charges:
               1
     1  O   -0.433946
     2  H    0.216973
     3  H    0.216973
     4  O   -0.433946
     5  H    0.216973
     6  H    0.216973
 Sum of Mulliken charges =  -0.00000

 Dipole moment (field-independent basis, Debye):
    X=             -0.0000    Y=              0.0000    Z=              0.0000  Tot=              0.0000
 Quadrupole moment (field-independent basis, Debye-Ang):
   XX=            -14.7505   YY=             -8.1299   ZZ=             -5.3773
   XY=              0.0000   XZ=             -0.0000   YZ=             -0.0000

 \MP4DQ=-152.5998708\MP4SDQ=-152.6033619\CCSD=-152.6026046\CCSD(T)=-152
 Normal termination of Gaussian 16 at Fri Aug 26 16:20:50 2022.
