 Gaussian 16, Revision A.03,
 Gaussian 16:  ES64L-G16RevA.03 25-Dec-2016

 ------------------
 #p CCSD(T)/cc-pVTZ
 ------------------

 ------------
 H2O_H2O_4517
 ------------
 Symbolic Z-matrix:
 Charge =  0 Multiplicity = 1

                         Standard orientation:
 ---------------------------------------------------------------------
 Center     Atomic      Atomic             Coordinates (Angstroms)
 Number     Number       Type             X           Y           Z
 ---------------------------------------------------------------------
      1          8           0        0.051267   -3.162342    0.000000
      2          1           0       -0.749092   -3.732369    0.000000
      3          1           0        0.850049   -3.734577    0.000000
      4          8           0        0.051267    3.225905    0.000000
      5          1           0       -0.105985    4.195842    0.000000
      6          1           0       -0.815247    2.762593    0.000000
 ---------------------------------------------------------------------

 SCF Done:  E(RHF) =  -152.107320206     A.U. after   10 cycles
 E2 =    -0.5258869271D+00 EUMP2 =    -0.15263320713272D+03
 CCSD(T)
 CCSD(T)= -0.15266042910D+03

 The electronic state is 1-A'.
 Alpha  occ. eigenvalues --  -20.55530 -20.55170  -1.32829  -1.32467  -0.70235
 Alpha  occ. eigenvalues --   -0.69868  -0.56272  -0.55909  -0.49940  -0.49580
 Alpha virt. eigenvalues --    0.14132   0.14503   0.20208   0.20591   0.54327
 Alpha virt. eigenvalues --    0.54707   0.57238   0.57599   0.67913   0.68304
 Alpha virt. eigenvalues --    0.78940   0.79295   0.80372   0.80757   0.82301

 Mulliken charges:
               1
     1  O   -0.508370
     2  H    0.253084
     3  H    0.255286
     4  O   -0.508144
     5  H    0.252112
     6  H    0.256032
 Sum of Mulliken charges =  -0.00000

 Dipole moment (field-independent basis, Debye):
    X=             -1.7623    Y=             -1.1100    Z=              0.0000  Tot=              2.0828
 Quadrupole moment (field-independent basis, Debye-Ang):
   XX=             -9.4578   YY=              7.9769   ZZ=            -14.7118
   XY=             -5.0470   XZ=              0.0000   YZ=              0.0000

 Normal termination of Gaussian 16 at Sat Aug 27 07:46:15 2022.
