 Gaussian 16, Revision A.03,
 Gaussian 16:  ES64L-G16RevA.03 25-Dec-2016

 ------------------
 #p CCSD(T)/cc-pVTZ
 ------------------

 ------------
 H2O_H2O_2129
 ------------
 Symbolic Z-matrix:
 Charge =  0 Multiplicity = 1

                         Standard orientation:
 ---------------------------------------------------------------------
 Center     Atomic      Atomic             Coordinates (Angstroms)
 Number     Number       Type             X           Y           Z
 ---------------------------------------------------------------------
      1          8           0        0.014783   -1.931648    0.000000
      2          1           0       -0.785163   -2.502253    0.000000
      3          1           0        0.813978   -2.503306    0.000000
      4          8           0        0.014783    1.935520    0.000000
      5          1           0        0.639789    2.693725    0.000000
      6          1           0       -0.905137    2.280853    0.000000
 ---------------------------------------------------------------------

 SCF Done:  E(RHF) =  -152.104991307     A.U. after   10 cycles
 E2 =    -0.5263655568D+00 EUMP2 =    -0.15263135686406D+03
 CCSD(T)
 CCSD(T)= -0.15265860379D+03

 The electronic state is 1-A'.
 Alpha  occ. eigenvalues --  -20.54551 -20.54489  -1.31834  -1.31767  -0.69253
 Alpha  occ. eigenvalues --   -0.69183  -0.55349  -0.54866  -0.48943  -0.48852
 Alpha virt. eigenvalues --    0.14165   0.15746   0.20601   0.21211   0.54049
 Alpha virt. eigenvalues --    0.56335   0.57917   0.58216   0.61927   0.75131
 Alpha virt. eigenvalues --    0.79429   0.80399   0.80480   0.81106   0.82392

 Mulliken charges:
               1
     1  O   -0.492622
     2  H    0.245076
     3  H    0.247620
     4  O   -0.492546
     5  H    0.244701
     6  H    0.247771
 Sum of Mulliken charges =  -0.00000

 Dipole moment (field-independent basis, Debye):
    X=             -0.4983    Y=             -0.0706    Z=              0.0000  Tot=              0.5033
 Quadrupole moment (field-independent basis, Debye-Ang):
   XX=             -7.9758   YY=              3.1790   ZZ=            -14.7094
   XY=             -0.5482   XZ=              0.0000   YZ=              0.0000

 Normal termination of Gaussian 16 at Sat Aug 27 08:45:08 2022.
