 Gaussian 16, Revision A.03,
 Gaussian 16:  ES64L-G16RevA.03 25-Dec-2016

 ------------------
 #p CCSD(T)/cc-pVTZ
 ------------------

 ------------
 H2O_H2O_1682
 ------------
 Symbolic Z-matrix:
 Charge =  0 Multiplicity = 1

                         Standard orientation:
 ---------------------------------------------------------------------
 Center     Atomic      Atomic             Coordinates (Angstroms)
 Number     Number       Type             X           Y           Z
 ---------------------------------------------------------------------
      1          8           0        0.025268   -1.688062    0.000000
      2          1           0       -0.775035   -2.258167    0.000000
      3          1           0        0.824105   -2.260220    0.000000
      4          8           0        0.025268    1.699777    0.000000
      5          1           0        0.490887    2.565054    0.000000
      6          1           0       -0.944247    1.859613    0.000000
 ---------------------------------------------------------------------

 SCF Done:  E(RHF) =  -152.104113201     A.U. after   10 cycles
 E2 =    -0.5267779803D+00 EUMP2 =    -0.15263089118100D+03
 CCSD(T)
 CCSD(T)= -0.15265813982D+03

 The electronic state is 1-A'.
 Alpha  occ. eigenvalues --  -20.54412 -20.54169  -1.31699  -1.31435  -0.69124
 Alpha  occ. eigenvalues --   -0.68851  -0.55424  -0.54216  -0.48822  -0.48500
 Alpha virt. eigenvalues --    0.14124   0.16269   0.20503   0.21658   0.52929
 Alpha virt. eigenvalues --    0.56975   0.58064   0.58521   0.62865   0.76631
 Alpha virt. eigenvalues --    0.78667   0.78847   0.80035   0.81505   0.84586

 Mulliken charges:
               1
     1  O   -0.484223
     2  H    0.239312
     3  H    0.245409
     4  O   -0.484006
     5  H    0.238186
     6  H    0.245322
 Sum of Mulliken charges =  -0.00000

 Dipole moment (field-independent basis, Debye):
    X=             -0.8403    Y=             -0.2185    Z=              0.0000  Tot=              0.8683
 Quadrupole moment (field-independent basis, Debye-Ang):
   XX=             -8.2568   YY=              0.9857   ZZ=            -14.7098
   XY=             -0.7981   XZ=              0.0000   YZ=              0.0000

 Normal termination of Gaussian 16 at Sat Aug 27 06:11:47 2022.
