 Gaussian 16, Revision A.03,
 Gaussian 16:  ES64L-G16RevA.03 25-Dec-2016

 ------------------
 #p CCSD(T)/cc-pVTZ
 ------------------

 -----------
 H2O_H2O_517
 -----------
 Symbolic Z-matrix:
 Charge =  0 Multiplicity = 1

                         Standard orientation:
 ---------------------------------------------------------------------
 Center     Atomic      Atomic             Coordinates (Angstroms)
 Number     Number       Type             X           Y           Z
 ---------------------------------------------------------------------
      1          8           0        0.051354   -1.035143    0.000000
      2          1           0       -0.750570   -1.602966    0.000000
      3          1           0        0.848558   -1.609576    0.000000
      4          8           0        0.051354    1.098425    0.000000
      5          1           0       -0.103227    2.068791    0.000000
      6          1           0       -0.816432    0.637499    0.000000
 ---------------------------------------------------------------------

 SCF Done:  E(RHF) =  -152.075338699     A.U. after   11 cycles
 E2 =    -0.5334340883D+00 EUMP2 =    -0.15260877278702D+03
 CCSD(T)
 CCSD(T)= -0.15263567151D+03

 The electronic state is 1-A'.
 Alpha  occ. eigenvalues --  -20.54618 -20.51824  -1.33569  -1.28956  -0.70926
 Alpha  occ. eigenvalues --   -0.68449  -0.56004  -0.50492  -0.49895  -0.45835
 Alpha virt. eigenvalues --    0.13720   0.18236   0.19819   0.24453   0.52119
 Alpha virt. eigenvalues --    0.56958   0.59823   0.62650   0.71847   0.75086
 Alpha virt. eigenvalues --    0.79384   0.82823   0.83816   0.84396   0.87880

 Mulliken charges:
               1
     1  O   -0.435337
     2  H    0.212044
     3  H    0.234845
     4  O   -0.446638
     5  H    0.188087
     6  H    0.247000
 Sum of Mulliken charges =  -0.00000

 Dipole moment (field-independent basis, Debye):
    X=             -1.5216    Y=             -1.3092    Z=              0.0000  Tot=              2.0073
 Quadrupole moment (field-independent basis, Debye-Ang):
   XX=             -9.5524   YY=             -5.4340   ZZ=            -14.7084
   XY=             -1.3989   XZ=              0.0000   YZ=              0.0000

 Normal termination of Gaussian 16 at Fri Aug 26 17:15:10 2022.
