 Gaussian 16, Revision A.03,
 Gaussian 16:  ES64L-G16RevA.03 25-Dec-2016

 ------------------
 #p CCSD(T)/cc-pVTZ
 ------------------

 ------------
 H2O_H2O_1958
 ------------
 Symbolic Z-matrix:
 Charge =  0 Multiplicity = 1

                         Standard orientation:
 ---------------------------------------------------------------------
 Center     Atomic      Atomic             Coordinates (Angstroms)
 Number     Number       Type             X           Y           Z
 ---------------------------------------------------------------------
      1          8           0        0.028567   -1.832409    0.000000
      2          1           0       -0.771767   -2.402472    0.000000
      3          1           0        0.827374   -2.404609    0.000000
      4          8           0        0.028567    1.847636    0.000000
      5          1           0        0.436645    2.741493    0.000000
      6          1           0       -0.949321    1.943773    0.000000
 ---------------------------------------------------------------------

 SCF Done:  E(RHF) =  -152.105046346     A.U. after   10 cycles
 E2 =    -0.5264844255D+00 EUMP2 =    -0.15263153077117D+03
 CCSD(T)
 CCSD(T)= -0.15265876724D+03

 The electronic state is 1-A'.
 Alpha  occ. eigenvalues --  -20.54638 -20.54363  -1.31917  -1.31635  -0.69338
 Alpha  occ. eigenvalues --   -0.69043  -0.55429  -0.54734  -0.49023  -0.48728
 Alpha virt. eigenvalues --    0.14017   0.15975   0.20489   0.21461   0.53359
 Alpha virt. eigenvalues --    0.56082   0.57924   0.58324   0.62494   0.75945
 Alpha virt. eigenvalues --    0.79143   0.79587   0.80770   0.80816   0.83242

 Mulliken charges:
               1
     1  O   -0.491045
     2  H    0.242960
     3  H    0.248531
     4  O   -0.491154
     5  H    0.241835
     6  H    0.248874
 Sum of Mulliken charges =  -0.00000

 Dipole moment (field-independent basis, Debye):
    X=             -0.9584    Y=             -0.2803    Z=              0.0000  Tot=              0.9986
 Quadrupole moment (field-independent basis, Debye-Ang):
   XX=             -8.3511   YY=              2.0514   ZZ=            -14.7101
   XY=             -1.0713   XZ=              0.0000   YZ=              0.0000

 Normal termination of Gaussian 16 at Sat Aug 27 07:46:39 2022.
