 Gaussian 16, Revision A.03,
 Gaussian 16:  ES64L-G16RevA.03 25-Dec-2016

 ------------------
 #p CCSD(T)/cc-pVTZ
 ------------------

 -----------
 H2O_H2O_106
 -----------
 Symbolic Z-matrix:
 Charge =  0 Multiplicity = 1

                         Standard orientation:
 ---------------------------------------------------------------------
 Center     Atomic      Atomic             Coordinates (Angstroms)
 Number     Number       Type             X           Y           Z
 ---------------------------------------------------------------------
      1          8           0        0.021866   -0.852111    0.000000
      2          1           0       -0.778958   -1.421485    0.000000
      3          1           0        0.820180   -1.424998    0.000000
      4          8           0        0.021866    0.860710    0.000000
      5          1           0        0.543841    1.693204    0.000000
      6          1           0       -0.934915    1.084487    0.000000
 ---------------------------------------------------------------------

 SCF Done:  E(RHF) =  -151.967612240     A.U. after   11 cycles
 E2 =    -0.5458039831D+00 EUMP2 =    -0.15251341622260D+03
 CCSD(T)
 CCSD(T)= -0.15253876030D+03

 The electronic state is 1-A'.
 Alpha  occ. eigenvalues --  -20.51548 -20.51298  -1.35273  -1.27171  -0.70733
 Alpha  occ. eigenvalues --   -0.67671  -0.63507  -0.51734  -0.43499  -0.36436
 Alpha virt. eigenvalues --    0.14436   0.19193   0.19966   0.23263   0.51912
 Alpha virt. eigenvalues --    0.57639   0.59009   0.65995   0.69650   0.78840
 Alpha virt. eigenvalues --    0.79897   0.83503   0.83757   0.85764   0.88333

 Mulliken charges:
               1
     1  O   -0.378261
     2  H    0.179937
     3  H    0.198387
     4  O   -0.358735
     5  H    0.141365
     6  H    0.217306
 Sum of Mulliken charges =  -0.00000

 Dipole moment (field-independent basis, Debye):
    X=             -0.6156    Y=             -0.2179    Z=              0.0000  Tot=              0.6530
 Quadrupole moment (field-independent basis, Debye-Ang):
   XX=             -8.6114   YY=             -8.1666   ZZ=            -14.7427
   XY=             -0.2724   XZ=              0.0000   YZ=              0.0000

 Normal termination of Gaussian 16 at Fri Aug 26 12:49:07 2022.
