 Gaussian 16, Revision A.03,
 Gaussian 16:  ES64L-G16RevA.03 25-Dec-2016

 ------------------
 #p CCSD(T)/cc-pVTZ
 ------------------

 ------------
 H2O_H2O_1881
 ------------
 Symbolic Z-matrix:
 Charge =  0 Multiplicity = 1

                         Standard orientation:
 ---------------------------------------------------------------------
 Center     Atomic      Atomic             Coordinates (Angstroms)
 Number     Number       Type             X           Y           Z
 ---------------------------------------------------------------------
      1          8           0        0.021861   -1.796094    0.000000
      2          1           0       -0.778307   -2.366390    0.000000
      3          1           0        0.820834   -2.368062    0.000000
      4          8           0        0.021861    1.804744    0.000000
      5          1           0        0.542877    2.637840    0.000000
      6          1           0       -0.935177    2.027418    0.000000
 ---------------------------------------------------------------------

 SCF Done:  E(RHF) =  -152.104609376     A.U. after   10 cycles
 E2 =    -0.5265620328D+00 EUMP2 =    -0.15263117140850D+03
 CCSD(T)
 CCSD(T)= -0.15265841616D+03

 The electronic state is 1-A'.
 Alpha  occ. eigenvalues --  -20.54488 -20.54326  -1.31769  -1.31598  -0.69191
 Alpha  occ. eigenvalues --   -0.69013  -0.55370  -0.54557  -0.48882  -0.48676
 Alpha virt. eigenvalues --    0.14115   0.16032   0.20543   0.21442   0.53350
 Alpha virt. eigenvalues --    0.56592   0.57991   0.58360   0.61962   0.75998
 Alpha virt. eigenvalues --    0.79090   0.79510   0.80650   0.80979   0.83415

 Mulliken charges:
               1
     1  O   -0.488392
     2  H    0.242089
     3  H    0.246587
     4  O   -0.488408
     5  H    0.241356
     6  H    0.246768
 Sum of Mulliken charges =  -0.00000

 Dipole moment (field-independent basis, Debye):
    X=             -0.7321    Y=             -0.1598    Z=              0.0000  Tot=              0.7493
 Quadrupole moment (field-independent basis, Debye-Ang):
   XX=             -8.1466   YY=              1.9428   ZZ=            -14.7095
   XY=             -0.7465   XZ=              0.0000   YZ=              0.0000

 Normal termination of Gaussian 16 at Sat Aug 27 07:20:15 2022.
