 Gaussian 16, Revision A.03,
 Gaussian 16:  ES64L-G16RevA.03 25-Dec-2016

 ------------------
 #p CCSD(T)/cc-pVTZ
 ------------------

 ------------
 H2O_H2O_3528
 ------------
 Symbolic Z-matrix:
 Charge =  0 Multiplicity = 1

                         Standard orientation:
 ---------------------------------------------------------------------
 Center     Atomic      Atomic             Coordinates (Angstroms)
 Number     Number       Type             X           Y           Z
 ---------------------------------------------------------------------
      1          8           0        0.011143   -2.677135    0.000000
      2          1           0       -0.788633   -3.247980    0.000000
      3          1           0        0.810509   -3.248553    0.000000
      4          8           0        0.011143    2.679322    0.000000
      5          1           0        0.684184    3.395227    0.000000
      6          1           0       -0.884343    3.083811    0.000000
 ---------------------------------------------------------------------

 SCF Done:  E(RHF) =  -152.106419116     A.U. after   10 cycles
 E2 =    -0.5259843746D+00 EUMP2 =    -0.15263240349011D+03
 CCSD(T)
 CCSD(T)= -0.15265964355D+03

 The electronic state is 1-A'.
 Alpha  occ. eigenvalues --  -20.55026 -20.55009  -1.32321  -1.32303  -0.69729
 Alpha  occ. eigenvalues --   -0.69711  -0.55722  -0.55702  -0.49425  -0.49407
 Alpha virt. eigenvalues --    0.14467   0.14686   0.20561   0.20642   0.54808
 Alpha virt. eigenvalues --    0.54897   0.57664   0.57705   0.68080   0.69035
 Alpha virt. eigenvalues --    0.79451   0.79471   0.80887   0.80940   0.82782

 Mulliken charges:
               1
     1  O   -0.503046
     2  H    0.251121
     3  H    0.251925
     4  O   -0.503015
     5  H    0.250971
     6  H    0.252045
 Sum of Mulliken charges =  -0.00000

 Dipole moment (field-independent basis, Debye):
    X=             -0.3815    Y=             -0.0384    Z=              0.0000  Tot=              0.3834
 Quadrupole moment (field-independent basis, Debye-Ang):
   XX=             -7.8880   YY=              9.2462   ZZ=            -14.7101
   XY=             -0.6858   XZ=              0.0000   YZ=              0.0000

 Normal termination of Gaussian 16 at Sat Aug 27 01:15:13 2022.
