 Gaussian 16, Revision A.03,
 Gaussian 16:  ES64L-G16RevA.03 25-Dec-2016

 ------------------
 #p CCSD(T)/cc-pVTZ
 ------------------

 ------------
 H2O_H2O_1497
 ------------
 Symbolic Z-matrix:
 Charge =  0 Multiplicity = 1

                         Standard orientation:
 ---------------------------------------------------------------------
 Center     Atomic      Atomic             Coordinates (Angstroms)
 Number     Number       Type             X           Y           Z
 ---------------------------------------------------------------------
      1          8           0        0.056777   -1.534307    0.000000
      2          1           0       -0.744548   -2.102975    0.000000
      3          1           0        0.854587   -2.107897    0.000000
      4          8           0        0.056777    1.633274    0.000000
      5          1           0       -0.402432    2.501970    0.000000
      6          1           0       -0.616041    0.917158    0.000000
 ---------------------------------------------------------------------

 SCF Done:  E(RHF) =  -152.108946832     A.U. after   10 cycles
 E2 =    -0.5270751433D+00 EUMP2 =    -0.15263602197486D+03
 CCSD(T)
 CCSD(T)= -0.15266312740D+03

 The electronic state is 1-A'.
 Alpha  occ. eigenvalues --  -20.56311 -20.53485  -1.33604  -1.30792  -0.71006
 Alpha  occ. eigenvalues --   -0.68241  -0.57003  -0.54277  -0.50722  -0.47924
 Alpha virt. eigenvalues --    0.13075   0.17050   0.19667   0.24828   0.52757
 Alpha virt. eigenvalues --    0.55507   0.56742   0.58387   0.67873   0.75382
 Alpha virt. eigenvalues --    0.76197   0.76749   0.80556   0.81619   0.84246

 Mulliken charges:
               1
     1  O   -0.493102
     2  H    0.244836
     3  H    0.258910
     4  O   -0.512012
     5  H    0.238120
     6  H    0.263248
 Sum of Mulliken charges =  -0.00000

 Dipole moment (field-independent basis, Debye):
    X=             -1.8701    Y=             -1.9227    Z=              0.0000  Tot=              2.6821
 Quadrupole moment (field-independent basis, Debye-Ang):
   XX=             -9.8293   YY=             -3.0877   ZZ=            -14.7242
   XY=             -3.1412   XZ=              0.0000   YZ=              0.0000

 Normal termination of Gaussian 16 at Sat Aug 27 05:07:03 2022.
