 Gaussian 16, Revision A.03,
 Gaussian 16:  ES64L-G16RevA.03 25-Dec-2016

 ------------------
 #p CCSD(T)/cc-pVTZ
 ------------------

 ------------
 H2O_H2O_4703
 ------------
 Symbolic Z-matrix:
 Charge =  0 Multiplicity = 1

                         Standard orientation:
 ---------------------------------------------------------------------
 Center     Atomic      Atomic             Coordinates (Angstroms)
 Number     Number       Type             X           Y           Z
 ---------------------------------------------------------------------
      1          8           0        0.011143   -3.302041    0.000000
      2          1           0       -0.788594   -3.872941    0.000000
      3          1           0        0.810548   -3.873406    0.000000
      4          8           0        0.011143    3.304230    0.000000
      5          1           0        0.684135    4.020180    0.000000
      6          1           0       -0.884370    3.708659    0.000000
 ---------------------------------------------------------------------

 SCF Done:  E(RHF) =  -152.106912348     A.U. after   10 cycles
 E2 =    -0.5259190752D+00 EUMP2 =    -0.15263283142310D+03
 CCSD(T)
 CCSD(T)= -0.15266006231D+03

 The electronic state is 1-A'.
 Alpha  occ. eigenvalues --  -20.55238 -20.55226  -1.32534  -1.32522  -0.69941
 Alpha  occ. eigenvalues --   -0.69929  -0.55958  -0.55947  -0.49642  -0.49630
 Alpha virt. eigenvalues --    0.14396   0.14413   0.20447   0.20461   0.54628
 Alpha virt. eigenvalues --    0.54640   0.57501   0.57513   0.68263   0.68288
 Alpha virt. eigenvalues --    0.79238   0.79249   0.80679   0.80692   0.82606

 Mulliken charges:
               1
     1  O   -0.505939
     2  H    0.252747
     3  H    0.253192
     4  O   -0.505928
     5  H    0.252647
     6  H    0.253280
 Sum of Mulliken charges =  -0.00000

 Dipole moment (field-independent basis, Debye):
    X=             -0.3831    Y=             -0.0381    Z=              0.0000  Tot=              0.3850
 Quadrupole moment (field-independent basis, Debye-Ang):
   XX=             -7.8797   YY=             14.2123   ZZ=            -14.7108
   XY=             -0.9226   XZ=              0.0000   YZ=              0.0000

 Normal termination of Gaussian 16 at Sat Aug 27 08:50:42 2022.
