 Gaussian 16, Revision A.03,
 Gaussian 16:  ES64L-G16RevA.03 25-Dec-2016

 ------------------
 #p CCSD(T)/cc-pVTZ
 ------------------

 ------------
 H2O_H2O_3447
 ------------
 Symbolic Z-matrix:
 Charge =  0 Multiplicity = 1

                         Standard orientation:
 ---------------------------------------------------------------------
 Center     Atomic      Atomic             Coordinates (Angstroms)
 Number     Number       Type             X           Y           Z
 ---------------------------------------------------------------------
      1          8           0        0.056717   -2.571315    0.000000
      2          1           0       -0.743915   -3.140959    0.000000
      3          1           0        0.855224   -3.143934    0.000000
      4          8           0        0.056717    2.670422    0.000000
      5          1           0       -0.403550    3.538557    0.000000
      6          1           0       -0.615229    1.953486    0.000000
 ---------------------------------------------------------------------

 SCF Done:  E(RHF) =  -152.107753782     A.U. after   10 cycles
 E2 =    -0.5258938310D+00 EUMP2 =    -0.15263364761353D+03
 CCSD(T)
 CCSD(T)= -0.15266085583D+03

 The electronic state is 1-A'.
 Alpha  occ. eigenvalues --  -20.55763 -20.54897  -1.33060  -1.32197  -0.70466
 Alpha  occ. eigenvalues --   -0.69588  -0.56523  -0.55650  -0.50174  -0.49314
 Alpha virt. eigenvalues --    0.13656   0.14980   0.20010   0.21055   0.54061
 Alpha virt. eigenvalues --    0.54901   0.57043   0.57822   0.67092   0.69234
 Alpha virt. eigenvalues --    0.78711   0.79549   0.80039   0.80460   0.82734

 Mulliken charges:
               1
     1  O   -0.510624
     2  H    0.253330
     3  H    0.257451
     4  O   -0.510118
     5  H    0.250746
     6  H    0.259215
 Sum of Mulliken charges =   0.00000

 Dipole moment (field-independent basis, Debye):
    X=             -1.9424    Y=             -1.7511    Z=              0.0000  Tot=              2.6152
 Quadrupole moment (field-independent basis, Debye-Ang):
   XX=             -9.8267   YY=              1.7233   ZZ=            -14.7133
   XY=             -5.1094   XZ=              0.0000   YZ=              0.0000

 Normal termination of Gaussian 16 at Fri Aug 26 22:24:53 2022.
