 Gaussian 16, Revision A.03,
 Gaussian 16:  ES64L-G16RevA.03 25-Dec-2016

 ------------------
 #p CCSD(T)/cc-pVTZ
 ------------------

 ------------
 H2O_H2O_4710
 ------------
 Symbolic Z-matrix:
 Charge =  0 Multiplicity = 1

                         Standard orientation:
 ---------------------------------------------------------------------
 Center     Atomic      Atomic             Coordinates (Angstroms)
 Number     Number       Type             X           Y           Z
 ---------------------------------------------------------------------
      1          8           0        0.034779   -3.290445    0.000000
      2          1           0       -0.765309   -3.860852    0.000000
      3          1           0        0.833832   -3.862301    0.000000
      4          8           0        0.034779    3.313986    0.000000
      5          1           0        0.322291    4.253584    0.000000
      6          1           0       -0.947277    3.281237    0.000000
 ---------------------------------------------------------------------

 SCF Done:  E(RHF) =  -152.107056984     A.U. after   10 cycles
 E2 =    -0.5259070358D+00 EUMP2 =    -0.15263296401982D+03
 CCSD(T)
 CCSD(T)= -0.15266019180D+03

 The electronic state is 1-A'.
 Alpha  occ. eigenvalues --  -20.55342 -20.55218  -1.32640  -1.32515  -0.70046
 Alpha  occ. eigenvalues --   -0.69919  -0.56071  -0.55946  -0.49748  -0.49624
 Alpha virt. eigenvalues --    0.14305   0.14430   0.20362   0.20492   0.54520
 Alpha virt. eigenvalues --    0.54654   0.57407   0.57532   0.68144   0.68274
 Alpha virt. eigenvalues --    0.79131   0.79254   0.80569   0.80704   0.82495

 Mulliken charges:
               1
     1  O   -0.506800
     2  H    0.252707
     3  H    0.254094
     4  O   -0.506705
     5  H    0.252289
     6  H    0.254416
 Sum of Mulliken charges =  -0.00000

 Dipole moment (field-independent basis, Debye):
    X=             -1.1958    Y=             -0.4104    Z=              0.0000  Tot=              1.2643
 Quadrupole moment (field-independent basis, Debye-Ang):
   XX=             -8.5634   YY=             12.3907   ZZ=            -14.7111
   XY=             -3.1130   XZ=              0.0000   YZ=              0.0000

 Normal termination of Gaussian 16 at Sat Aug 27 08:53:13 2022.
