 Gaussian 16, Revision A.03,
 Gaussian 16:  ES64L-G16RevA.03 25-Dec-2016

 ------------------
 #p CCSD(T)/cc-pVTZ
 ------------------

 ------------
 H2O_H2O_2553
 ------------
 Symbolic Z-matrix:
 Charge =  0 Multiplicity = 1

                         Standard orientation:
 ---------------------------------------------------------------------
 Center     Atomic      Atomic             Coordinates (Angstroms)
 Number     Number       Type             X           Y           Z
 ---------------------------------------------------------------------
      1          8           0        0.011143   -2.158595    0.000000
      2          1           0       -0.788682   -2.729372    0.000000
      3          1           0        0.810460   -2.730082    0.000000
      4          8           0        0.011143    2.160780    0.000000
      5          1           0        0.684246    2.876627    0.000000
      6          1           0       -0.884308    2.565347    0.000000
 ---------------------------------------------------------------------

 SCF Done:  E(RHF) =  -152.105567501     A.U. after   10 cycles
 E2 =    -0.5261571278D+00 EUMP2 =    -0.15263172462850D+03
 CCSD(T)
 CCSD(T)= -0.15265897379D+03

 The electronic state is 1-A'.
 Alpha  occ. eigenvalues --  -20.54722 -20.54694  -1.32010  -1.31982  -0.69424
 Alpha  occ. eigenvalues --   -0.69394  -0.55435  -0.55257  -0.49112  -0.49078
 Alpha virt. eigenvalues --    0.14277   0.15327   0.20621   0.20964   0.54659
 Alpha virt. eigenvalues --    0.55631   0.57836   0.58012   0.64486   0.72991
 Alpha virt. eigenvalues --    0.79610   0.79940   0.81143   0.81279   0.82000

 Mulliken charges:
               1
     1  O   -0.497680
     2  H    0.248122
     3  H    0.249569
     4  O   -0.497604
     5  H    0.247913
     6  H    0.249680
 Sum of Mulliken charges =   0.00000

 Dipole moment (field-independent basis, Debye):
    X=             -0.3784    Y=             -0.0391    Z=              0.0000  Tot=              0.3804
 Quadrupole moment (field-independent basis, Debye-Ang):
   XX=             -7.9041   YY=              5.0776   ZZ=            -14.7095
   XY=             -0.4914   XZ=              0.0000   YZ=              0.0000

 Normal termination of Gaussian 16 at Fri Aug 26 13:39:51 2022.
