 Gaussian 16, Revision A.03,
 Gaussian 16:  ES64L-G16RevA.03 25-Dec-2016

 ------------------
 #p CCSD(T)/cc-pVTZ
 ------------------

 ------------
 H2O_H2O_3177
 ------------
 Symbolic Z-matrix:
 Charge =  0 Multiplicity = 1

                         Standard orientation:
 ---------------------------------------------------------------------
 Center     Atomic      Atomic             Coordinates (Angstroms)
 Number     Number       Type             X           Y           Z
 ---------------------------------------------------------------------
      1          8           0        0.007455   -2.491651    0.000000
      2          1           0       -0.792263   -3.062577    0.000000
      3          1           0        0.806879   -3.062989    0.000000
      4          8           0        0.007455    2.492624    0.000000
      5          1           0        0.725811    3.163050    0.000000
      6          1           0       -0.859705    2.954728    0.000000
 ---------------------------------------------------------------------

 SCF Done:  E(RHF) =  -152.106156332     A.U. after   10 cycles
 E2 =    -0.5260237219D+00 EUMP2 =    -0.15263218005417D+03
 CCSD(T)
 CCSD(T)= -0.15265942460D+03

 The electronic state is 1-A'.
 Alpha  occ. eigenvalues --  -20.54924 -20.54915  -1.32217  -1.32208  -0.69627
 Alpha  occ. eigenvalues --   -0.69618  -0.55615  -0.55584  -0.49320  -0.49310
 Alpha virt. eigenvalues --    0.14444   0.14857   0.20596   0.20730   0.54844
 Alpha virt. eigenvalues --    0.55058   0.57729   0.57794   0.67476   0.69885
 Alpha virt. eigenvalues --    0.79539   0.79581   0.80970   0.81065   0.82700

 Mulliken charges:
               1
     1  O   -0.501501
     2  H    0.250423
     3  H    0.251079
     4  O   -0.501482
     5  H    0.250317
     6  H    0.251165
 Sum of Mulliken charges =   0.00000

 Dipole moment (field-independent basis, Debye):
    X=             -0.2547    Y=             -0.0172    Z=              0.0000  Tot=              0.2553
 Quadrupole moment (field-independent basis, Debye-Ang):
   XX=             -7.8495   YY=              7.8203   ZZ=            -14.7098
   XY=             -0.4091   XZ=              0.0000   YZ=              0.0000

 Normal termination of Gaussian 16 at Fri Aug 26 20:08:19 2022.
