 Gaussian 16, Revision A.03,
 Gaussian 16:  ES64L-G16RevA.03 25-Dec-2016

 ------------------
 #p CCSD(T)/cc-pVTZ
 ------------------

 ------------
 H2O_H2O_2979
 ------------
 Symbolic Z-matrix:
 Charge =  0 Multiplicity = 1

                         Standard orientation:
 ---------------------------------------------------------------------
 Center     Atomic      Atomic             Coordinates (Angstroms)
 Number     Number       Type             X           Y           Z
 ---------------------------------------------------------------------
      1          8           0        0.014783   -2.383707    0.000000
      2          1           0       -0.785092   -2.954412    0.000000
      3          1           0        0.814049   -2.955265    0.000000
      4          8           0        0.014783    2.387583    0.000000
      5          1           0        0.639695    3.145866    0.000000
      6          1           0       -0.905180    2.732801    0.000000
 ---------------------------------------------------------------------

 SCF Done:  E(RHF) =  -152.106035972     A.U. after   10 cycles
 E2 =    -0.5260504770D+00 EUMP2 =    -0.15263208644898D+03
 CCSD(T)
 CCSD(T)= -0.15265933222D+03

 The electronic state is 1-A'.
 Alpha  occ. eigenvalues --  -20.54890 -20.54851  -1.32182  -1.32142  -0.69593
 Alpha  occ. eigenvalues --   -0.69551  -0.55575  -0.55509  -0.49284  -0.49244
 Alpha virt. eigenvalues --    0.14383   0.14989   0.20593   0.20800   0.54811
 Alpha virt. eigenvalues --    0.55180   0.57749   0.57852   0.66824   0.70645
 Alpha virt. eigenvalues --    0.79564   0.79657   0.81007   0.81137   0.82566

 Mulliken charges:
               1
     1  O   -0.500780
     2  H    0.249657
     3  H    0.251127
     4  O   -0.500688
     5  H    0.249400
     6  H    0.251284
 Sum of Mulliken charges =  -0.00000

 Dipole moment (field-independent basis, Debye):
    X=             -0.5043    Y=             -0.0686    Z=              0.0000  Tot=              0.5089
 Quadrupole moment (field-independent basis, Debye-Ang):
   XX=             -7.9542   YY=              6.8171   ZZ=            -14.7098
   XY=             -0.7718   XZ=              0.0000   YZ=              0.0000

 Normal termination of Gaussian 16 at Fri Aug 26 18:04:41 2022.
