 Gaussian 16, Revision A.03,
 Gaussian 16:  ES64L-G16RevA.03 25-Dec-2016

 ------------------
 #p CCSD(T)/cc-pVTZ
 ------------------

 ------------
 H2O_H2O_1994
 ------------
 Symbolic Z-matrix:
 Charge =  0 Multiplicity = 1

                         Standard orientation:
 ---------------------------------------------------------------------
 Center     Atomic      Atomic             Coordinates (Angstroms)
 Number     Number       Type             X           Y           Z
 ---------------------------------------------------------------------
      1          8           0        0.054180   -1.812027    0.000000
      2          1           0       -0.746826   -2.381146    0.000000
      3          1           0        0.852311   -2.385168    0.000000
      4          8           0        0.054180    1.889264    0.000000
      5          1           0       -0.227262    2.830698    0.000000
      6          1           0       -0.745097    1.317719    0.000000
 ---------------------------------------------------------------------

 SCF Done:  E(RHF) =  -152.107672220     A.U. after   10 cycles
 E2 =    -0.5263775794D+00 EUMP2 =    -0.15263404979900D+03
 CCSD(T)
 CCSD(T)= -0.15266122028D+03

 The electronic state is 1-A'.
 Alpha  occ. eigenvalues --  -20.55695 -20.54186  -1.32968  -1.31469  -0.70380
 Alpha  occ. eigenvalues --   -0.68838  -0.56392  -0.54900  -0.50083  -0.48592
 Alpha virt. eigenvalues --    0.13270   0.16246   0.19967   0.22771   0.54099
 Alpha virt. eigenvalues --    0.54415   0.57131   0.58549   0.65183   0.75400
 Alpha virt. eigenvalues --    0.78395   0.78829   0.79786   0.80566   0.84712

 Mulliken charges:
               1
     1  O   -0.499503
     2  H    0.246597
     3  H    0.256301
     4  O   -0.506435
     5  H    0.243060
     6  H    0.259980
 Sum of Mulliken charges =  -0.00000

 Dipole moment (field-independent basis, Debye):
    X=             -1.8178    Y=             -1.4334    Z=              0.0000  Tot=              2.3149
 Quadrupole moment (field-independent basis, Debye-Ang):
   XX=             -9.6522   YY=             -0.5552   ZZ=            -14.7162
   XY=             -3.1046   XZ=              0.0000   YZ=              0.0000

 0627\MP4DQ=-152.643048\MP4SDQ=-152.6461311\CCSD=-152.6455278\CCSD(T)=-
 Normal termination of Gaussian 16 at Sat Aug 27 07:58:55 2022.
