 Gaussian 16, Revision A.03,
 Gaussian 16:  ES64L-G16RevA.03 25-Dec-2016

 ------------------
 #p CCSD(T)/cc-pVTZ
 ------------------

 ------------
 H2O_H2O_1812
 ------------
 Symbolic Z-matrix:
 Charge =  0 Multiplicity = 1

                         Standard orientation:
 ---------------------------------------------------------------------
 Center     Atomic      Atomic             Coordinates (Angstroms)
 Number     Number       Type             X           Y           Z
 ---------------------------------------------------------------------
      1          8           0        0.040418   -1.742820    0.000000
      2          1           0       -0.760280   -2.312371    0.000000
      3          1           0        0.838859   -2.315530    0.000000
      4          8           0        0.040418    1.776116    0.000000
      5          1           0        0.203864    2.745028    0.000000
      6          1           0       -0.929133    1.616501    0.000000
 ---------------------------------------------------------------------

 SCF Done:  E(RHF) =  -152.105486257     A.U. after   10 cycles
 E2 =    -0.5266019430D+00 EUMP2 =    -0.15263208820009D+03
 CCSD(T)
 CCSD(T)= -0.15265930537D+03

 The electronic state is 1-A'.
 Alpha  occ. eigenvalues --  -20.54882 -20.54212  -1.32160  -1.31477  -0.69581
 Alpha  occ. eigenvalues --   -0.68870  -0.55633  -0.54653  -0.49267  -0.48579
 Alpha virt. eigenvalues --    0.13815   0.16214   0.20319   0.21901   0.53236
 Alpha virt. eigenvalues --    0.55527   0.57770   0.58531   0.63644   0.76771
 Alpha virt. eigenvalues --    0.78704   0.78736   0.80189   0.81054   0.84792

 Mulliken charges:
               1
     1  O   -0.490674
     2  H    0.241667
     3  H    0.250389
     4  O   -0.491959
     5  H    0.239263
     6  H    0.251314
 Sum of Mulliken charges =  -0.00000

 Dipole moment (field-independent basis, Debye):
    X=             -1.3488    Y=             -0.6183    Z=              0.0000  Tot=              1.4837
 Quadrupole moment (field-independent basis, Debye-Ang):
   XX=             -8.8598   YY=              0.8159   ZZ=            -14.7120
   XY=             -1.6354   XZ=              0.0000   YZ=              0.0000

 Normal termination of Gaussian 16 at Sat Aug 27 06:55:30 2022.
