 Gaussian 16, Revision A.03,
 Gaussian 16:  ES64L-G16RevA.03 25-Dec-2016

 ------------------
 #p CCSD(T)/cc-pVTZ
 ------------------

 ------------
 H2O_H2O_4374
 ------------
 Symbolic Z-matrix:
 Charge =  0 Multiplicity = 1

                         Standard orientation:
 ---------------------------------------------------------------------
 Center     Atomic      Atomic             Coordinates (Angstroms)
 Number     Number       Type             X           Y           Z
 ---------------------------------------------------------------------
      1          8           0        0.057203   -3.055151    0.000000
      2          1           0       -0.743269   -3.625020    0.000000
      3          1           0        0.855871   -3.627546    0.000000
      4          8           0        0.057203    3.169197    0.000000
      5          1           0       -0.512665    3.969670    0.000000
      6          1           0       -0.515191    2.370530    0.000000
 ---------------------------------------------------------------------

 SCF Done:  E(RHF) =  -152.107726396     A.U. after   10 cycles
 E2 =    -0.5258531660D+00 EUMP2 =    -0.15263357956245D+03
 CCSD(T)
 CCSD(T)= -0.15266079278D+03

 The electronic state is 1-A'.
 Alpha  occ. eigenvalues --  -20.55791 -20.55116  -1.33091  -1.32416  -0.70497
 Alpha  occ. eigenvalues --   -0.69814  -0.56553  -0.55871  -0.50205  -0.49532
 Alpha virt. eigenvalues --    0.13882   0.14604   0.20001   0.20729   0.54060
 Alpha virt. eigenvalues --    0.54753   0.57007   0.57678   0.67556   0.68363
 Alpha virt. eigenvalues --    0.78676   0.79337   0.80099   0.80768   0.82097

 Mulliken charges:
               1
     1  O   -0.510781
     2  H    0.254181
     3  H    0.256605
     4  O   -0.510348
     5  H    0.252431
     6  H    0.257913
 Sum of Mulliken charges =  -0.00000

 Dipole moment (field-independent basis, Debye):
    X=             -1.9659    Y=             -1.9946    Z=              0.0000  Tot=              2.8006
 Quadrupole moment (field-independent basis, Debye-Ang):
   XX=             -9.8643   YY=              2.3327   ZZ=            -14.7128
   XY=             -6.3800   XZ=              0.0000   YZ=              0.0000

 Normal termination of Gaussian 16 at Sat Aug 27 06:57:19 2022.
