 Gaussian 16, Revision A.03,
 Gaussian 16:  ES64L-G16RevA.03 25-Dec-2016

 ------------------
 #p CCSD(T)/cc-pVTZ
 ------------------

 ------------
 H2O_H2O_4528
 ------------
 Symbolic Z-matrix:
 Charge =  0 Multiplicity = 1

                         Standard orientation:
 ---------------------------------------------------------------------
 Center     Atomic      Atomic             Coordinates (Angstroms)
 Number     Number       Type             X           Y           Z
 ---------------------------------------------------------------------
      1          8           0        0.011143   -3.208970    0.000000
      2          1           0       -0.788599   -3.779863    0.000000
      3          1           0        0.810543   -3.780341    0.000000
      4          8           0        0.011143    3.211158    0.000000
      5          1           0        0.684141    3.927103    0.000000
      6          1           0       -0.884367    3.615595    0.000000
 ---------------------------------------------------------------------

 SCF Done:  E(RHF) =  -152.106861033     A.U. after   10 cycles
 E2 =    -0.5259253801D+00 EUMP2 =    -0.15263278641345D+03
 CCSD(T)
 CCSD(T)= -0.15266001828D+03

 The electronic state is 1-A'.
 Alpha  occ. eigenvalues --  -20.55213 -20.55201  -1.32509  -1.32497  -0.69916
 Alpha  occ. eigenvalues --   -0.69904  -0.55931  -0.55919  -0.49617  -0.49604
 Alpha virt. eigenvalues --    0.14413   0.14437   0.20464   0.20480   0.54652
 Alpha virt. eigenvalues --    0.54666   0.57522   0.57535   0.68286   0.68328
 Alpha virt. eigenvalues --    0.79262   0.79274   0.80705   0.80719   0.82633

 Mulliken charges:
               1
     1  O   -0.505637
     2  H    0.252577
     3  H    0.253060
     4  O   -0.505624
     5  H    0.252472
     6  H    0.253153
 Sum of Mulliken charges =  -0.00000

 Dipole moment (field-independent basis, Debye):
    X=             -0.3829    Y=             -0.0382    Z=              0.0000  Tot=              0.3848
 Quadrupole moment (field-independent basis, Debye-Ang):
   XX=             -7.8806   YY=             13.4755   ZZ=            -14.7107
   XY=             -0.8872   XZ=              0.0000   YZ=              0.0000

 Normal termination of Gaussian 16 at Sat Aug 27 07:50:06 2022.
