 Gaussian 16, Revision A.03,
 Gaussian 16:  ES64L-G16RevA.03 25-Dec-2016

 ------------------
 #p CCSD(T)/cc-pVTZ
 ------------------

 ------------
 H2O_H2O_3895
 ------------
 Symbolic Z-matrix:
 Charge =  0 Multiplicity = 1

                         Standard orientation:
 ---------------------------------------------------------------------
 Center     Atomic      Atomic             Coordinates (Angstroms)
 Number     Number       Type             X           Y           Z
 ---------------------------------------------------------------------
      1          8           0        0.055237   -2.818585    0.000000
      2          1           0       -0.745281   -3.388389    0.000000
      3          1           0        0.853859   -3.391044    0.000000
      4          8           0        0.055237    2.903065    0.000000
      5          1           0       -0.287962    3.823782    0.000000
      6          1           0       -0.704413    2.279818    0.000000
 ---------------------------------------------------------------------

 SCF Done:  E(RHF) =  -152.107496919     A.U. after   10 cycles
 E2 =    -0.5258860974D+00 EUMP2 =    -0.15263338301686D+03
 CCSD(T)
 CCSD(T)= -0.15266060008D+03

 The electronic state is 1-A'.
 Alpha  occ. eigenvalues --  -20.55640 -20.55034  -1.32939  -1.32332  -0.70345
 Alpha  occ. eigenvalues --   -0.69728  -0.56390  -0.55779  -0.50051  -0.49446
 Alpha virt. eigenvalues --    0.13957   0.14707   0.20112   0.20794   0.54207
 Alpha virt. eigenvalues --    0.54839   0.57141   0.57735   0.67608   0.68611
 Alpha virt. eigenvalues --    0.78830   0.79423   0.80253   0.80785   0.82379

 Mulliken charges:
               1
     1  O   -0.509426
     2  H    0.253123
     3  H    0.256321
     4  O   -0.508989
     5  H    0.251396
     6  H    0.257575
 Sum of Mulliken charges =  -0.00000

 Dipole moment (field-independent basis, Debye):
    X=             -1.8955    Y=             -1.4829    Z=              0.0000  Tot=              2.4067
 Quadrupole moment (field-independent basis, Debye-Ang):
   XX=             -9.7235   YY=              4.1923   ZZ=            -14.7124
   XY=             -5.1735   XZ=              0.0000   YZ=              0.0000

 Normal termination of Gaussian 16 at Sat Aug 27 04:07:56 2022.
