 Gaussian 16, Revision A.03,
 Gaussian 16:  ES64L-G16RevA.03 25-Dec-2016

 ------------------
 #p CCSD(T)/cc-pVTZ
 ------------------

 ------------
 H2O_H2O_3982
 ------------
 Symbolic Z-matrix:
 Charge =  0 Multiplicity = 1

                         Standard orientation:
 ---------------------------------------------------------------------
 Center     Atomic      Atomic             Coordinates (Angstroms)
 Number     Number       Type             X           Y           Z
 ---------------------------------------------------------------------
      1          8           0        0.025265   -2.911271    0.000000
      2          1           0       -0.774732   -3.481807    0.000000
      3          1           0        0.824410   -3.482999    0.000000
      4          8           0        0.025265    2.923013    0.000000
      5          1           0        0.490418    3.788541    0.000000
      6          1           0       -0.944336    3.082327    0.000000
 ---------------------------------------------------------------------

 SCF Done:  E(RHF) =  -152.106748684     A.U. after   10 cycles
 E2 =    -0.5259441890D+00 EUMP2 =    -0.15263269287328D+03
 CCSD(T)
 CCSD(T)= -0.15265992660D+03

 The electronic state is 1-A'.
 Alpha  occ. eigenvalues --  -20.55182 -20.55103  -1.32478  -1.32397  -0.69885
 Alpha  occ. eigenvalues --   -0.69803  -0.55894  -0.55814  -0.49584  -0.49505
 Alpha virt. eigenvalues --    0.14414   0.14545   0.20474   0.20570   0.54681
 Alpha virt. eigenvalues --    0.54775   0.57543   0.57626   0.68248   0.68528
 Alpha virt. eigenvalues --    0.79294   0.79373   0.80739   0.80827   0.82671

 Mulliken charges:
               1
     1  O   -0.504987
     2  H    0.251775
     3  H    0.253212
     4  O   -0.504892
     5  H    0.251423
     6  H    0.253469
 Sum of Mulliken charges =  -0.00000

 Dipole moment (field-independent basis, Debye):
    X=             -0.8668    Y=             -0.2055    Z=              0.0000  Tot=              0.8909
 Quadrupole moment (field-independent basis, Debye-Ang):
   XX=             -8.2068   YY=             10.4859   ZZ=            -14.7106
   XY=             -1.8358   XZ=              0.0000   YZ=              0.0000

 Normal termination of Gaussian 16 at Sat Aug 27 04:43:06 2022.
