 Gaussian 16, Revision A.03,
 Gaussian 16:  ES64L-G16RevA.03 25-Dec-2016

 ------------------
 #p CCSD(T)/cc-pVTZ
 ------------------

 ------------
 H2O_H2O_1473
 ------------
 Symbolic Z-matrix:
 Charge =  0 Multiplicity = 1

                         Standard orientation:
 ---------------------------------------------------------------------
 Center     Atomic      Atomic             Coordinates (Angstroms)
 Number     Number       Type             X           Y           Z
 ---------------------------------------------------------------------
      1          8           0        0.057157   -1.516975    0.000000
      2          1           0       -0.744194   -2.085606    0.000000
      3          1           0        0.854940   -2.090602    0.000000
      4          8           0        0.057157    1.623374    0.000000
      5          1           0       -0.457845    2.460200    0.000000
      6          1           0       -0.567420    0.864815    0.000000
 ---------------------------------------------------------------------

 SCF Done:  E(RHF) =  -152.109505208     A.U. after   10 cycles
 E2 =    -0.5271574002D+00 EUMP2 =    -0.15263666260839D+03
 CCSD(T)
 CCSD(T)= -0.15266374935D+03

 The electronic state is 1-A'.
 Alpha  occ. eigenvalues --  -20.56522 -20.53368  -1.33819  -1.30692  -0.71215
 Alpha  occ. eigenvalues --   -0.68178  -0.57228  -0.54190  -0.50937  -0.47826
 Alpha virt. eigenvalues --    0.12971   0.17156   0.19589   0.25366   0.52302
 Alpha virt. eigenvalues --    0.55638   0.56684   0.58476   0.68307   0.75069
 Alpha virt. eigenvalues --    0.75802   0.76982   0.81250   0.81659   0.84089

 Mulliken charges:
               1
     1  O   -0.493914
     2  H    0.246017
     3  H    0.260165
     4  O   -0.515813
     5  H    0.238432
     6  H    0.265113
 Sum of Mulliken charges =  -0.00000

 Dipole moment (field-independent basis, Debye):
    X=             -1.8814    Y=             -2.0814    Z=              0.0000  Tot=              2.8057
 Quadrupole moment (field-independent basis, Debye-Ang):
   XX=             -9.8530   YY=             -3.5369   ZZ=            -14.7258
   XY=             -3.2696   XZ=              0.0000   YZ=              0.0000

 Normal termination of Gaussian 16 at Sat Aug 27 04:57:38 2022.
