 Gaussian 16, Revision A.03,
 Gaussian 16:  ES64L-G16RevA.03 25-Dec-2016

 ------------------
 #p CCSD(T)/cc-pVTZ
 ------------------

 ------------
 H2O_H2O_2781
 ------------
 Symbolic Z-matrix:
 Charge =  0 Multiplicity = 1

                         Standard orientation:
 ---------------------------------------------------------------------
 Center     Atomic      Atomic             Coordinates (Angstroms)
 Number     Number       Type             X           Y           Z
 ---------------------------------------------------------------------
      1          8           0        0.021860   -2.274742    0.000000
      2          1           0       -0.778182   -2.845214    0.000000
      3          1           0        0.820959   -2.846534    0.000000
      4          8           0        0.021860    2.283401    0.000000
      5          1           0        0.542693    3.116611    0.000000
      6          1           0       -0.935227    2.505866    0.000000
 ---------------------------------------------------------------------

 SCF Done:  E(RHF) =  -152.105944793     A.U. after   10 cycles
 E2 =    -0.5260842184D+00 EUMP2 =    -0.15263202901115D+03
 CCSD(T)
 CCSD(T)= -0.15265927425D+03

 The electronic state is 1-A'.
 Alpha  occ. eigenvalues --  -20.54873 -20.54776  -1.32164  -1.32065  -0.69576
 Alpha  occ. eigenvalues --   -0.69474  -0.55555  -0.55422  -0.49266  -0.49167
 Alpha virt. eigenvalues --    0.14280   0.15152   0.20567   0.20897   0.54701
 Alpha virt. eigenvalues --    0.55321   0.57755   0.57920   0.65951   0.71626
 Alpha virt. eigenvalues --    0.79561   0.79751   0.81020   0.81200   0.82406

 Mulliken charges:
               1
     1  O   -0.500157
     2  H    0.248857
     3  H    0.251322
     4  O   -0.499932
     5  H    0.248372
     6  H    0.251537
 Sum of Mulliken charges =  -0.00000

 Dipole moment (field-independent basis, Debye):
    X=             -0.7443    Y=             -0.1539    Z=              0.0000  Tot=              0.7600
 Quadrupole moment (field-independent basis, Debye-Ang):
   XX=             -8.1190   YY=              5.7421   ZZ=            -14.7099
   XY=             -1.0958   XZ=              0.0000   YZ=              0.0000

 Normal termination of Gaussian 16 at Fri Aug 26 16:06:54 2022.
