 Gaussian 16, Revision A.03,
 Gaussian 16:  ES64L-G16RevA.03 25-Dec-2016

 ------------------
 #p CCSD(T)/cc-pVTZ
 ------------------

 ------------
 H2O_H2O_1454
 ------------
 Symbolic Z-matrix:
 Charge =  0 Multiplicity = 1

                         Standard orientation:
 ---------------------------------------------------------------------
 Center     Atomic      Atomic             Coordinates (Angstroms)
 Number     Number       Type             X           Y           Z
 ---------------------------------------------------------------------
      1          8           0        0.014784   -1.572660    0.000000
      2          1           0       -0.785249   -2.143146    0.000000
      3          1           0        0.813893   -2.144438    0.000000
      4          8           0        0.014784    1.576529    0.000000
      5          1           0        0.639903    2.334640    0.000000
      6          1           0       -0.905085    1.921999    0.000000
 ---------------------------------------------------------------------

 SCF Done:  E(RHF) =  -152.102551650     A.U. after   10 cycles
 E2 =    -0.5271213467D+00 EUMP2 =    -0.15262967299709D+03
 CCSD(T)
 CCSD(T)= -0.15265695158D+03

 The electronic state is 1-A'.
 Alpha  occ. eigenvalues --  -20.54061 -20.53973  -1.31399  -1.31218  -0.68817
 Alpha  occ. eigenvalues --   -0.68661  -0.55495  -0.53489  -0.48572  -0.48213
 Alpha virt. eigenvalues --    0.14304   0.16529   0.20553   0.21763   0.52260
 Alpha virt. eigenvalues --    0.58227   0.58503   0.58943   0.64191   0.76436
 Alpha virt. eigenvalues --    0.78146   0.78300   0.79449   0.82256   0.85984

 Mulliken charges:
               1
     1  O   -0.476871
     2  H    0.236308
     3  H    0.240702
     4  O   -0.476124
     5  H    0.235874
     6  H    0.240110
 Sum of Mulliken charges =  -0.00000

 Dipole moment (field-independent basis, Debye):
    X=             -0.4872    Y=             -0.0727    Z=              0.0000  Tot=              0.4926
 Quadrupole moment (field-independent basis, Debye-Ang):
   XX=             -8.0179   YY=              0.1576   ZZ=            -14.7097
   XY=             -0.3738   XZ=              0.0000   YZ=              0.0000

 Normal termination of Gaussian 16 at Sat Aug 27 04:51:20 2022.
