 Gaussian 16, Revision A.03,
 Gaussian 16:  ES64L-G16RevA.03 25-Dec-2016

 ------------------
 #p CCSD(T)/cc-pVTZ
 ------------------

 ------------
 H2O_H2O_2012
 ------------
 Symbolic Z-matrix:
 Charge =  0 Multiplicity = 1

                         Standard orientation:
 ---------------------------------------------------------------------
 Center     Atomic      Atomic             Coordinates (Angstroms)
 Number     Number       Type             X           Y           Z
 ---------------------------------------------------------------------
      1          8           0        0.040416   -1.849182    0.000000
      2          1           0       -0.760218   -2.418823    0.000000
      3          1           0        0.838922   -2.421803    0.000000
      4          8           0        0.040416    1.882488    0.000000
      5          1           0        0.203753    2.851419    0.000000
      6          1           0       -0.929117    1.722763    0.000000
 ---------------------------------------------------------------------

 SCF Done:  E(RHF) =  -152.105824408     A.U. after   10 cycles
 E2 =    -0.5264148253D+00 EUMP2 =    -0.15263223923379D+03
 CCSD(T)
 CCSD(T)= -0.15265945767D+03

 The electronic state is 1-A'.
 Alpha  occ. eigenvalues --  -20.54951 -20.54353  -1.32229  -1.31625  -0.69648
 Alpha  occ. eigenvalues --   -0.69018  -0.55650  -0.54899  -0.49334  -0.48731
 Alpha virt. eigenvalues --    0.13780   0.15999   0.20333   0.21684   0.53309
 Alpha virt. eigenvalues --    0.55361   0.57723   0.58375   0.63588   0.76070
 Alpha virt. eigenvalues --    0.79029   0.79331   0.80593   0.80866   0.83810

 Mulliken charges:
               1
     1  O   -0.494696
     2  H    0.244050
     3  H    0.251628
     4  O   -0.495624
     5  H    0.242045
     6  H    0.252597
 Sum of Mulliken charges =  -0.00000

 Dipole moment (field-independent basis, Debye):
    X=             -1.3572    Y=             -0.6121    Z=              0.0000  Tot=              1.4888
 Quadrupole moment (field-independent basis, Debye-Ang):
   XX=             -8.8522   YY=              1.5823   ZZ=            -14.7116
   XY=             -1.7785   XZ=              0.0000   YZ=              0.0000

 Normal termination of Gaussian 16 at Sat Aug 27 08:05:58 2022.
