 Gaussian 16, Revision A.03,
 Gaussian 16:  ES64L-G16RevA.03 25-Dec-2016

 ------------------
 #p CCSD(T)/cc-pVTZ
 ------------------

 ------------
 H2O_H2O_1601
 ------------
 Symbolic Z-matrix:
 Charge =  0 Multiplicity = 1

                         Standard orientation:
 ---------------------------------------------------------------------
 Center     Atomic      Atomic             Coordinates (Angstroms)
 Number     Number       Type             X           Y           Z
 ---------------------------------------------------------------------
      1          8           0        0.003735   -1.654405    0.000000
      2          1           0       -0.795947   -2.225382    0.000000
      3          1           0        0.803195   -2.225692    0.000000
      4          8           0        0.003735    1.654648    0.000000
      5          1           0        0.764362    2.276704    0.000000
      6          1           0       -0.831377    2.172425    0.000000
 ---------------------------------------------------------------------

 SCF Done:  E(RHF) =  -152.103205856     A.U. after   10 cycles
 E2 =    -0.5268896334D+00 EUMP2 =    -0.15263009548906D+03
 CCSD(T)
 CCSD(T)= -0.15265736629D+03

 The electronic state is 1-A'.
 Alpha  occ. eigenvalues --  -20.54130 -20.54125  -1.31461  -1.31361  -0.68881
 Alpha  occ. eigenvalues --   -0.68800  -0.55375  -0.53862  -0.48620  -0.48377
 Alpha virt. eigenvalues --    0.14305   0.16330   0.20592   0.21579   0.52715
 Alpha virt. eigenvalues --    0.58108   0.58470   0.58558   0.62143   0.76020
 Alpha virt. eigenvalues --    0.78599   0.78731   0.79831   0.81799   0.85162

 Mulliken charges:
               1
     1  O   -0.480023
     2  H    0.239536
     3  H    0.240498
     4  O   -0.480005
     5  H    0.239518
     6  H    0.240477
 Sum of Mulliken charges =  -0.00000

 Dipole moment (field-independent basis, Debye):
    X=             -0.1240    Y=             -0.0045    Z=              0.0000  Tot=              0.1241
 Quadrupole moment (field-independent basis, Debye-Ang):
   XX=             -7.8797   YY=              0.9312   ZZ=            -14.7088
   XY=             -0.1000   XZ=              0.0000   YZ=              0.0000

 Normal termination of Gaussian 16 at Sat Aug 27 05:42:29 2022.
