 Gaussian 16, Revision A.03,
 Gaussian 16:  ES64L-G16RevA.03 25-Dec-2016

 ------------------
 #p CCSD(T)/cc-pVTZ
 ------------------

 ------------
 H2O_H2O_2456
 ------------
 Symbolic Z-matrix:
 Charge =  0 Multiplicity = 1

                         Standard orientation:
 ---------------------------------------------------------------------
 Center     Atomic      Atomic             Coordinates (Angstroms)
 Number     Number       Type             X           Y           Z
 ---------------------------------------------------------------------
      1          8           0        0.021860   -2.101897    0.000000
      2          1           0       -0.778221   -2.672314    0.000000
      3          1           0        0.820921   -2.673743    0.000000
      4          8           0        0.021860    2.110553    0.000000
      5          1           0        0.542750    2.943727    0.000000
      6          1           0       -0.935211    2.333082    0.000000
 ---------------------------------------------------------------------

 SCF Done:  E(RHF) =  -152.105607185     A.U. after   10 cycles
 E2 =    -0.5261851150D+00 EUMP2 =    -0.15263179229968D+03
 CCSD(T)
 CCSD(T)= -0.15265903731D+03

 The electronic state is 1-A'.
 Alpha  occ. eigenvalues --  -20.54759 -20.54643  -1.32046  -1.31928  -0.69461
 Alpha  occ. eigenvalues --   -0.69338  -0.55459  -0.55216  -0.49147  -0.49027
 Alpha virt. eigenvalues --    0.14170   0.15440   0.20568   0.21054   0.54431
 Alpha virt. eigenvalues --    0.55660   0.57821   0.58048   0.64049   0.73544
 Alpha virt. eigenvalues --    0.79553   0.80009   0.80968   0.81190   0.82169

 Mulliken charges:
               1
     1  O   -0.497618
     2  H    0.247324
     3  H    0.250361
     4  O   -0.497367
     5  H    0.246751
     6  H    0.250549
 Sum of Mulliken charges =  -0.00000

 Dipole moment (field-independent basis, Debye):
    X=             -0.7412    Y=             -0.1555    Z=              0.0000  Tot=              0.7573
 Quadrupole moment (field-independent basis, Debye-Ang):
   XX=             -8.1258   YY=              4.3847   ZZ=            -14.7098
   XY=             -0.9692   XZ=              0.0000   YZ=              0.0000

 Normal termination of Gaussian 16 at Sat Aug 27 10:39:37 2022.
