 Gaussian 16, Revision A.03,
 Gaussian 16:  ES64L-G16RevA.03 25-Dec-2016

 ------------------
 #p CCSD(T)/cc-pVTZ
 ------------------

 -----------
 H2O_H2O_296
 -----------
 Symbolic Z-matrix:
 Charge =  0 Multiplicity = 1

                         Standard orientation:
 ---------------------------------------------------------------------
 Center     Atomic      Atomic             Coordinates (Angstroms)
 Number     Number       Type             X           Y           Z
 ---------------------------------------------------------------------
      1          8           0        0.056249   -0.900224    0.000000
      2          1           0       -0.746223   -1.467273    0.000000
      3          1           0        0.852899   -1.475425    0.000000
      4          8           0        0.056249    0.991594    0.000000
      5          1           0       -0.343349    1.889272    0.000000
      6          1           0       -0.663318    0.322467    0.000000
 ---------------------------------------------------------------------

 SCF Done:  E(RHF) =  -152.018804944     A.U. after   11 cycles
 E2 =    -0.5408479384D+00 EUMP2 =    -0.15255965288251D+03
 CCSD(T)
 CCSD(T)= -0.15258554011D+03

 The electronic state is 1-A'.
 Alpha  occ. eigenvalues --  -20.55840 -20.49393  -1.37538  -1.27043  -0.75258
 Alpha  occ. eigenvalues --   -0.70853  -0.53215  -0.52120  -0.48046  -0.43976
 Alpha virt. eigenvalues --    0.13095   0.18767   0.19643   0.26145   0.49999
 Alpha virt. eigenvalues --    0.54794   0.62194   0.66820   0.72704   0.75615
 Alpha virt. eigenvalues --    0.79441   0.79868   0.83971   0.85225   0.88112

 Mulliken charges:
               1
     1  O   -0.358518
     2  H    0.187036
     3  H    0.226881
     4  O   -0.480287
     5  H    0.165857
     6  H    0.259032
 Sum of Mulliken charges =  -0.00000

 Dipole moment (field-independent basis, Debye):
    X=             -1.5734    Y=             -2.1694    Z=              0.0000  Tot=              2.6800
 Quadrupole moment (field-independent basis, Debye-Ang):
   XX=             -9.8061   YY=             -7.3629   ZZ=            -14.6235
   XY=             -1.7509   XZ=              0.0000   YZ=              0.0000

 Normal termination of Gaussian 16 at Fri Aug 26 14:58:00 2022.
