 Gaussian 16, Revision A.03,
 Gaussian 16:  ES64L-G16RevA.03 25-Dec-2016

 ------------------
 #p CCSD(T)/cc-pVTZ
 ------------------

 -----------
 H2O_H2O_146
 -----------
 Symbolic Z-matrix:
 Charge =  0 Multiplicity = 1

                         Standard orientation:
 ---------------------------------------------------------------------
 Center     Atomic      Atomic             Coordinates (Angstroms)
 Number     Number       Type             X           Y           Z
 ---------------------------------------------------------------------
      1          8           0        0.056271   -0.820476    0.000000
      2          1           0       -0.746467   -1.387148    0.000000
      3          1           0        0.852650   -1.396051    0.000000
      4          8           0        0.056271    0.911793    0.000000
      5          1           0       -0.342906    1.809659    0.000000
      6          1           0       -0.663611    0.243005    0.000000
 ---------------------------------------------------------------------

 SCF Done:  E(RHF) =  -151.948669974     A.U. after   11 cycles
 E2 =    -0.5476133312D+00 EUMP2 =    -0.15249628330533D+03
 CCSD(T)
 CCSD(T)= -0.15252123309D+03

 The electronic state is 1-A'.
 Alpha  occ. eigenvalues --  -20.55874 -20.48403  -1.40566  -1.26021  -0.77997
 Alpha  occ. eigenvalues --   -0.72234  -0.54890  -0.51465  -0.43627  -0.42983
 Alpha virt. eigenvalues --    0.12997   0.18410   0.20186   0.26031   0.49721
 Alpha virt. eigenvalues --    0.54044   0.62376   0.68521   0.73197   0.76108
 Alpha virt. eigenvalues --    0.78183   0.79837   0.84294   0.85063   0.88650

 Mulliken charges:
               1
     1  O   -0.306098
     2  H    0.165031
     3  H    0.213836
     4  O   -0.471945
     5  H    0.136619
     6  H    0.262557
 Sum of Mulliken charges =  -0.00000

 Dipole moment (field-independent basis, Debye):
    X=             -1.4873    Y=             -2.2847    Z=              0.0000  Tot=              2.7261
 Quadrupole moment (field-independent basis, Debye-Ang):
   XX=             -9.8200   YY=             -8.4740   ZZ=            -14.5638
   XY=             -1.5500   XZ=              0.0000   YZ=              0.0000

 Normal termination of Gaussian 16 at Fri Aug 26 13:19:01 2022.
