 Gaussian 16, Revision A.03,
 Gaussian 16:  ES64L-G16RevA.03 25-Dec-2016

 ------------------
 #p CCSD(T)/cc-pVTZ
 ------------------

 ------------
 H2O_H2O_1815
 ------------
 Symbolic Z-matrix:
 Charge =  0 Multiplicity = 1

                         Standard orientation:
 ---------------------------------------------------------------------
 Center     Atomic      Atomic             Coordinates (Angstroms)
 Number     Number       Type             X           Y           Z
 ---------------------------------------------------------------------
      1          8           0        0.047547   -1.733452    0.000000
      2          1           0       -0.753350   -2.302724    0.000000
      3          1           0        0.845788   -2.306441    0.000000
      4          8           0        0.047547    1.783997    0.000000
      5          1           0        0.019169    2.766188    0.000000
      6          1           0       -0.872356    1.438619    0.000000
 ---------------------------------------------------------------------

 SCF Done:  E(RHF) =  -152.106296425     A.U. after   10 cycles
 E2 =    -0.5265769843D+00 EUMP2 =    -0.15263287340935D+03
 CCSD(T)
 CCSD(T)= -0.15266006944D+03

 The electronic state is 1-A'.
 Alpha  occ. eigenvalues --  -20.55202 -20.54152  -1.32478  -1.31419  -0.69897
 Alpha  occ. eigenvalues --   -0.68800  -0.55897  -0.54726  -0.49587  -0.48531
 Alpha virt. eigenvalues --    0.13611   0.16298   0.20167   0.22294   0.53662
 Alpha virt. eigenvalues --    0.54888   0.57526   0.58569   0.64282   0.76601
 Alpha virt. eigenvalues --    0.78461   0.78481   0.79689   0.80993   0.85103

 Mulliken charges:
               1
     1  O   -0.493115
     2  H    0.242736
     3  H    0.252765
     4  O   -0.496684
     5  H    0.239579
     6  H    0.254719
 Sum of Mulliken charges =  -0.00000

 Dipole moment (field-independent basis, Debye):
    X=             -1.5859    Y=             -0.9414    Z=              0.0000  Tot=              1.8443
 Quadrupole moment (field-independent basis, Debye-Ang):
   XX=             -9.2435   YY=              0.1456   ZZ=            -14.7140
   XY=             -2.1796   XZ=              0.0000   YZ=              0.0000

 Normal termination of Gaussian 16 at Sat Aug 27 06:56:31 2022.
