 Gaussian 16, Revision A.03,
 Gaussian 16:  ES64L-G16RevA.03 25-Dec-2016

 ------------------
 #p CCSD(T)/cc-pVTZ
 ------------------

 ------------
 H2O_H2O_1560
 ------------
 Symbolic Z-matrix:
 Charge =  0 Multiplicity = 1

                         Standard orientation:
 ---------------------------------------------------------------------
 Center     Atomic      Atomic             Coordinates (Angstroms)
 Number     Number       Type             X           Y           Z
 ---------------------------------------------------------------------
      1          8           0        0.034790   -1.615194    0.000000
      2          1           0       -0.765830   -2.184854    0.000000
      3          1           0        0.833309   -2.187796    0.000000
      4          8           0        0.034790    1.638671    0.000000
      5          1           0        0.323178    2.577999    0.000000
      6          1           0       -0.947296    1.606838    0.000000
 ---------------------------------------------------------------------

 SCF Done:  E(RHF) =  -152.104236133     A.U. after   10 cycles
 E2 =    -0.5269379224D+00 EUMP2 =    -0.15263117405517D+03
 CCSD(T)
 CCSD(T)= -0.15265841188D+03

 The electronic state is 1-A'.
 Alpha  occ. eigenvalues --  -20.54561 -20.54030  -1.31851  -1.31289  -0.69277
 Alpha  occ. eigenvalues --   -0.68696  -0.55568  -0.54097  -0.48972  -0.48364
 Alpha virt. eigenvalues --    0.14012   0.16452   0.20392   0.21989   0.53044
 Alpha virt. eigenvalues --    0.56716   0.57988   0.58687   0.64258   0.77000
 Alpha virt. eigenvalues --    0.78212   0.78761   0.79262   0.81825   0.85601

 Mulliken charges:
               1
     1  O   -0.483549
     2  H    0.237790
     3  H    0.246932
     4  O   -0.482972
     5  H    0.235081
     6  H    0.246718
 Sum of Mulliken charges =   0.00000

 Dipole moment (field-independent basis, Debye):
    X=             -1.1498    Y=             -0.4408    Z=              0.0000  Tot=              1.2314
 Quadrupole moment (field-independent basis, Debye-Ang):
   XX=             -8.6151   YY=              0.1257   ZZ=            -14.7116
   XY=             -1.1492   XZ=              0.0000   YZ=              0.0000

 Normal termination of Gaussian 16 at Sat Aug 27 05:28:27 2022.
