 Gaussian 16, Revision A.03,
 Gaussian 16:  ES64L-G16RevA.03 25-Dec-2016

 ------------------
 #p CCSD(T)/cc-pVTZ
 ------------------

 ------------
 H2O_H2O_4338
 ------------
 Symbolic Z-matrix:
 Charge =  0 Multiplicity = 1

                         Standard orientation:
 ---------------------------------------------------------------------
 Center     Atomic      Atomic             Coordinates (Angstroms)
 Number     Number       Type             X           Y           Z
 ---------------------------------------------------------------------
      1          8           0        0.042963   -3.082714    0.000000
      2          1           0       -0.757288   -3.652893    0.000000
      3          1           0        0.841853   -3.654798    0.000000
      4          8           0        0.042963    3.121523    0.000000
      5          1           0        0.141922    4.099129    0.000000
      6          1           0       -0.913898    2.898087    0.000000
 ---------------------------------------------------------------------

 SCF Done:  E(RHF) =  -152.107096393     A.U. after   10 cycles
 E2 =    -0.5259087192D+00 EUMP2 =    -0.15263300511205D+03
 CCSD(T)
 CCSD(T)= -0.15266023173D+03

 The electronic state is 1-A'.
 Alpha  occ. eigenvalues --  -20.55387 -20.55153  -1.32684  -1.32449  -0.70091
 Alpha  occ. eigenvalues --   -0.69851  -0.56117  -0.55882  -0.49793  -0.49559
 Alpha virt. eigenvalues --    0.14256   0.14504   0.20321   0.20570   0.54474
 Alpha virt. eigenvalues --    0.54725   0.57365   0.57600   0.68078   0.68353
 Alpha virt. eigenvalues --    0.79086   0.79317   0.80523   0.80776   0.82452

 Mulliken charges:
               1
     1  O   -0.507045
     2  H    0.252502
     3  H    0.254544
     4  O   -0.506864
     5  H    0.251794
     6  H    0.255070
 Sum of Mulliken charges =  -0.00000

 Dipole moment (field-independent basis, Debye):
    X=             -1.4760    Y=             -0.6781    Z=              0.0000  Tot=              1.6243
 Quadrupole moment (field-independent basis, Debye-Ang):
   XX=             -8.9648   YY=              9.6766   ZZ=            -14.7113
   XY=             -3.7592   XZ=              0.0000   YZ=              0.0000

 Normal termination of Gaussian 16 at Sat Aug 27 06:45:10 2022.
