 Gaussian 16, Revision A.03,
 Gaussian 16:  ES64L-G16RevA.03 25-Dec-2016

 ------------------
 #p CCSD(T)/cc-pVTZ
 ------------------

 ------------
 H2O_H2O_4514
 ------------
 Symbolic Z-matrix:
 Charge =  0 Multiplicity = 1

                         Standard orientation:
 ---------------------------------------------------------------------
 Center     Atomic      Atomic             Coordinates (Angstroms)
 Number     Number       Type             X           Y           Z
 ---------------------------------------------------------------------
      1          8           0        0.045338   -3.172652    0.000000
      2          1           0       -0.754929   -3.742807    0.000000
      3          1           0        0.844211   -3.744760    0.000000
      4          8           0        0.045338    3.217231    0.000000
      5          1           0        0.080176    4.199215    0.000000
      6          1           0       -0.894869    2.931720    0.000000
 ---------------------------------------------------------------------

 SCF Done:  E(RHF) =  -152.107173343     A.U. after   10 cycles
 E2 =    -0.5258995979D+00 EUMP2 =    -0.15263307294067D+03
 CCSD(T)
 CCSD(T)= -0.15266029806D+03

 The electronic state is 1-A'.
 Alpha  occ. eigenvalues --  -20.55432 -20.55180  -1.32729  -1.32476  -0.70136
 Alpha  occ. eigenvalues --   -0.69878  -0.56166  -0.55912  -0.49839  -0.49587
 Alpha virt. eigenvalues --    0.14221   0.14481   0.20287   0.20554   0.54428
 Alpha virt. eigenvalues --    0.54698   0.57326   0.57580   0.68034   0.68306
 Alpha virt. eigenvalues --    0.79040   0.79289   0.80476   0.80748   0.82402

 Mulliken charges:
               1
     1  O   -0.507498
     2  H    0.252762
     3  H    0.254735
     4  O   -0.507322
     5  H    0.252034
     6  H    0.255288
 Sum of Mulliken charges =  -0.00000

 Dipole moment (field-independent basis, Debye):
    X=             -1.5583    Y=             -0.7783    Z=              0.0000  Tot=              1.7419
 Quadrupole moment (field-independent basis, Debye-Ang):
   XX=             -9.0967   YY=              9.7717   ZZ=            -14.7115
   XY=             -4.1931   XZ=              0.0000   YZ=              0.0000

 Normal termination of Gaussian 16 at Sat Aug 27 07:45:14 2022.
