 Gaussian 16, Revision A.03,
 Gaussian 16:  ES64L-G16RevA.03 25-Dec-2016

 ------------------
 #p CCSD(T)/cc-pVTZ
 ------------------

 ------------
 H2O_H2O_3375
 ------------
 Symbolic Z-matrix:
 Charge =  0 Multiplicity = 1

                         Standard orientation:
 ---------------------------------------------------------------------
 Center     Atomic      Atomic             Coordinates (Angstroms)
 Number     Number       Type             X           Y           Z
 ---------------------------------------------------------------------
      1          8           0        0.000000   -0.000000    2.598547
      2          1           0        0.000000    0.799571    3.169679
      3          1           0       -0.000000   -0.799571    3.169679
      4          8           0        0.000000   -0.000000   -2.598547
      5          1           0       -0.000000   -0.799571   -3.169679
      6          1           0        0.000000    0.799571   -3.169679
 ---------------------------------------------------------------------

 SCF Done:  E(RHF) =  -152.106292207     A.U. after   10 cycles
 E2 =    -0.5260011356D+00 EUMP2 =    -0.15263229334303D+03
 CCSD(T)
 CCSD(T)= -0.15265953575D+03

 The electronic state is 1-AG.
 Alpha  occ. eigenvalues --  -20.54972 -20.54972  -1.32266  -1.32265  -0.69675
 Alpha  occ. eigenvalues --   -0.69674  -0.55667  -0.55652  -0.49370  -0.49368
 Alpha virt. eigenvalues --    0.14471   0.14751   0.20583   0.20675   0.54836
 Alpha virt. eigenvalues --    0.54960   0.57699   0.57742   0.67897   0.69337
 Alpha virt. eigenvalues --    0.79497   0.79517   0.80928   0.80995   0.82770

 Mulliken charges:
               1
     1  O   -0.502299
     2  H    0.251149
     3  H    0.251149
     4  O   -0.502299
     5  H    0.251149
     6  H    0.251149
 Sum of Mulliken charges =  -0.00000

 Dipole moment (field-independent basis, Debye):
    X=             -0.0000    Y=              0.0000    Z=              0.0000  Tot=              0.0000
 Quadrupole moment (field-independent basis, Debye-Ang):
   XX=            -14.7100   YY=             -7.8120   ZZ=              8.7324
   XY=              0.0000   XZ=              0.0000   YZ=             -0.0000

 \MP4DQ=-152.641415\MP4SDQ=-152.6444801\CCSD=-152.6438899\CCSD(T)=-152.
 Normal termination of Gaussian 16 at Fri Aug 26 21:48:54 2022.
