 Gaussian 16, Revision A.03,
 Gaussian 16:  ES64L-G16RevA.03 25-Dec-2016

 ------------------
 #p CCSD(T)/cc-pVTZ
 ------------------

 ------------
 H2O_H2O_3063
 ------------
 Symbolic Z-matrix:
 Charge =  0 Multiplicity = 1

                         Standard orientation:
 ---------------------------------------------------------------------
 Center     Atomic      Atomic             Coordinates (Angstroms)
 Number     Number       Type             X           Y           Z
 ---------------------------------------------------------------------
      1          8           0        0.042970   -2.404637    0.000000
      2          1           0       -0.757471   -2.974550    0.000000
      3          1           0        0.841669   -2.976988    0.000000
      4          8           0        0.042970    2.443418    0.000000
      5          1           0        0.142254    3.420991    0.000000
      6          1           0       -0.913966    2.220301    0.000000
 ---------------------------------------------------------------------

 SCF Done:  E(RHF) =  -152.106706362     A.U. after   10 cycles
 E2 =    -0.5259964497D+00 EUMP2 =    -0.15263270281142D+03
 CCSD(T)
 CCSD(T)= -0.15265993350D+03

 The electronic state is 1-A'.
 Alpha  occ. eigenvalues --  -20.55234 -20.54843  -1.32529  -1.32134  -0.69938
 Alpha  occ. eigenvalues --   -0.69531  -0.55941  -0.55547  -0.49635  -0.49243
 Alpha virt. eigenvalues --    0.14065   0.15036   0.20347   0.20937   0.54497
 Alpha virt. eigenvalues --    0.55043   0.57486   0.57857   0.67038   0.70276
 Alpha virt. eigenvalues --    0.79242   0.79630   0.80594   0.81170   0.82834

 Mulliken charges:
               1
     1  O   -0.504656
     2  H    0.250304
     3  H    0.254422
     4  O   -0.504216
     5  H    0.248957
     6  H    0.255189
 Sum of Mulliken charges =  -0.00000

 Dipole moment (field-independent basis, Debye):
    X=             -1.4672    Y=             -0.6870    Z=              0.0000  Tot=              1.6201
 Quadrupole moment (field-independent basis, Debye-Ang):
   XX=             -8.9686   YY=              5.1487   ZZ=            -14.7111
   XY=             -2.7704   XZ=              0.0000   YZ=              0.0000

 Normal termination of Gaussian 16 at Fri Aug 26 19:03:22 2022.
