 Gaussian 16, Revision A.03,
 Gaussian 16:  ES64L-G16RevA.03 25-Dec-2016

 ------------------
 #p CCSD(T)/cc-pVTZ
 ------------------

 -----------
 H2O_H2O_767
 -----------
 Symbolic Z-matrix:
 Charge =  0 Multiplicity = 1

                         Standard orientation:
 ---------------------------------------------------------------------
 Center     Atomic      Atomic             Coordinates (Angstroms)
 Number     Number       Type             X           Y           Z
 ---------------------------------------------------------------------
      1          8           0        0.051340   -1.168078    0.000000
      2          1           0       -0.750325   -1.736267    0.000000
      3          1           0        0.848806   -1.742145    0.000000
      4          8           0        0.051340    1.231406    0.000000
      5          1           0       -0.103686    2.201702    0.000000
      6          1           0       -0.816235    0.770084    0.000000
 ---------------------------------------------------------------------

 SCF Done:  E(RHF) =  -152.095016582     A.U. after   11 cycles
 E2 =    -0.5302070138D+00 EUMP2 =    -0.15262522359629D+03
 CCSD(T)
 CCSD(T)= -0.15265232237D+03

 The electronic state is 1-A'.
 Alpha  occ. eigenvalues --  -20.55031 -20.52535  -1.32926  -1.29775  -0.70303
 Alpha  occ. eigenvalues --   -0.68027  -0.56158  -0.52040  -0.50025  -0.46748
 Alpha virt. eigenvalues --    0.13668   0.17787   0.19906   0.24190   0.52529
 Alpha virt. eigenvalues --    0.57229   0.59292   0.60591   0.71267   0.74724
 Alpha virt. eigenvalues --    0.78010   0.82666   0.83023   0.84768   0.86657

 Mulliken charges:
               1
     1  O   -0.462762
     2  H    0.226671
     3  H    0.245740
     4  O   -0.468871
     5  H    0.208755
     6  H    0.250468
 Sum of Mulliken charges =  -0.00000

 Dipole moment (field-independent basis, Debye):
    X=             -1.5851    Y=             -1.2755    Z=              0.0000  Tot=              2.0346
 Quadrupole moment (field-independent basis, Debye-Ang):
   XX=             -9.5285   YY=             -4.2350   ZZ=            -14.7228
   XY=             -1.6261   XZ=              0.0000   YZ=              0.0000

 Normal termination of Gaussian 16 at Fri Aug 26 19:48:19 2022.
