 Gaussian 16, Revision A.03,
 Gaussian 16:  ES64L-G16RevA.03 25-Dec-2016

 ------------------
 #p CCSD(T)/cc-pVTZ
 ------------------

 ------------
 H2O_H2O_3850
 ------------
 Symbolic Z-matrix:
 Charge =  0 Multiplicity = 1

                         Standard orientation:
 ---------------------------------------------------------------------
 Center     Atomic      Atomic             Coordinates (Angstroms)
 Number     Number       Type             X           Y           Z
 ---------------------------------------------------------------------
      1          8           0        0.000000   -0.000000    2.851169
      2          1           0        0.000000    0.799571    3.422301
      3          1           0       -0.000000   -0.799571    3.422301
      4          8           0        0.000000   -0.000000   -2.851169
      5          1           0       -0.000000   -0.799571   -3.422301
      6          1           0        0.000000    0.799571   -3.422301
 ---------------------------------------------------------------------

 SCF Done:  E(RHF) =  -152.106574784     A.U. after   10 cycles
 E2 =    -0.5259612745D+00 EUMP2 =    -0.15263253605879D+03
 CCSD(T)
 CCSD(T)= -0.15265977337D+03

 The electronic state is 1-AG.
 Alpha  occ. eigenvalues --  -20.55083 -20.55083  -1.32378  -1.32378  -0.69786
 Alpha  occ. eigenvalues --   -0.69786  -0.55787  -0.55785  -0.49484  -0.49483
 Alpha virt. eigenvalues --    0.14473   0.14576   0.20537   0.20576   0.54768
 Alpha virt. eigenvalues --    0.54802   0.57622   0.57640   0.68289   0.68651
 Alpha virt. eigenvalues --    0.79393   0.79396   0.80835   0.80851   0.82761

 Mulliken charges:
               1
     1  O   -0.503954
     2  H    0.251977
     3  H    0.251977
     4  O   -0.503954
     5  H    0.251977
     6  H    0.251977
 Sum of Mulliken charges =   0.00000

 Dipole moment (field-independent basis, Debye):
    X=             -0.0000    Y=              0.0000    Z=             -0.0000  Tot=              0.0000
 Quadrupole moment (field-independent basis, Debye-Ang):
   XX=            -14.7103   YY=             -7.8071   ZZ=             10.7686
   XY=              0.0000   XZ=              0.0000   YZ=             -0.0000

 9\MP4DQ=-152.6416604\MP4SDQ=-152.6447228\CCSD=-152.6441336\CCSD(T)=-15
 Normal termination of Gaussian 16 at Sat Aug 27 03:46:55 2022.
