 Gaussian 16, Revision A.03,
 Gaussian 16:  ES64L-G16RevA.03 25-Dec-2016

 ------------------
 #p CCSD(T)/cc-pVTZ
 ------------------

 -----------
 H2O_H2O_430
 -----------
 Symbolic Z-matrix:
 Charge =  0 Multiplicity = 1

                         Standard orientation:
 ---------------------------------------------------------------------
 Center     Atomic      Atomic             Coordinates (Angstroms)
 Number     Number       Type             X           Y           Z
 ---------------------------------------------------------------------
      1          8           0        0.018363   -1.026367    0.000000
      2          1           0       -0.782084   -1.596271    0.000000
      3          1           0        0.817056   -1.598726    0.000000
      4          8           0        0.018363    1.032373    0.000000
      5          1           0        0.593141    1.829327    0.000000
      6          1           0       -0.921922    1.317625    0.000000
 ---------------------------------------------------------------------

 SCF Done:  E(RHF) =  -152.059963976     A.U. after   11 cycles
 E2 =    -0.5341043997D+00 EUMP2 =    -0.15259406837566D+03
 CCSD(T)
 CCSD(T)= -0.15262099276D+03

 The electronic state is 1-A'.
 Alpha  occ. eigenvalues --  -20.52168 -20.51980  -1.31809  -1.28771  -0.68597
 Alpha  occ. eigenvalues --   -0.66777  -0.60124  -0.49051  -0.45267  -0.44895
 Alpha virt. eigenvalues --    0.14591   0.18218   0.20452   0.22899   0.51005
 Alpha virt. eigenvalues --    0.58881   0.58978   0.65399   0.70057   0.77557
 Alpha virt. eigenvalues --    0.78512   0.82530   0.84233   0.86569   0.87420

 Mulliken charges:
               1
     1  O   -0.439189
     2  H    0.213295
     3  H    0.224387
     4  O   -0.424963
     5  H    0.197175
     6  H    0.229296
 Sum of Mulliken charges =  -0.00000

 Dipole moment (field-independent basis, Debye):
    X=             -0.5406    Y=             -0.1250    Z=              0.0000  Tot=              0.5549
 Quadrupole moment (field-independent basis, Debye-Ang):
   XX=             -8.3151   YY=             -5.3691   ZZ=            -14.7450
   XY=             -0.1959   XZ=              0.0000   YZ=              0.0000

 207\MP4DQ=-152.6015481\MP4SDQ=-152.6050334\CCSD=-152.6042757\CCSD(T)=-
 Normal termination of Gaussian 16 at Fri Aug 26 16:23:35 2022.
