 Gaussian 16, Revision A.03,
 Gaussian 16:  ES64L-G16RevA.03 25-Dec-2016

 ------------------
 #p CCSD(T)/cc-pVTZ
 ------------------

 ------------
 H2O_H2O_3223
 ------------
 Symbolic Z-matrix:
 Charge =  0 Multiplicity = 1

                         Standard orientation:
 ---------------------------------------------------------------------
 Center     Atomic      Atomic             Coordinates (Angstroms)
 Number     Number       Type             X           Y           Z
 ---------------------------------------------------------------------
      1          8           0        0.057096   -2.447619    0.000000
      2          1           0       -0.743594   -3.017181    0.000000
      3          1           0        0.855545   -3.020318    0.000000
      4          8           0        0.057096    2.554151    0.000000
      5          1           0       -0.458880    3.390378    0.000000
      6          1           0       -0.566599    1.794868    0.000000
 ---------------------------------------------------------------------

 SCF Done:  E(RHF) =  -152.107962525     A.U. after   10 cycles
 E2 =    -0.5259071341D+00 EUMP2 =    -0.15263386965941D+03
 CCSD(T)
 CCSD(T)= -0.15266106958D+03

 The electronic state is 1-A'.
 Alpha  occ. eigenvalues --  -20.55850 -20.54810  -1.33145  -1.32111  -0.70551
 Alpha  occ. eigenvalues --   -0.69499  -0.56614  -0.55568  -0.50261  -0.49230
 Alpha virt. eigenvalues --    0.13439   0.15164   0.19948   0.21263   0.53967
 Alpha virt. eigenvalues --    0.54888   0.56982   0.57880   0.66825   0.69711
 Alpha virt. eigenvalues --    0.78629   0.79628   0.79790   0.80297   0.82799

 Mulliken charges:
               1
     1  O   -0.511163
     2  H    0.253459
     3  H    0.258096
     4  O   -0.510963
     5  H    0.250369
     6  H    0.260201
 Sum of Mulliken charges =  -0.00000

 Dipole moment (field-independent basis, Debye):
    X=             -1.9527    Y=             -1.8915    Z=              0.0000  Tot=              2.7186
 Quadrupole moment (field-independent basis, Debye-Ang):
   XX=             -9.8532   YY=              0.5483   ZZ=            -14.7140
   XY=             -5.0437   XZ=              0.0000   YZ=              0.0000

 Normal termination of Gaussian 16 at Fri Aug 26 20:30:06 2022.
