 Gaussian 16, Revision A.03,
 Gaussian 16:  ES64L-G16RevA.03 25-Dec-2016

 ------------------
 #p CCSD(T)/cc-pVTZ
 ------------------

 ------------
 H2O_H2O_1080
 ------------
 Symbolic Z-matrix:
 Charge =  0 Multiplicity = 1

                         Standard orientation:
 ---------------------------------------------------------------------
 Center     Atomic      Atomic             Coordinates (Angstroms)
 Number     Number       Type             X           Y           Z
 ---------------------------------------------------------------------
      1          8           0        0.018362   -1.372053    0.000000
      2          1           0       -0.781865   -1.942266    0.000000
      3          1           0        0.817276   -1.944104    0.000000
      4          8           0        0.018362    1.378073    0.000000
      5          1           0        0.592833    2.175249    0.000000
      6          1           0       -0.922033    1.662962    0.000000
 ---------------------------------------------------------------------

 SCF Done:  E(RHF) =  -152.098713796     A.U. after   11 cycles
 E2 =    -0.5280751193D+00 EUMP2 =    -0.15262678891486D+03
 CCSD(T)
 CCSD(T)= -0.15265409397D+03

 The electronic state is 1-A'.
 Alpha  occ. eigenvalues --  -20.53650 -20.53488  -1.31179  -1.30683  -0.68557
 Alpha  occ. eigenvalues --   -0.68179  -0.56110  -0.51910  -0.48421  -0.47567
 Alpha virt. eigenvalues --    0.14382   0.17063   0.20532   0.22184   0.51384
 Alpha virt. eigenvalues --    0.58521   0.58767   0.61082   0.70245   0.76507
 Alpha virt. eigenvalues --    0.76989   0.78468   0.80166   0.83401   0.86209

 Mulliken charges:
               1
     1  O   -0.468535
     2  H    0.230406
     3  H    0.237808
     4  O   -0.463906
     5  H    0.228306
     6  H    0.235921
 Sum of Mulliken charges =  -0.00000

 Dipole moment (field-independent basis, Debye):
    X=             -0.5896    Y=             -0.1148    Z=              0.0000  Tot=              0.6007
 Quadrupole moment (field-independent basis, Debye-Ang):
   XX=             -8.1375   YY=             -1.6761   ZZ=            -14.7156
   XY=             -0.3604   XZ=              0.0000   YZ=              0.0000

 Normal termination of Gaussian 16 at Sat Aug 27 01:55:02 2022.
