 Gaussian 16, Revision A.03,
 Gaussian 16:  ES64L-G16RevA.03 25-Dec-2016

 ------------------
 #p CCSD(T)/cc-pVTZ
 ------------------

 -----------
 H2O_H2O_919
 -----------
 Symbolic Z-matrix:
 Charge =  0 Multiplicity = 1

                         Standard orientation:
 ---------------------------------------------------------------------
 Center     Atomic      Atomic             Coordinates (Angstroms)
 Number     Number       Type             X           Y           Z
 ---------------------------------------------------------------------
      1          8           0        0.054223   -1.240366    0.000000
      2          1           0       -0.747422   -1.808584    0.000000
      3          1           0        0.851710   -1.814405    0.000000
      4          8           0        0.054223    1.317482    0.000000
      5          1           0       -0.226160    2.259231    0.000000
      6          1           0       -0.745696    0.746836    0.000000
 ---------------------------------------------------------------------

 SCF Done:  E(RHF) =  -152.101350126     A.U. after   11 cycles
 E2 =    -0.5292561537D+00 EUMP2 =    -0.15263060627981D+03
 CCSD(T)
 CCSD(T)= -0.15265769179D+03

 The electronic state is 1-A'.
 Alpha  occ. eigenvalues --  -20.55683 -20.52663  -1.33316  -1.29961  -0.70711
 Alpha  occ. eigenvalues --   -0.68021  -0.56145  -0.53128  -0.50404  -0.47014
 Alpha virt. eigenvalues --    0.13432   0.17719   0.19771   0.24624   0.52223
 Alpha virt. eigenvalues --    0.56922   0.59286   0.59671   0.71106   0.74459
 Alpha virt. eigenvalues --    0.76576   0.82696   0.82816   0.83095   0.84463

 Mulliken charges:
               1
     1  O   -0.471015
     2  H    0.233006
     3  H    0.251235
     4  O   -0.488355
     5  H    0.219044
     6  H    0.256085
 Sum of Mulliken charges =  -0.00000

 Dipole moment (field-independent basis, Debye):
    X=             -1.7060    Y=             -1.5591    Z=              0.0000  Tot=              2.3112
 Quadrupole moment (field-independent basis, Debye-Ang):
   XX=             -9.6849   YY=             -4.0172   ZZ=            -14.7239
   XY=             -2.0914   XZ=              0.0000   YZ=              0.0000

 Normal termination of Gaussian 16 at Fri Aug 26 21:11:44 2022.
