 Gaussian 16, Revision A.03,
 Gaussian 16:  ES64L-G16RevA.03 25-Dec-2016

 ------------------
 #p CCSD(T)/cc-pVTZ
 ------------------

 ------------
 H2O_H2O_3038
 ------------
 Symbolic Z-matrix:
 Charge =  0 Multiplicity = 1

                         Standard orientation:
 ---------------------------------------------------------------------
 Center     Atomic      Atomic             Coordinates (Angstroms)
 Number     Number       Type             X           Y           Z
 ---------------------------------------------------------------------
      1          8           0        0.042970   -2.391342    0.000000
      2          1           0       -0.757476   -2.961247    0.000000
      3          1           0        0.841664   -2.963699    0.000000
      4          8           0        0.042970    2.430122    0.000000
      5          1           0        0.142263    3.407695    0.000000
      6          1           0       -0.913967    2.207013    0.000000
 ---------------------------------------------------------------------

 SCF Done:  E(RHF) =  -152.106695348     A.U. after   10 cycles
 E2 =    -0.5260000779D+00 EUMP2 =    -0.15263269542567D+03
 CCSD(T)
 CCSD(T)= -0.15265992609D+03

 The electronic state is 1-A'.
 Alpha  occ. eigenvalues --  -20.55230 -20.54834  -1.32525  -1.32125  -0.69934
 Alpha  occ. eigenvalues --   -0.69522  -0.55936  -0.55538  -0.49631  -0.49234
 Alpha virt. eigenvalues --    0.14055   0.15055   0.20346   0.20950   0.54489
 Alpha virt. eigenvalues --    0.55049   0.57489   0.57863   0.66977   0.70380
 Alpha virt. eigenvalues --    0.79245   0.79639   0.80591   0.81191   0.82844

 Mulliken charges:
               1
     1  O   -0.504574
     2  H    0.250235
     3  H    0.254415
     4  O   -0.504134
     5  H    0.248871
     6  H    0.255187
 Sum of Mulliken charges =  -0.00000

 Dipole moment (field-independent basis, Debye):
    X=             -1.4669    Y=             -0.6874    Z=              0.0000  Tot=              1.6199
 Quadrupole moment (field-independent basis, Debye-Ang):
   XX=             -8.9688   YY=              5.0594   ZZ=            -14.7111
   XY=             -2.7511   XZ=              0.0000   YZ=              0.0000

 Normal termination of Gaussian 16 at Fri Aug 26 18:45:36 2022.
