 Gaussian 16, Revision A.03,
 Gaussian 16:  ES64L-G16RevA.03 25-Dec-2016

 ------------------
 #p CCSD(T)/cc-pVTZ
 ------------------

 ------------
 H2O_H2O_1437
 ------------
 Symbolic Z-matrix:
 Charge =  0 Multiplicity = 1

                         Standard orientation:
 ---------------------------------------------------------------------
 Center     Atomic      Atomic             Coordinates (Angstroms)
 Number     Number       Type             X           Y           Z
 ---------------------------------------------------------------------
      1          8           0        0.040422   -1.543392    0.000000
      2          1           0       -0.760419   -2.112741    0.000000
      3          1           0        0.838719   -2.116304    0.000000
      4          8           0        0.040422    1.576668    0.000000
      5          1           0        0.204113    2.545539    0.000000
      6          1           0       -0.929169    1.417297    0.000000
 ---------------------------------------------------------------------

 SCF Done:  E(RHF) =  -152.104250166     A.U. after   10 cycles
 E2 =    -0.5271443019D+00 EUMP2 =    -0.15263139446818D+03
 CCSD(T)
 CCSD(T)= -0.15265862164D+03

 The electronic state is 1-A'.
 Alpha  occ. eigenvalues --  -20.54695 -20.53872  -1.31996  -1.31125  -0.69422
 Alpha  occ. eigenvalues --   -0.68532  -0.55722  -0.53933  -0.49120  -0.48201
 Alpha virt. eigenvalues --    0.13933   0.16635   0.20293   0.22355   0.53433
 Alpha virt. eigenvalues --    0.56777   0.57883   0.58695   0.65474   0.76532
 Alpha virt. eigenvalues --    0.77691   0.78110   0.79454   0.82159   0.85482

 Mulliken charges:
               1
     1  O   -0.482457
     2  H    0.236576
     3  H    0.247899
     4  O   -0.481800
     5  H    0.232083
     6  H    0.247699
 Sum of Mulliken charges =  -0.00000

 Dipole moment (field-independent basis, Debye):
    X=             -1.3264    Y=             -0.6301    Z=              0.0000  Tot=              1.4685
 Quadrupole moment (field-independent basis, Debye-Ang):
   XX=             -8.8819   YY=             -0.6683   ZZ=            -14.7138
   XY=             -1.3700   XZ=              0.0000   YZ=              0.0000

 Normal termination of Gaussian 16 at Sat Aug 27 04:45:39 2022.
