 Gaussian 16, Revision A.03,
 Gaussian 16:  ES64L-G16RevA.03 25-Dec-2016

 ------------------
 #p CCSD(T)/cc-pVTZ
 ------------------

 -----------
 H2O_H2O_120
 -----------
 Symbolic Z-matrix:
 Charge =  0 Multiplicity = 1

                         Standard orientation:
 ---------------------------------------------------------------------
 Center     Atomic      Atomic             Coordinates (Angstroms)
 Number     Number       Type             X           Y           Z
 ---------------------------------------------------------------------
      1          8           0        0.055402   -0.811128    0.000000
      2          1           0       -0.747336   -1.377801    0.000000
      3          1           0        0.851781   -1.386702    0.000000
      4          8           0        0.055402    0.895175    0.000000
      5          1           0       -0.284198    1.817226    0.000000
      6          1           0       -0.706678    0.274901    0.000000
 ---------------------------------------------------------------------

 SCF Done:  E(RHF) =  -151.941965061     A.U. after   12 cycles
 E2 =    -0.5483716361D+00 EUMP2 =    -0.15249033669713D+03
 CCSD(T)
 CCSD(T)= -0.15251530323D+03

 The electronic state is 1-A'.
 Alpha  occ. eigenvalues --  -20.55294 -20.49041  -1.40300  -1.26147  -0.77540
 Alpha  occ. eigenvalues --   -0.71996  -0.54690  -0.52403  -0.43142  -0.42569
 Alpha virt. eigenvalues --    0.13193   0.18600   0.20061   0.25533   0.50161
 Alpha virt. eigenvalues --    0.54485   0.61800   0.68007   0.73167   0.76449
 Alpha virt. eigenvalues --    0.78380   0.80349   0.84217   0.84915   0.88723

 Mulliken charges:
               1
     1  O   -0.307911
     2  H    0.158818
     3  H    0.208224
     4  O   -0.443618
     5  H    0.127236
     6  H    0.257251
 Sum of Mulliken charges =  -0.00000

 Dipole moment (field-independent basis, Debye):
    X=             -1.4535    Y=             -2.0468    Z=              0.0000  Tot=              2.5104
 Quadrupole moment (field-independent basis, Debye-Ang):
   XX=             -9.7988   YY=             -8.5592   ZZ=            -14.5701
   XY=             -1.3724   XZ=              0.0000   YZ=              0.0000

 Normal termination of Gaussian 16 at Fri Aug 26 12:57:02 2022.
