 Gaussian 16, Revision A.03,
 Gaussian 16:  ES64L-G16RevA.03 25-Dec-2016

 ------------------
 #p CCSD(T)/cc-pVTZ
 ------------------

 ------------
 H2O_H2O_4302
 ------------
 Symbolic Z-matrix:
 Charge =  0 Multiplicity = 1

                         Standard orientation:
 ---------------------------------------------------------------------
 Center     Atomic      Atomic             Coordinates (Angstroms)
 Number     Number       Type             X           Y           Z
 ---------------------------------------------------------------------
      1          8           0        0.007455   -3.089966    0.000000
      2          1           0       -0.792235   -3.660932    0.000000
      3          1           0        0.806907   -3.661264    0.000000
      4          8           0        0.007455    3.090941    0.000000
      5          1           0        0.725777    3.761403    0.000000
      6          1           0       -0.859728    3.553001    0.000000
 ---------------------------------------------------------------------

 SCF Done:  E(RHF) =  -152.106776030     A.U. after   10 cycles
 E2 =    -0.5259356178D+00 EUMP2 =    -0.15263271164765D+03
 CCSD(T)
 CCSD(T)= -0.15265994515D+03

 The electronic state is 1-A'.
 Alpha  occ. eigenvalues --  -20.55172 -20.55166  -1.32468  -1.32462  -0.69875
 Alpha  occ. eigenvalues --   -0.69869  -0.55886  -0.55880  -0.49574  -0.49569
 Alpha virt. eigenvalues --    0.14438   0.14474   0.20490   0.20506   0.54692
 Alpha virt. eigenvalues --    0.54704   0.57555   0.57565   0.68314   0.68399
 Alpha virt. eigenvalues --    0.79304   0.79310   0.80749   0.80755   0.82678

 Mulliken charges:
               1
     1  O   -0.505137
     2  H    0.252389
     3  H    0.252748
     4  O   -0.505131
     5  H    0.252315
     6  H    0.252815
 Sum of Mulliken charges =  -0.00000

 Dipole moment (field-independent basis, Debye):
    X=             -0.2560    Y=             -0.0170    Z=              0.0000  Tot=              0.2566
 Quadrupole moment (field-independent basis, Debye-Ang):
   XX=             -7.8387   YY=             12.6171   ZZ=            -14.7106
   XY=             -0.5603   XZ=              0.0000   YZ=              0.0000

 3965\MP4DQ=-152.6418374\MP4SDQ=-152.6448979\CCSD=-152.6443094\CCSD(T)=
 Normal termination of Gaussian 16 at Sat Aug 27 06:33:03 2022.
