 Gaussian 16, Revision A.03,
 Gaussian 16:  ES64L-G16RevA.03 25-Dec-2016

 ------------------
 #p CCSD(T)/cc-pVTZ
 ------------------

 -----------
 H2O_H2O_551
 -----------
 Symbolic Z-matrix:
 Charge =  0 Multiplicity = 1

                         Standard orientation:
 ---------------------------------------------------------------------
 Center     Atomic      Atomic             Coordinates (Angstroms)
 Number     Number       Type             X           Y           Z
 ---------------------------------------------------------------------
      1          8           0        0.003735   -1.095977    0.000000
      2          1           0       -0.796003   -1.666875    0.000000
      3          1           0        0.803139   -1.667344    0.000000
      4          8           0        0.003735    1.096220    0.000000
      5          1           0        0.764424    1.718200    0.000000
      6          1           0       -0.831326    1.614079    0.000000
 ---------------------------------------------------------------------

 SCF Done:  E(RHF) =  -152.073978689     A.U. after   10 cycles
 E2 =    -0.5320139524D+00 EUMP2 =    -0.15260599264113D+03
 CCSD(T)
 CCSD(T)= -0.15263312029D+03

 The electronic state is 1-A'.
 Alpha  occ. eigenvalues --  -20.52323 -20.52315  -1.31266  -1.29222  -0.68245
 Alpha  occ. eigenvalues --   -0.66962  -0.59072  -0.48577  -0.46624  -0.45783
 Alpha virt. eigenvalues --    0.14607   0.18072   0.20558   0.22624   0.50158
 Alpha virt. eigenvalues --    0.59065   0.59148   0.65202   0.71524   0.77191
 Alpha virt. eigenvalues --    0.78319   0.81571   0.84394   0.86681   0.86961

 Mulliken charges:
               1
     1  O   -0.445259
     2  H    0.221595
     3  H    0.223583
     4  O   -0.444707
     5  H    0.219937
     6  H    0.224851
 Sum of Mulliken charges =  -0.00000

 Dipole moment (field-independent basis, Debye):
    X=             -0.1124    Y=             -0.0049    Z=              0.0000  Tot=              0.1126
 Quadrupole moment (field-independent basis, Debye-Ang):
   XX=             -8.0815   YY=             -4.5457   ZZ=            -14.7430
   XY=             -0.0388   XZ=              0.0000   YZ=              0.0000

 Normal termination of Gaussian 16 at Fri Aug 26 17:34:12 2022.
