 Gaussian 16, Revision A.03,
 Gaussian 16:  ES64L-G16RevA.03 25-Dec-2016

 ------------------
 #p CCSD(T)/cc-pVTZ
 ------------------

 -----------
 H2O_H2O_512
 -----------
 Symbolic Z-matrix:
 Charge =  0 Multiplicity = 1

                         Standard orientation:
 ---------------------------------------------------------------------
 Center     Atomic      Atomic             Coordinates (Angstroms)
 Number     Number       Type             X           Y           Z
 ---------------------------------------------------------------------
      1          8           0        0.040439   -1.051486    0.000000
      2          1           0       -0.760986   -1.620013    0.000000
      3          1           0        0.838147   -1.625218    0.000000
      4          8           0        0.040439    1.084679    0.000000
      5          1           0        0.205124    2.053382    0.000000
      6          1           0       -0.929315    0.926304    0.000000
 ---------------------------------------------------------------------

 SCF Done:  E(RHF) =  -152.074506732     A.U. after   11 cycles
 E2 =    -0.5327622195D+00 EUMP2 =    -0.15260726895115D+03
 CCSD(T)
 CCSD(T)= -0.15263428663D+03

 The electronic state is 1-A'.
 Alpha  occ. eigenvalues --  -20.53416 -20.52240  -1.32328  -1.29192  -0.69491
 Alpha  occ. eigenvalues --   -0.67650  -0.57966  -0.49487  -0.47957  -0.45900
 Alpha virt. eigenvalues --    0.14202   0.17920   0.20191   0.23468   0.53155
 Alpha virt. eigenvalues --    0.57670   0.58300   0.62865   0.71185   0.76156
 Alpha virt. eigenvalues --    0.79105   0.81514   0.83473   0.85604   0.87948

 Mulliken charges:
               1
     1  O   -0.450926
     2  H    0.215630
     3  H    0.234808
     4  O   -0.425641
     5  H    0.186713
     6  H    0.239416
 Sum of Mulliken charges =  -0.00000

 Dipole moment (field-independent basis, Debye):
    X=             -1.1994    Y=             -0.6672    Z=              0.0000  Tot=              1.3725
 Quadrupole moment (field-independent basis, Debye-Ang):
   XX=             -9.0098   YY=             -5.0002   ZZ=            -14.7269
   XY=             -0.7509   XZ=              0.0000   YZ=              0.0000

 Normal termination of Gaussian 16 at Fri Aug 26 17:12:10 2022.
