 Gaussian 16, Revision A.03,
 Gaussian 16:  ES64L-G16RevA.03 25-Dec-2016

 ------------------
 #p CCSD(T)/cc-pVTZ
 ------------------

 ------------
 H2O_H2O_1320
 ------------
 Symbolic Z-matrix:
 Charge =  0 Multiplicity = 1

                         Standard orientation:
 ---------------------------------------------------------------------
 Center     Atomic      Atomic             Coordinates (Angstroms)
 Number     Number       Type             X           Y           Z
 ---------------------------------------------------------------------
      1          8           0        0.055302   -1.449194    0.000000
      2          1           0       -0.746084   -2.017777    0.000000
      3          1           0        0.853050   -2.022869    0.000000
      4          8           0        0.055302    1.533505    0.000000
      5          1           0       -0.286494    2.454745    0.000000
      6          1           0       -0.705298    0.911417    0.000000
 ---------------------------------------------------------------------

 SCF Done:  E(RHF) =  -152.107302992     A.U. after   10 cycles
 E2 =    -0.5274819107D+00 EUMP2 =    -0.15263478490299D+03
 CCSD(T)
 CCSD(T)= -0.15266190754D+03

 The electronic state is 1-A'.
 Alpha  occ. eigenvalues --  -20.55968 -20.53358  -1.33298  -1.30646  -0.70708
 Alpha  occ. eigenvalues --   -0.68149  -0.56601  -0.54074  -0.50412  -0.47764
 Alpha virt. eigenvalues --    0.13296   0.17170   0.19770   0.24342   0.53098
 Alpha virt. eigenvalues --    0.56037   0.56964   0.58628   0.68573   0.75174
 Alpha virt. eigenvalues --    0.75848   0.77531   0.80725   0.82090   0.84481

 Mulliken charges:
               1
     1  O   -0.487142
     2  H    0.240784
     3  H    0.256625
     4  O   -0.502664
     5  H    0.233079
     6  H    0.259318
 Sum of Mulliken charges =  -0.00000

 Dipole moment (field-independent basis, Debye):
    X=             -1.8010    Y=             -1.6498    Z=              0.0000  Tot=              2.4424
 Quadrupole moment (field-independent basis, Debye-Ang):
   XX=             -9.7375   YY=             -2.9184   ZZ=            -14.7238
   XY=             -2.6385   XZ=              0.0000   YZ=              0.0000

 Normal termination of Gaussian 16 at Sat Aug 27 03:53:27 2022.
