 Gaussian 16, Revision A.03,
 Gaussian 16:  ES64L-G16RevA.03 25-Dec-2016

 ------------------
 #p CCSD(T)/cc-pVTZ
 ------------------

 ------------
 H2O_H2O_4922
 ------------
 Symbolic Z-matrix:
 Charge =  0 Multiplicity = 1

                         Standard orientation:
 ---------------------------------------------------------------------
 Center     Atomic      Atomic             Coordinates (Angstroms)
 Number     Number       Type             X           Y           Z
 ---------------------------------------------------------------------
      1          8           0        0.056696   -3.355749    0.000000
      2          1           0       -0.743692   -3.925736    0.000000
      3          1           0        0.855448   -3.928025    0.000000
      4          8           0        0.056696    3.454903    0.000000
      5          1           0       -0.403943    4.322842    0.000000
      6          1           0       -0.614943    2.737681    0.000000
 ---------------------------------------------------------------------

 SCF Done:  E(RHF) =  -152.107569689     A.U. after   10 cycles
 E2 =    -0.5258597395D+00 EUMP2 =    -0.15263342942796D+03
 CCSD(T)
 CCSD(T)= -0.15266064644D+03

 The electronic state is 1-A'.
 Alpha  occ. eigenvalues --  -20.55702 -20.55215  -1.33001  -1.32515  -0.70407
 Alpha  occ. eigenvalues --   -0.69915  -0.56456  -0.55965  -0.50114  -0.49629
 Alpha virt. eigenvalues --    0.13987   0.14475   0.20071   0.20586   0.54153
 Alpha virt. eigenvalues --    0.54655   0.57085   0.57572   0.67718   0.68225
 Alpha virt. eigenvalues --    0.78765   0.79244   0.80194   0.80706   0.82118

 Mulliken charges:
               1
     1  O   -0.509839
     2  H    0.253963
     3  H    0.255876
     4  O   -0.509581
     5  H    0.252791
     6  H    0.256790
 Sum of Mulliken charges =  -0.00000

 Dipole moment (field-independent basis, Debye):
    X=             -1.9506    Y=             -1.7286    Z=              0.0000  Tot=              2.6063
 Quadrupole moment (field-independent basis, Debye-Ang):
   XX=             -9.8286   YY=              5.2664   ZZ=            -14.7124
   XY=             -6.6270   XZ=              0.0000   YZ=              0.0000

 01071\MP4DQ=-152.642556\MP4SDQ=-152.6456094\CCSD=-152.6450232\CCSD(T)=
 Normal termination of Gaussian 16 at Sat Aug 27 10:08:30 2022.
