 Gaussian 16, Revision A.03,
 Gaussian 16:  ES64L-G16RevA.03 25-Dec-2016

 ------------------
 #p CCSD(T)/cc-pVTZ
 ------------------

 ------------
 H2O_H2O_2075
 ------------
 Symbolic Z-matrix:
 Charge =  0 Multiplicity = 1

                         Standard orientation:
 ---------------------------------------------------------------------
 Center     Atomic      Atomic             Coordinates (Angstroms)
 Number     Number       Type             X           Y           Z
 ---------------------------------------------------------------------
      1          8           0        0.000000   -0.000000    1.907160
      2          1           0        0.000000    0.799571    2.478292
      3          1           0       -0.000000   -0.799571    2.478292
      4          8           0        0.000000   -0.000000   -1.907160
      5          1           0       -0.000000   -0.799571   -2.478292
      6          1           0        0.000000    0.799571   -2.478292
 ---------------------------------------------------------------------

 SCF Done:  E(RHF) =  -152.104762617     A.U. after   10 cycles
 E2 =    -0.5264056703D+00 EUMP2 =    -0.15263116828731D+03
 CCSD(T)
 CCSD(T)= -0.15265841902D+03

 The electronic state is 1-AG.
 Alpha  occ. eigenvalues --  -20.54467 -20.54467  -1.31760  -1.31735  -0.69179
 Alpha  occ. eigenvalues --   -0.69156  -0.55316  -0.54765  -0.48880  -0.48805
 Alpha virt. eigenvalues --    0.14214   0.15785   0.20633   0.21212   0.54101
 Alpha virt. eigenvalues --    0.56699   0.57930   0.58249   0.61339   0.75287
 Alpha virt. eigenvalues --    0.79413   0.80500   0.80594   0.80864   0.82508

 Mulliken charges:
               1
     1  O   -0.491149
     2  H    0.245574
     3  H    0.245574
     4  O   -0.491149
     5  H    0.245574
     6  H    0.245574
 Sum of Mulliken charges =   0.00000

 Dipole moment (field-independent basis, Debye):
    X=             -0.0000    Y=              0.0000    Z=              0.0000  Tot=              0.0000
 Quadrupole moment (field-independent basis, Debye-Ang):
   XX=            -14.7091   YY=             -7.8431   ZZ=              3.0858
   XY=              0.0000   XZ=              0.0000   YZ=             -0.0000

 2\MP4DQ=-152.6402256\MP4SDQ=-152.6433166\CCSD=-152.6427144\CCSD(T)=-15
 Normal termination of Gaussian 16 at Sat Aug 27 08:26:39 2022.
