 Gaussian 16, Revision A.03,
 Gaussian 16:  ES64L-G16RevA.03 25-Dec-2016

 ------------------
 #p CCSD(T)/cc-pVTZ
 ------------------

 ------------
 H2O_H2O_3491
 ------------
 Symbolic Z-matrix:
 Charge =  0 Multiplicity = 1

                         Standard orientation:
 ---------------------------------------------------------------------
 Center     Atomic      Atomic             Coordinates (Angstroms)
 Number     Number       Type             X           Y           Z
 ---------------------------------------------------------------------
      1          8           0        0.049507   -2.620798    0.000000
      2          1           0       -0.750981   -3.190645    0.000000
      3          1           0        0.848159   -3.193215    0.000000
      4          8           0        0.049507    2.677752    0.000000
      5          1           0       -0.043750    3.655919    0.000000
      6          1           0       -0.845546    2.272308    0.000000
 ---------------------------------------------------------------------

 SCF Done:  E(RHF) =  -152.107125620     A.U. after   10 cycles
 E2 =    -0.5259330966D+00 EUMP2 =    -0.15263305871696D+03
 CCSD(T)
 CCSD(T)= -0.15266028263D+03

 The electronic state is 1-A'.
 Alpha  occ. eigenvalues --  -20.55435 -20.54955  -1.32732  -1.32250  -0.70139
 Alpha  occ. eigenvalues --   -0.69646  -0.56166  -0.55683  -0.49841  -0.49361
 Alpha virt. eigenvalues --    0.14052   0.14823   0.20245   0.20838   0.54392
 Alpha virt. eigenvalues --    0.54924   0.57317   0.57782   0.67588   0.69079
 Alpha virt. eigenvalues --    0.79039   0.79509   0.80448   0.80889   0.82613

 Mulliken charges:
               1
     1  O   -0.507214
     2  H    0.251784
     3  H    0.255463
     4  O   -0.506790
     5  H    0.250284
     6  H    0.256473
 Sum of Mulliken charges =  -0.00000

 Dipole moment (field-independent basis, Debye):
    X=             -1.6955    Y=             -1.0033    Z=              0.0000  Tot=              1.9701
 Quadrupole moment (field-independent basis, Debye-Ang):
   XX=             -9.3458   YY=              5.3325   ZZ=            -14.7117
   XY=             -3.8522   XZ=              0.0000   YZ=              0.0000

 Normal termination of Gaussian 16 at Fri Aug 26 22:46:38 2022.
