 Gaussian 16, Revision A.03,
 Gaussian 16:  ES64L-G16RevA.03 25-Dec-2016

 ------------------
 #p CCSD(T)/cc-pVTZ
 ------------------

 -----------
 H2O_H2O_627
 -----------
 Symbolic Z-matrix:
 Charge =  0 Multiplicity = 1

                         Standard orientation:
 ---------------------------------------------------------------------
 Center     Atomic      Atomic             Coordinates (Angstroms)
 Number     Number       Type             X           Y           Z
 ---------------------------------------------------------------------
      1          8           0        0.007455   -1.135470    0.000000
      2          1           0       -0.792438   -1.706151    0.000000
      3          1           0        0.806703   -1.707054    0.000000
      4          8           0        0.007455    1.136439    0.000000
      5          1           0        0.726017    1.806644    0.000000
      6          1           0       -0.859563    1.598810    0.000000
 ---------------------------------------------------------------------

 SCF Done:  E(RHF) =  -152.080675985     A.U. after   11 cycles
 E2 =    -0.5310562319D+00 EUMP2 =    -0.15261173221710D+03
 CCSD(T)
 CCSD(T)= -0.15263893114D+03

 The electronic state is 1-A'.
 Alpha  occ. eigenvalues --  -20.52563 -20.52534  -1.31149  -1.29498  -0.68242
 Alpha  occ. eigenvalues --   -0.67189  -0.58382  -0.48467  -0.47720  -0.46118
 Alpha virt. eigenvalues --    0.14572   0.17903   0.20566   0.22562   0.50268
 Alpha virt. eigenvalues --    0.59004   0.59059   0.64621   0.72032   0.76926
 Alpha virt. eigenvalues --    0.77852   0.81024   0.84299   0.86643   0.86865

 Mulliken charges:
               1
     1  O   -0.450555
     2  H    0.223206
     3  H    0.227052
     4  O   -0.448631
     5  H    0.220440
     6  H    0.228488
 Sum of Mulliken charges =  -0.00000

 Dipole moment (field-independent basis, Debye):
    X=             -0.2270    Y=             -0.0193    Z=              0.0000  Tot=              0.2278
 Quadrupole moment (field-independent basis, Debye-Ang):
   XX=             -8.0779   YY=             -4.0821   ZZ=            -14.7378
   XY=             -0.0853   XZ=              0.0000   YZ=              0.0000

 9137\MP4DQ=-152.6199227\MP4SDQ=-152.6232582\CCSD=-152.6225698\CCSD(T)=
 Normal termination of Gaussian 16 at Fri Aug 26 18:25:29 2022.
