 Gaussian 16, Revision A.03,
 Gaussian 16:  ES64L-G16RevA.03 25-Dec-2016

 ------------------
 #p CCSD(T)/cc-pVTZ
 ------------------

 ------------
 H2O_H2O_2985
 ------------
 Symbolic Z-matrix:
 Charge =  0 Multiplicity = 1

                         Standard orientation:
 ---------------------------------------------------------------------
 Center     Atomic      Atomic             Coordinates (Angstroms)
 Number     Number       Type             X           Y           Z
 ---------------------------------------------------------------------
      1          8           0        0.034783   -2.373039    0.000000
      2          1           0       -0.765504   -2.943167    0.000000
      3          1           0        0.833637   -2.945174    0.000000
      4          8           0        0.034783    2.396556    0.000000
      5          1           0        0.322622    3.336054    0.000000
      6          1           0       -0.947284    2.364151    0.000000
 ---------------------------------------------------------------------

 SCF Done:  E(RHF) =  -152.106386952     A.U. after   10 cycles
 E2 =    -0.5260260630D+00 EUMP2 =    -0.15263241301529D+03
 CCSD(T)
 CCSD(T)= -0.15265965062D+03

 The electronic state is 1-A'.
 Alpha  occ. eigenvalues --  -20.55076 -20.54833  -1.32369  -1.32123  -0.69779
 Alpha  occ. eigenvalues --   -0.69525  -0.55767  -0.55520  -0.49473  -0.49229
 Alpha virt. eigenvalues --    0.14196   0.15040   0.20454   0.20888   0.54623
 Alpha virt. eigenvalues --    0.55117   0.57611   0.57865   0.66851   0.70587
 Alpha virt. eigenvalues --    0.79397   0.79649   0.80784   0.81205   0.82688

 Mulliken charges:
               1
     1  O   -0.502822
     2  H    0.249690
     3  H    0.253172
     4  O   -0.502435
     5  H    0.248757
     6  H    0.253639
 Sum of Mulliken charges =  -0.00000

 Dipole moment (field-independent basis, Debye):
    X=             -1.1867    Y=             -0.4167    Z=              0.0000  Tot=              1.2578
 Quadrupole moment (field-independent basis, Debye-Ang):
   XX=             -8.5721   YY=              5.7739   ZZ=            -14.7105
   XY=             -2.0297   XZ=              0.0000   YZ=              0.0000

 Normal termination of Gaussian 16 at Fri Aug 26 18:08:50 2022.
