 Gaussian 16, Revision A.03,
 Gaussian 16:  ES64L-G16RevA.03 25-Dec-2016

 ------------------
 #p CCSD(T)/cc-pVTZ
 ------------------

 ------------
 H2O_H2O_4343
 ------------
 Symbolic Z-matrix:
 Charge =  0 Multiplicity = 1

                         Standard orientation:
 ---------------------------------------------------------------------
 Center     Atomic      Atomic             Coordinates (Angstroms)
 Number     Number       Type             X           Y           Z
 ---------------------------------------------------------------------
      1          8           0        0.052817   -3.065580    0.000000
      2          1           0       -0.747590   -3.635540    0.000000
      3          1           0        0.851551   -3.637883    0.000000
      4          8           0        0.052817    3.135939    0.000000
      5          1           0       -0.167454    4.093534    0.000000
      6          1           0       -0.781584    2.617017    0.000000
 ---------------------------------------------------------------------

 SCF Done:  E(RHF) =  -152.107364100     A.U. after   10 cycles
 E2 =    -0.5258859014D+00 EUMP2 =    -0.15263325000179D+03
 CCSD(T)
 CCSD(T)= -0.15266047084D+03

 The electronic state is 1-A'.
 Alpha  occ. eigenvalues --  -20.55561 -20.55137  -1.32860  -1.32434  -0.70266
 Alpha  occ. eigenvalues --   -0.69833  -0.56305  -0.55877  -0.49971  -0.49547
 Alpha virt. eigenvalues --    0.14096   0.14547   0.20181   0.20639   0.54295
 Alpha virt. eigenvalues --    0.54743   0.57211   0.57636   0.67858   0.68353
 Alpha virt. eigenvalues --    0.78909   0.79327   0.80340   0.80788   0.82279

 Mulliken charges:
               1
     1  O   -0.508637
     2  H    0.253090
     3  H    0.255548
     4  O   -0.508362
     5  H    0.251936
     6  H    0.256425
 Sum of Mulliken charges =   0.00000

 Dipole moment (field-independent basis, Debye):
    X=             -1.8149    Y=             -1.2302    Z=              0.0000  Tot=              2.1925
 Quadrupole moment (field-independent basis, Debye-Ang):
   XX=             -9.5594   YY=              6.7920   ZZ=            -14.7120
   XY=             -5.1443   XZ=              0.0000   YZ=              0.0000

 Normal termination of Gaussian 16 at Sat Aug 27 06:46:53 2022.
