 Gaussian 16, Revision A.03,
 Gaussian 16:  ES64L-G16RevA.03 25-Dec-2016

 ------------------
 #p CCSD(T)/cc-pVTZ
 ------------------

 -----------
 H2O_H2O_222
 -----------
 Symbolic Z-matrix:
 Charge =  0 Multiplicity = 1

                         Standard orientation:
 ---------------------------------------------------------------------
 Center     Atomic      Atomic             Coordinates (Angstroms)
 Number     Number       Type             X           Y           Z
 ---------------------------------------------------------------------
      1          8           0        0.056891   -0.856352    0.000000
      2          1           0       -0.745742   -1.423172    0.000000
      3          1           0        0.853377   -1.431779    0.000000
      4          8           0        0.056891    0.955058    0.000000
      5          1           0       -0.400316    1.824809    0.000000
      6          1           0       -0.617576    0.240493    0.000000
 ---------------------------------------------------------------------

 SCF Done:  E(RHF) =  -151.981667187     A.U. after   11 cycles
 E2 =    -0.5444316611D+00 EUMP2 =    -0.15252609884790D+03
 CCSD(T)
 CCSD(T)= -0.15255136462D+03

 The electronic state is 1-A'.
 Alpha  occ. eigenvalues --  -20.56457 -20.48113  -1.39770  -1.26192  -0.77493
 Alpha  occ. eigenvalues --   -0.72033  -0.54572  -0.50856  -0.46157  -0.43102
 Alpha virt. eigenvalues --    0.12812   0.18346   0.20128   0.26654   0.49322
 Alpha virt. eigenvalues --    0.53920   0.62836   0.68554   0.73065   0.75592
 Alpha virt. eigenvalues --    0.78625   0.79077   0.84176   0.85319   0.88413

 Mulliken charges:
               1
     1  O   -0.322007
     2  H    0.178831
     3  H    0.223719
     4  O   -0.502078
     5  H    0.155156
     6  H    0.266380
 Sum of Mulliken charges =  -0.00000

 Dipole moment (field-independent basis, Debye):
    X=             -1.5459    Y=             -2.4989    Z=              0.0000  Tot=              2.9385
 Quadrupole moment (field-independent basis, Debye-Ang):
   XX=             -9.8234   YY=             -8.0554   ZZ=            -14.5788
   XY=             -1.8022   XZ=              0.0000   YZ=              0.0000

 Normal termination of Gaussian 16 at Fri Aug 26 14:12:55 2022.
