 Gaussian 16, Revision A.03,
 Gaussian 16:  ES64L-G16RevA.03 25-Dec-2016

 ------------------
 #p CCSD(T)/cc-pVTZ
 ------------------

 ------------
 H2O_H2O_4336
 ------------
 Symbolic Z-matrix:
 Charge =  0 Multiplicity = 1

                         Standard orientation:
 ---------------------------------------------------------------------
 Center     Atomic      Atomic             Coordinates (Angstroms)
 Number     Number       Type             X           Y           Z
 ---------------------------------------------------------------------
      1          8           0        0.037672   -3.088439    0.000000
      2          1           0       -0.762495   -3.658735    0.000000
      3          1           0        0.836646   -3.660406    0.000000
      4          8           0        0.037672    3.116707    0.000000
      5          1           0        0.263247    4.073065    0.000000
      6          1           0       -0.940153    3.019934    0.000000
 ---------------------------------------------------------------------

 SCF Done:  E(RHF) =  -152.107008260     A.U. after   10 cycles
 E2 =    -0.5259161246D+00 EUMP2 =    -0.15263292438426D+03
 CCSD(T)
 CCSD(T)= -0.15266015290D+03

 The electronic state is 1-A'.
 Alpha  occ. eigenvalues --  -20.55328 -20.55158  -1.32625  -1.32454  -0.70032
 Alpha  occ. eigenvalues --   -0.69857  -0.56054  -0.55883  -0.49733  -0.49563
 Alpha virt. eigenvalues --    0.14309   0.14491   0.20368   0.20549   0.54534
 Alpha virt. eigenvalues --    0.54719   0.57418   0.57589   0.68150   0.68357
 Alpha virt. eigenvalues --    0.79146   0.79314   0.80585   0.80770   0.82513

 Mulliken charges:
               1
     1  O   -0.506521
     2  H    0.252363
     3  H    0.254158
     4  O   -0.506376
     5  H    0.251805
     6  H    0.254571
 Sum of Mulliken charges =  -0.00000

 Dipole moment (field-independent basis, Debye):
    X=             -1.2941    Y=             -0.4938    Z=              0.0000  Tot=              1.3851
 Quadrupole moment (field-independent basis, Debye-Ang):
   XX=             -8.6962   YY=             10.5706   ZZ=            -14.7111
   XY=             -3.1715   XZ=              0.0000   YZ=              0.0000

 Normal termination of Gaussian 16 at Sat Aug 27 06:44:30 2022.
