 Gaussian 16, Revision A.03,
 Gaussian 16:  ES64L-G16RevA.03 25-Dec-2016

 ------------------
 #p CCSD(T)/cc-pVTZ
 ------------------

 ------------
 H2O_H2O_3192
 ------------
 Symbolic Z-matrix:
 Charge =  0 Multiplicity = 1

                         Standard orientation:
 ---------------------------------------------------------------------
 Center     Atomic      Atomic             Coordinates (Angstroms)
 Number     Number       Type             X           Y           Z
 ---------------------------------------------------------------------
      1          8           0        0.051280   -2.457679    0.000000
      2          1           0       -0.749302   -3.027394    0.000000
      3          1           0        0.849838   -3.030227    0.000000
      4          8           0        0.051280    2.521203    0.000000
      5          1           0       -0.105594    3.491202    0.000000
      6          1           0       -0.815416    2.058229    0.000000
 ---------------------------------------------------------------------

 SCF Done:  E(RHF) =  -152.107186104     A.U. after   10 cycles
 E2 =    -0.5259531560D+00 EUMP2 =    -0.15263313925951D+03
 CCSD(T)
 CCSD(T)= -0.15266035926D+03

 The electronic state is 1-A'.
 Alpha  occ. eigenvalues --  -20.55473 -20.54857  -1.32768  -1.32150  -0.70176
 Alpha  occ. eigenvalues --   -0.69543  -0.56203  -0.55584  -0.49878  -0.49264
 Alpha virt. eigenvalues --    0.13863   0.15033   0.20192   0.21013   0.54302
 Alpha virt. eigenvalues --    0.54965   0.57291   0.57846   0.67134   0.69845
 Alpha virt. eigenvalues --    0.79004   0.79604   0.80314   0.80902   0.82775

 Mulliken charges:
               1
     1  O   -0.507353
     2  H    0.251477
     3  H    0.256002
     4  O   -0.506939
     5  H    0.249539
     6  H    0.257273
 Sum of Mulliken charges =  -0.00000

 Dipole moment (field-independent basis, Debye):
    X=             -1.7530    Y=             -1.1250    Z=              0.0000  Tot=              2.0829
 Quadrupole moment (field-independent basis, Debye-Ang):
   XX=             -9.4578   YY=              3.8979   ZZ=            -14.7121
   XY=             -3.8184   XZ=              0.0000   YZ=              0.0000

 Normal termination of Gaussian 16 at Fri Aug 26 20:15:13 2022.
