 Gaussian 16, Revision A.03,
 Gaussian 16:  ES64L-G16RevA.03 25-Dec-2016

 ------------------
 #p CCSD(T)/cc-pVTZ
 ------------------

 ------------
 H2O_H2O_3221
 ------------
 Symbolic Z-matrix:
 Charge =  0 Multiplicity = 1

                         Standard orientation:
 ---------------------------------------------------------------------
 Center     Atomic      Atomic             Coordinates (Angstroms)
 Number     Number       Type             X           Y           Z
 ---------------------------------------------------------------------
      1          8           0        0.056104   -2.455660    0.000000
      2          1           0       -0.744566   -3.025249    0.000000
      3          1           0        0.854573   -3.028332    0.000000
      4          8           0        0.056104    2.547386    0.000000
      5          1           0       -0.346337    3.443793    0.000000
      6          1           0       -0.661338    1.875981    0.000000
 ---------------------------------------------------------------------

 SCF Done:  E(RHF) =  -152.107693635     A.U. after   10 cycles
 E2 =    -0.5259214565D+00 EUMP2 =    -0.15263361509174D+03
 CCSD(T)
 CCSD(T)= -0.15266082214D+03

 The electronic state is 1-A'.
 Alpha  occ. eigenvalues --  -20.55722 -20.54830  -1.33018  -1.32128  -0.70424
 Alpha  occ. eigenvalues --   -0.69517  -0.56475  -0.55578  -0.50131  -0.49245
 Alpha virt. eigenvalues --    0.13585   0.15114   0.20029   0.21169   0.54077
 Alpha virt. eigenvalues --    0.54909   0.57087   0.57863   0.66933   0.69756
 Alpha virt. eigenvalues --    0.78756   0.79616   0.79971   0.80512   0.82782

 Mulliken charges:
               1
     1  O   -0.509926
     2  H    0.252744
     3  H    0.257458
     4  O   -0.509632
     5  H    0.250058
     6  H    0.259298
 Sum of Mulliken charges =  -0.00000

 Dipole moment (field-independent basis, Debye):
    X=             -1.9186    Y=             -1.6271    Z=              0.0000  Tot=              2.5157
 Quadrupole moment (field-independent basis, Debye-Ang):
   XX=             -9.7826   YY=              1.7937   ZZ=            -14.7133
   XY=             -4.6973   XZ=              0.0000   YZ=              0.0000

 Normal termination of Gaussian 16 at Fri Aug 26 20:29:07 2022.
