 Gaussian 16, Revision A.03,
 Gaussian 16:  ES64L-G16RevA.03 25-Dec-2016

 ------------------
 #p CCSD(T)/cc-pVTZ
 ------------------

 ------------
 H2O_H2O_1243
 ------------
 Symbolic Z-matrix:
 Charge =  0 Multiplicity = 1

                         Standard orientation:
 ---------------------------------------------------------------------
 Center     Atomic      Atomic             Coordinates (Angstroms)
 Number     Number       Type             X           Y           Z
 ---------------------------------------------------------------------
      1          8           0        0.052876   -1.416979    0.000000
      2          1           0       -0.748478   -1.985607    0.000000
      3          1           0        0.850656   -1.990609    0.000000
      4          8           0        0.052876    1.487162    0.000000
      5          1           0       -0.165803    2.445121    0.000000
      6          1           0       -0.782387    0.969628    0.000000
 ---------------------------------------------------------------------

 SCF Done:  E(RHF) =  -152.105725698     A.U. after   10 cycles
 E2 =    -0.5276578430D+00 EUMP2 =    -0.15263338354058D+03
 CCSD(T)
 CCSD(T)= -0.15266053703D+03

 The electronic state is 1-A'.
 Alpha  occ. eigenvalues --  -20.55559 -20.53384  -1.32909  -1.30649  -0.70327
 Alpha  occ. eigenvalues --   -0.68150  -0.56271  -0.53904  -0.50026  -0.47749
 Alpha virt. eigenvalues --    0.13505   0.17139   0.19899   0.23802   0.53506
 Alpha virt. eigenvalues --    0.56678   0.57221   0.58486   0.68786   0.75388
 Alpha virt. eigenvalues --    0.75990   0.77440   0.80703   0.82358   0.84776

 Mulliken charges:
               1
     1  O   -0.483157
     2  H    0.237671
     3  H    0.253837
     4  O   -0.492895
     5  H    0.229528
     6  H    0.255017
 Sum of Mulliken charges =  -0.00000

 Dipole moment (field-independent basis, Debye):
    X=             -1.7120    Y=             -1.3688    Z=              0.0000  Tot=              2.1919
 Quadrupole moment (field-independent basis, Debye-Ang):
   XX=             -9.5885   YY=             -2.6119   ZZ=            -14.7223
   XY=             -2.2197   XZ=              0.0000   YZ=              0.0000

 Normal termination of Gaussian 16 at Sat Aug 27 03:17:59 2022.
