 Gaussian 16, Revision A.03,
 Gaussian 16:  ES64L-G16RevA.03 25-Dec-2016

 ------------------
 #p CCSD(T)/cc-pVTZ
 ------------------

 ------------
 H2O_H2O_3863
 ------------
 Symbolic Z-matrix:
 Charge =  0 Multiplicity = 1

                         Standard orientation:
 ---------------------------------------------------------------------
 Center     Atomic      Atomic             Coordinates (Angstroms)
 Number     Number       Type             X           Y           Z
 ---------------------------------------------------------------------
      1          8           0        0.042965   -2.830096    0.000000
      2          1           0       -0.757346   -3.400191    0.000000
      3          1           0        0.841795   -3.402265    0.000000
      4          8           0        0.042965    2.868897    0.000000
      5          1           0        0.142027    3.846492    0.000000
      6          1           0       -0.913919    2.645562    0.000000
 ---------------------------------------------------------------------

 SCF Done:  E(RHF) =  -152.106986426     A.U. after   10 cycles
 E2 =    -0.5259282403D+00 EUMP2 =    -0.15263291466671D+03
 CCSD(T)
 CCSD(T)= -0.15266014300D+03

 The electronic state is 1-A'.
 Alpha  occ. eigenvalues --  -20.55340 -20.55061  -1.32636  -1.32356  -0.70044
 Alpha  occ. eigenvalues --   -0.69757  -0.56064  -0.55784  -0.49745  -0.49466
 Alpha virt. eigenvalues --    0.14254   0.14620   0.20343   0.20662   0.54516
 Alpha virt. eigenvalues --    0.54826   0.57403   0.57684   0.68017   0.68590
 Alpha virt. eigenvalues --    0.79135   0.79409   0.80572   0.80868   0.82524

 Mulliken charges:
               1
     1  O   -0.506412
     2  H    0.251903
     3  H    0.254511
     4  O   -0.506148
     5  H    0.251014
     6  H    0.255131
 Sum of Mulliken charges =  -0.00000

 Dipole moment (field-independent basis, Debye):
    X=             -1.4738    Y=             -0.6803    Z=              0.0000  Tot=              1.6232
 Quadrupole moment (field-independent basis, Debye-Ang):
   XX=             -8.9656   YY=              7.9957   ZZ=            -14.7112
   XY=             -3.3897   XZ=              0.0000   YZ=              0.0000

 Normal termination of Gaussian 16 at Sat Aug 27 03:52:41 2022.
