 Gaussian 16, Revision A.03,
 Gaussian 16:  ES64L-G16RevA.03 25-Dec-2016

 ------------------
 #p CCSD(T)/cc-pVTZ
 ------------------

 ------------
 H2O_H2O_4017
 ------------
 Symbolic Z-matrix:
 Charge =  0 Multiplicity = 1

                         Standard orientation:
 ---------------------------------------------------------------------
 Center     Atomic      Atomic             Coordinates (Angstroms)
 Number     Number       Type             X           Y           Z
 ---------------------------------------------------------------------
      1          8           0        0.051271   -2.896430    0.000000
      2          1           0       -0.749159   -3.466358    0.000000
      3          1           0        0.849981   -3.468766    0.000000
      4          8           0        0.051271    2.959981    0.000000
      5          1           0       -0.105859    3.929938    0.000000
      6          1           0       -0.815301    2.496777    0.000000
 ---------------------------------------------------------------------

 SCF Done:  E(RHF) =  -152.107276314     A.U. after   10 cycles
 E2 =    -0.5259003776D+00 EUMP2 =    -0.15263317669175D+03
 CCSD(T)
 CCSD(T)= -0.15266039894D+03

 The electronic state is 1-A'.
 Alpha  occ. eigenvalues --  -20.55510 -20.55077  -1.32808  -1.32374  -0.70215
 Alpha  occ. eigenvalues --   -0.69772  -0.56249  -0.55813  -0.49919  -0.49486
 Alpha virt. eigenvalues --    0.14112   0.14620   0.20215   0.20695   0.54343
 Alpha virt. eigenvalues --    0.54806   0.57254   0.57687   0.67852   0.68496
 Alpha virt. eigenvalues --    0.78962   0.79387   0.80393   0.80835   0.82368

 Mulliken charges:
               1
     1  O   -0.508128
     2  H    0.252646
     3  H    0.255486
     4  O   -0.507807
     5  H    0.251400
     6  H    0.256402
 Sum of Mulliken charges =  -0.00000

 Dipole moment (field-independent basis, Debye):
    X=             -1.7600    Y=             -1.1137    Z=              0.0000  Tot=              2.0827
 Quadrupole moment (field-independent basis, Debye-Ang):
   XX=             -9.4576   YY=              6.4418   ZZ=            -14.7118
   XY=             -4.5821   XZ=              0.0000   YZ=              0.0000

 Normal termination of Gaussian 16 at Sat Aug 27 04:54:23 2022.
