 Gaussian 16, Revision A.03,
 Gaussian 16:  ES64L-G16RevA.03 25-Dec-2016

 ------------------
 #p CCSD(T)/cc-pVTZ
 ------------------

 ------------
 H2O_H2O_1876
 ------------
 Symbolic Z-matrix:
 Charge =  0 Multiplicity = 1

                         Standard orientation:
 ---------------------------------------------------------------------
 Center     Atomic      Atomic             Coordinates (Angstroms)
 Number     Number       Type             X           Y           Z
 ---------------------------------------------------------------------
      1          8           0        0.003735   -1.800660    0.000000
      2          1           0       -0.795938   -2.371649    0.000000
      3          1           0        0.803204   -2.371935    0.000000
      4          8           0        0.003735    1.800903    0.000000
      5          1           0        0.764352    2.422971    0.000000
      6          1           0       -0.831385    2.318667    0.000000
 ---------------------------------------------------------------------

 SCF Done:  E(RHF) =  -152.104269426     A.U. after   10 cycles
 E2 =    -0.5265723105D+00 EUMP2 =    -0.15263084173649D+03
 CCSD(T)
 CCSD(T)= -0.15265809628D+03

 The electronic state is 1-A'.
 Alpha  occ. eigenvalues --  -20.54346 -20.54341  -1.31645  -1.31600  -0.69066
 Alpha  occ. eigenvalues --   -0.69026  -0.55309  -0.54458  -0.48778  -0.48653
 Alpha virt. eigenvalues --    0.14229   0.16003   0.20618   0.21354   0.53613
 Alpha virt. eigenvalues --    0.57338   0.57979   0.58362   0.60949   0.75746
 Alpha virt. eigenvalues --    0.79162   0.79835   0.80437   0.81028   0.83424

 Mulliken charges:
               1
     1  O   -0.487043
     2  H    0.243143
     3  H    0.243908
     4  O   -0.487041
     5  H    0.243081
     6  H    0.243952
 Sum of Mulliken charges =  -0.00000

 Dipole moment (field-independent basis, Debye):
    X=             -0.1251    Y=             -0.0045    Z=              0.0000  Tot=              0.1252
 Quadrupole moment (field-independent basis, Debye-Ang):
   XX=             -7.8614   YY=              2.1861   ZZ=            -14.7089
   XY=             -0.1179   XZ=              0.0000   YZ=              0.0000

 Normal termination of Gaussian 16 at Sat Aug 27 07:18:35 2022.
