 Gaussian 16, Revision A.03,
 Gaussian 16:  ES64L-G16RevA.03 25-Dec-2016

 ------------------
 #p CCSD(T)/cc-pVTZ
 ------------------

 ------------
 H2O_H2O_2842
 ------------
 Symbolic Z-matrix:
 Charge =  0 Multiplicity = 1

                         Standard orientation:
 ---------------------------------------------------------------------
 Center     Atomic      Atomic             Coordinates (Angstroms)
 Number     Number       Type             X           Y           Z
 ---------------------------------------------------------------------
      1          8           0        0.051284   -2.271545    0.000000
      2          1           0       -0.749379   -2.841145    0.000000
      3          1           0        0.849760   -2.844206    0.000000
      4          8           0        0.051284    2.335054    0.000000
      5          1           0       -0.105450    3.305075    0.000000
      6          1           0       -0.815478    1.872203    0.000000
 ---------------------------------------------------------------------

 SCF Done:  E(RHF) =  -152.107152762     A.U. after   10 cycles
 E2 =    -0.5260070179D+00 EUMP2 =    -0.15263315978007D+03
 CCSD(T)
 CCSD(T)= -0.15266037506D+03

 The electronic state is 1-A'.
 Alpha  occ. eigenvalues --  -20.55460 -20.54725  -1.32753  -1.32016  -0.70161
 Alpha  occ. eigenvalues --   -0.69405  -0.56182  -0.55446  -0.49862  -0.49130
 Alpha virt. eigenvalues --    0.13665   0.15313   0.20166   0.21263   0.54181
 Alpha virt. eigenvalues --    0.54938   0.57315   0.57949   0.66500   0.71389
 Alpha virt. eigenvalues --    0.79017   0.79739   0.80145   0.81263   0.82824

 Mulliken charges:
               1
     1  O   -0.506395
     2  H    0.250598
     3  H    0.256174
     4  O   -0.506400
     5  H    0.248335
     6  H    0.257689
 Sum of Mulliken charges =   0.00000

 Dipole moment (field-independent basis, Debye):
    X=             -1.7476    Y=             -1.1340    Z=              0.0000  Tot=              2.0833
 Quadrupole moment (field-independent basis, Debye-Ang):
   XX=             -9.4586   YY=              2.8145   ZZ=            -14.7125
   XY=             -3.4963   XZ=              0.0000   YZ=              0.0000

 Normal termination of Gaussian 16 at Fri Aug 26 16:41:18 2022.
