 Gaussian 16, Revision A.03,
 Gaussian 16:  ES64L-G16RevA.03 25-Dec-2016

 ------------------
 #p CCSD(T)/cc-pVTZ
 ------------------

 -----------
 H2O_H2O_548
 -----------
 Symbolic Z-matrix:
 Charge =  0 Multiplicity = 1

                         Standard orientation:
 ---------------------------------------------------------------------
 Center     Atomic      Atomic             Coordinates (Angstroms)
 Number     Number       Type             X           Y           Z
 ---------------------------------------------------------------------
      1          8           0        0.057233   -1.025111    0.000000
      2          1           0       -0.744928   -1.592599    0.000000
      3          1           0        0.854197   -1.599875    0.000000
      4          8           0        0.057233    1.131347    0.000000
      5          1           0       -0.456576    1.968907    0.000000
      6          1           0       -0.568425    0.373680    0.000000
 ---------------------------------------------------------------------

 SCF Done:  E(RHF) =  -152.073395394     A.U. after   11 cycles
 E2 =    -0.5348654268D+00 EUMP2 =    -0.15260826082079D+03
 CCSD(T)
 CCSD(T)= -0.15263467134D+03

 The electronic state is 1-A'.
 Alpha  occ. eigenvalues --  -20.57001 -20.50013  -1.36273  -1.27887  -0.73664
 Alpha  occ. eigenvalues --   -0.70114  -0.53372  -0.52763  -0.51689  -0.44852
 Alpha virt. eigenvalues --    0.12817   0.18737   0.19304   0.27257   0.49522
 Alpha virt. eigenvalues --    0.55018   0.62064   0.65743   0.71882   0.74050
 Alpha virt. eigenvalues --    0.77182   0.81232   0.83609   0.84835   0.87261

 Mulliken charges:
               1
     1  O   -0.404632
     2  H    0.215085
     3  H    0.244066
     4  O   -0.518182
     5  H    0.199197
     6  H    0.264467
 Sum of Mulliken charges =  -0.00000

 Dipole moment (field-independent basis, Debye):
    X=             -1.7044    Y=             -2.4802    Z=              0.0000  Tot=              3.0094
 Quadrupole moment (field-independent basis, Debye-Ang):
   XX=             -9.8366   YY=             -6.5007   ZZ=            -14.6689
   XY=             -2.3352   XZ=              0.0000   YZ=              0.0000

 Normal termination of Gaussian 16 at Fri Aug 26 17:32:30 2022.
