 Gaussian 16, Revision A.03,
 Gaussian 16:  ES64L-G16RevA.03 25-Dec-2016

 ------------------
 #p CCSD(T)/cc-pVTZ
 ------------------

 ------------
 H2O_H2O_2889
 ------------
 Symbolic Z-matrix:
 Charge =  0 Multiplicity = 1

                         Standard orientation:
 ---------------------------------------------------------------------
 Center     Atomic      Atomic             Coordinates (Angstroms)
 Number     Number       Type             X           Y           Z
 ---------------------------------------------------------------------
      1          8           0        0.045348   -2.308439    0.000000
      2          1           0       -0.755177   -2.878232    0.000000
      3          1           0        0.843962   -2.880909    0.000000
      4          8           0        0.045348    2.352977    0.000000
      5          1           0        0.080631    3.334946    0.000000
      6          1           0       -0.894988    2.067891    0.000000
 ---------------------------------------------------------------------

 SCF Done:  E(RHF) =  -152.106746854     A.U. after   10 cycles
 E2 =    -0.5260181729D+00 EUMP2 =    -0.15263276502725D+03
 CCSD(T)
 CCSD(T)= -0.15265999216D+03

 The electronic state is 1-A'.
 Alpha  occ. eigenvalues --  -20.55266 -20.54772  -1.32559  -1.32062  -0.69968
 Alpha  occ. eigenvalues --   -0.69457  -0.55971  -0.55476  -0.49665  -0.49172
 Alpha virt. eigenvalues --    0.13918   0.15195   0.20299   0.21072   0.54368
 Alpha virt. eigenvalues --    0.55054   0.57465   0.57907   0.66581   0.71111
 Alpha virt. eigenvalues --    0.79208   0.79702   0.80478   0.81344   0.82985

 Mulliken charges:
               1
     1  O   -0.504637
     2  H    0.249984
     3  H    0.254814
     4  O   -0.504254
     5  H    0.248338
     6  H    0.255755
 Sum of Mulliken charges =  -0.00000

 Dipole moment (field-independent basis, Debye):
    X=             -1.5460    Y=             -0.7925    Z=              0.0000  Tot=              1.7373
 Quadrupole moment (field-independent basis, Debye-Ang):
   XX=             -9.1007   YY=              4.1780   ZZ=            -14.7114
   XY=             -2.8632   XZ=              0.0000   YZ=              0.0000

 Normal termination of Gaussian 16 at Fri Aug 26 17:10:42 2022.
