 Gaussian 16, Revision A.03,
 Gaussian 16:  ES64L-G16RevA.03 25-Dec-2016

 ------------------
 #p CCSD(T)/cc-pVTZ
 ------------------

 -----------
 H2O_H2O_263
 -----------
 Symbolic Z-matrix:
 Charge =  0 Multiplicity = 1

                         Standard orientation:
 ---------------------------------------------------------------------
 Center     Atomic      Atomic             Coordinates (Angstroms)
 Number     Number       Type             X           Y           Z
 ---------------------------------------------------------------------
      1          8           0        0.043017   -0.915604    0.000000
      2          1           0       -0.758806   -1.483570    0.000000
      3          1           0        0.840323   -1.489893    0.000000
      4          8           0        0.043017    0.954176    0.000000
      5          1           0        0.144676    1.931505    0.000000
      6          1           0       -0.914458    0.733384    0.000000
 ---------------------------------------------------------------------

 SCF Done:  E(RHF) =  -152.028990501     A.U. after   11 cycles
 E2 =    -0.5388176474D+00 EUMP2 =    -0.15256780814815D+03
 CCSD(T)
 CCSD(T)= -0.15259422475D+03

 The electronic state is 1-A'.
 Alpha  occ. eigenvalues --  -20.52959 -20.51537  -1.34221  -1.27948  -0.71186
 Alpha  occ. eigenvalues --   -0.68271  -0.58620  -0.50893  -0.44606  -0.43742
 Alpha virt. eigenvalues --    0.14132   0.18511   0.19940   0.23802   0.53258
 Alpha virt. eigenvalues --    0.56951   0.58601   0.64355   0.72306   0.76940
 Alpha virt. eigenvalues --    0.80535   0.82132   0.82997   0.84760   0.88539

 Mulliken charges:
               1
     1  O   -0.408985
     2  H    0.193329
     3  H    0.216813
     4  O   -0.390070
     5  H    0.154626
     6  H    0.234286
 Sum of Mulliken charges =  -0.00000

 Dipole moment (field-independent basis, Debye):
    X=             -1.2067    Y=             -0.8189    Z=              0.0000  Tot=              1.4584
 Quadrupole moment (field-independent basis, Debye-Ang):
   XX=             -9.1840   YY=             -6.7349   ZZ=            -14.6998
   XY=             -0.7096   XZ=              0.0000   YZ=              0.0000

 Normal termination of Gaussian 16 at Fri Aug 26 14:39:48 2022.
