 Gaussian 16, Revision A.03,
 Gaussian 16:  ES64L-G16RevA.03 25-Dec-2016

 ------------------
 #p CCSD(T)/cc-pVTZ
 ------------------

 ------------
 H2O_H2O_1164
 ------------
 Symbolic Z-matrix:
 Charge =  0 Multiplicity = 1

                         Standard orientation:
 ---------------------------------------------------------------------
 Center     Atomic      Atomic             Coordinates (Angstroms)
 Number     Number       Type             X           Y           Z
 ---------------------------------------------------------------------
      1          8           0        0.045372   -1.391073    0.000000
      2          1           0       -0.755772   -1.959996    0.000000
      3          1           0        0.843364   -1.964409    0.000000
      4          8           0        0.045372    1.435512    0.000000
      5          1           0        0.081722    2.417442    0.000000
      6          1           0       -0.895273    1.151448    0.000000
 ---------------------------------------------------------------------

 SCF Done:  E(RHF) =  -152.103032861     A.U. after   10 cycles
 E2 =    -0.5278384813D+00 EUMP2 =    -0.15263087134268D+03
 CCSD(T)
 CCSD(T)= -0.15265808499D+03

 The electronic state is 1-A'.
 Alpha  occ. eigenvalues --  -20.54792 -20.53476  -1.32169  -1.30720  -0.69591
 Alpha  occ. eigenvalues --   -0.68191  -0.56019  -0.53311  -0.49310  -0.47768
 Alpha virt. eigenvalues --    0.13871   0.17027   0.20158   0.23017   0.53697
 Alpha virt. eigenvalues --    0.57742   0.57933   0.58419   0.68629   0.76031
 Alpha virt. eigenvalues --    0.76464   0.76885   0.81263   0.82797   0.85351

 Mulliken charges:
               1
     1  O   -0.478050
     2  H    0.233471
     3  H    0.248485
     4  O   -0.476391
     5  H    0.224951
     6  H    0.247533
 Sum of Mulliken charges =  -0.00000

 Dipole moment (field-independent basis, Debye):
    X=             -1.4607    Y=             -0.8582    Z=              0.0000  Tot=              1.6942
 Quadrupole moment (field-independent basis, Debye-Ang):
   XX=             -9.1601   YY=             -2.0900   ZZ=            -14.7190
   XY=             -1.4803   XZ=              0.0000   YZ=              0.0000

 Normal termination of Gaussian 16 at Sat Aug 27 02:39:22 2022.
