 Gaussian 16, Revision A.03,
 Gaussian 16:  ES64L-G16RevA.03 25-Dec-2016

 ------------------
 #p CCSD(T)/cc-pVTZ
 ------------------

 ------------
 H2O_H2O_3356
 ------------
 Symbolic Z-matrix:
 Charge =  0 Multiplicity = 1

                         Standard orientation:
 ---------------------------------------------------------------------
 Center     Atomic      Atomic             Coordinates (Angstroms)
 Number     Number       Type             X           Y           Z
 ---------------------------------------------------------------------
      1          8           0        0.021859   -2.580546    0.000000
      2          1           0       -0.778127   -3.151095    0.000000
      3          1           0        0.821014   -3.152259    0.000000
      4          8           0        0.021859    2.589209    0.000000
      5          1           0        0.542611    3.422470    0.000000
      6          1           0       -0.935249    2.811580    0.000000
 ---------------------------------------------------------------------

 SCF Done:  E(RHF) =  -152.106394085     A.U. after   10 cycles
 E2 =    -0.5259946883D+00 EUMP2 =    -0.15263238877374D+03
 CCSD(T)
 CCSD(T)= -0.15265962885D+03

 The electronic state is 1-A'.
 Alpha  occ. eigenvalues --  -20.55035 -20.54960  -1.32329  -1.32253  -0.69738
 Alpha  occ. eigenvalues --   -0.69660  -0.55728  -0.55651  -0.49433  -0.49357
 Alpha virt. eigenvalues --    0.14414   0.14771   0.20541   0.20698   0.54784
 Alpha virt. eigenvalues --    0.54961   0.57655   0.57751   0.67812   0.69360
 Alpha virt. eigenvalues --    0.79443   0.79520   0.80878   0.80998   0.82757

 Mulliken charges:
               1
     1  O   -0.502911
     2  H    0.250584
     3  H    0.252329
     4  O   -0.502780
     5  H    0.250208
     6  H    0.252570
 Sum of Mulliken charges =  -0.00000

 Dipole moment (field-independent basis, Debye):
    X=             -0.7477    Y=             -0.1525    Z=              0.0000  Tot=              0.7631
 Quadrupole moment (field-independent basis, Debye-Ang):
   XX=             -8.1111   YY=              8.1283   ZZ=            -14.7102
   XY=             -1.3210   XZ=              0.0000   YZ=              0.0000

 Normal termination of Gaussian 16 at Fri Aug 26 21:39:07 2022.
