 Gaussian 16, Revision A.03,
 Gaussian 16:  ES64L-G16RevA.03 25-Dec-2016

 ------------------
 #p CCSD(T)/cc-pVTZ
 ------------------

 ------------
 H2O_H2O_2656
 ------------
 Symbolic Z-matrix:
 Charge =  0 Multiplicity = 1

                         Standard orientation:
 ---------------------------------------------------------------------
 Center     Atomic      Atomic             Coordinates (Angstroms)
 Number     Number       Type             X           Y           Z
 ---------------------------------------------------------------------
      1          8           0        0.021860   -2.208263    0.000000
      2          1           0       -0.778196   -2.778715    0.000000
      3          1           0        0.820945   -2.780075    0.000000
      4          8           0        0.021860    2.216921    0.000000
      5          1           0        0.542714    3.050118    0.000000
      6          1           0       -0.935221    2.439410    0.000000
 ---------------------------------------------------------------------

 SCF Done:  E(RHF) =  -152.105823843     A.U. after   10 cycles
 E2 =    -0.5261165598D+00 EUMP2 =    -0.15263194040309D+03
 CCSD(T)
 CCSD(T)= -0.15265918597D+03

 The electronic state is 1-A'.
 Alpha  occ. eigenvalues --  -20.54832 -20.54728  -1.32121  -1.32016  -0.69534
 Alpha  occ. eigenvalues --   -0.69424  -0.55516  -0.55352  -0.49222  -0.49117
 Alpha virt. eigenvalues --    0.14237   0.15257   0.20569   0.20953   0.54625
 Alpha virt. eigenvalues --    0.55438   0.57779   0.57966   0.65270   0.72348
 Alpha virt. eigenvalues --    0.79570   0.79834   0.81066   0.81188   0.82283

 Mulliken charges:
               1
     1  O   -0.499317
     2  H    0.248342
     3  H    0.251010
     4  O   -0.499073
     5  H    0.247826
     6  H    0.251212
 Sum of Mulliken charges =  -0.00000

 Dipole moment (field-independent basis, Debye):
    X=             -0.7432    Y=             -0.1544    Z=              0.0000  Tot=              0.7591
 Quadrupole moment (field-independent basis, Debye-Ang):
   XX=             -8.1214   YY=              5.2210   ZZ=            -14.7099
   XY=             -1.0471   XZ=              0.0000   YZ=              0.0000

 Normal termination of Gaussian 16 at Fri Aug 26 14:47:04 2022.
