 Gaussian 16, Revision A.03,
 Gaussian 16:  ES64L-G16RevA.03 25-Dec-2016

 ------------------
 #p CCSD(T)/cc-pVTZ
 ------------------

 ------------
 H2O_H2O_3997
 ------------
 Symbolic Z-matrix:
 Charge =  0 Multiplicity = 1

                         Standard orientation:
 ---------------------------------------------------------------------
 Center     Atomic      Atomic             Coordinates (Angstroms)
 Number     Number       Type             X           Y           Z
 ---------------------------------------------------------------------
      1          8           0        0.056708   -2.863814    0.000000
      2          1           0       -0.743818   -3.433608    0.000000
      3          1           0        0.855322   -3.436283    0.000000
      4          8           0        0.056708    2.962942    0.000000
      5          1           0       -0.403722    3.830991    0.000000
      6          1           0       -0.615104    2.245882    0.000000
 ---------------------------------------------------------------------

 SCF Done:  E(RHF) =  -152.107645724     A.U. after   10 cycles
 E2 =    -0.5258703013D+00 EUMP2 =    -0.15263351602503D+03
 CCSD(T)
 CCSD(T)= -0.15266073011D+03

 The electronic state is 1-A'.
 Alpha  occ. eigenvalues --  -20.55728 -20.55046  -1.33028  -1.32346  -0.70434
 Alpha  occ. eigenvalues --   -0.69742  -0.56486  -0.55797  -0.50141  -0.49461
 Alpha virt. eigenvalues --    0.13888   0.14699   0.20047   0.20805   0.54119
 Alpha virt. eigenvalues --    0.54821   0.57063   0.57732   0.67524   0.68552
 Alpha virt. eigenvalues --    0.78741   0.79407   0.80162   0.80748   0.82316

 Mulliken charges:
               1
     1  O   -0.510301
     2  H    0.253644
     3  H    0.256675
     4  O   -0.509823
     5  H    0.251748
     6  H    0.258057
 Sum of Mulliken charges =  -0.00000

 Dipole moment (field-independent basis, Debye):
    X=             -1.9468    Y=             -1.7389    Z=              0.0000  Tot=              2.6103
 Quadrupole moment (field-independent basis, Debye-Ang):
   XX=             -9.8276   YY=              3.0459   ZZ=            -14.7127
   XY=             -5.6738   XZ=              0.0000   YZ=              0.0000

 Normal termination of Gaussian 16 at Sat Aug 27 04:48:03 2022.
