 Gaussian 16, Revision A.03,
 Gaussian 16:  ES64L-G16RevA.03 25-Dec-2016

 ------------------
 #p CCSD(T)/cc-pVTZ
 ------------------

 ------------
 H2O_H2O_3773
 ------------
 Symbolic Z-matrix:
 Charge =  0 Multiplicity = 1

                         Standard orientation:
 ---------------------------------------------------------------------
 Center     Atomic      Atomic             Coordinates (Angstroms)
 Number     Number       Type             X           Y           Z
 ---------------------------------------------------------------------
      1          8           0        0.057085   -2.740117    0.000000
      2          1           0       -0.743488   -3.309844    0.000000
      3          1           0        0.855651   -3.312653    0.000000
      4          8           0        0.057085    2.846672    0.000000
      5          1           0       -0.459063    3.682793    0.000000
      6          1           0       -0.566454    2.087260    0.000000
 ---------------------------------------------------------------------

 SCF Done:  E(RHF) =  -152.107769297     A.U. after   10 cycles
 E2 =    -0.5258699285D+00 EUMP2 =    -0.15263363922574D+03
 CCSD(T)
 CCSD(T)= -0.15266084960D+03

 The electronic state is 1-A'.
 Alpha  occ. eigenvalues --  -20.55788 -20.54985  -1.33088  -1.32285  -0.70493
 Alpha  occ. eigenvalues --   -0.69679  -0.56552  -0.55740  -0.50202  -0.49402
 Alpha virt. eigenvalues --    0.13762   0.14814   0.20000   0.20915   0.54053
 Alpha virt. eigenvalues --    0.54861   0.57014   0.57777   0.67305   0.68770
 Alpha virt. eigenvalues --    0.78681   0.79463   0.80087   0.80587   0.82553

 Mulliken charges:
               1
     1  O   -0.510965
     2  H    0.253815
     3  H    0.257207
     4  O   -0.510388
     5  H    0.251505
     6  H    0.258827
 Sum of Mulliken charges =  -0.00000

 Dipole moment (field-independent basis, Debye):
    X=             -1.9581    Y=             -1.8741    Z=              0.0000  Tot=              2.7105
 Quadrupole moment (field-independent basis, Debye-Ang):
   XX=             -9.8541   YY=              1.7923   ZZ=            -14.7131
   XY=             -5.6110   XZ=              0.0000   YZ=              0.0000

 Normal termination of Gaussian 16 at Sat Aug 27 03:11:52 2022.
