 Gaussian 16, Revision A.03,
 Gaussian 16:  ES64L-G16RevA.03 25-Dec-2016

 ------------------
 #p CCSD(T)/cc-pVTZ
 ------------------

 -----------
 H2O_H2O_830
 -----------
 Symbolic Z-matrix:
 Charge =  0 Multiplicity = 1

                         Standard orientation:
 ---------------------------------------------------------------------
 Center     Atomic      Atomic             Coordinates (Angstroms)
 Number     Number       Type             X           Y           Z
 ---------------------------------------------------------------------
      1          8           0        0.018362   -1.239096    0.000000
      2          1           0       -0.781935   -1.809211    0.000000
      3          1           0        0.817206   -1.811245    0.000000
      4          8           0        0.018362    1.245112    0.000000
      5          1           0        0.592931    2.042217    0.000000
      6          1           0       -0.921998    1.530116    0.000000
 ---------------------------------------------------------------------

 SCF Done:  E(RHF) =  -152.092341769     A.U. after   11 cycles
 E2 =    -0.5293057794D+00 EUMP2 =    -0.15262164754883D+03
 CCSD(T)
 CCSD(T)= -0.15264893157D+03

 The electronic state is 1-A'.
 Alpha  occ. eigenvalues --  -20.53210 -20.53032  -1.31114  -1.30143  -0.68400
 Alpha  occ. eigenvalues --   -0.67730  -0.57022  -0.50121  -0.48408  -0.46906
 Alpha virt. eigenvalues --    0.14452   0.17465   0.20537   0.22456   0.51000
 Alpha virt. eigenvalues --    0.58736   0.58875   0.62784   0.72039   0.76593
 Alpha virt. eigenvalues --    0.76869   0.79694   0.83936   0.85382   0.86404

 Mulliken charges:
               1
     1  O   -0.461944
     2  H    0.226199
     3  H    0.234746
     4  O   -0.454401
     5  H    0.221487
     6  H    0.233913
 Sum of Mulliken charges =  -0.00000

 Dipole moment (field-independent basis, Debye):
    X=             -0.5742    Y=             -0.1166    Z=              0.0000  Tot=              0.5859
 Quadrupole moment (field-independent basis, Debye-Ang):
   XX=             -8.1866   YY=             -2.9659   ZZ=            -14.7252
   XY=             -0.2872   XZ=              0.0000   YZ=              0.0000

 Normal termination of Gaussian 16 at Fri Aug 26 20:23:43 2022.
