 Gaussian 16, Revision A.03,
 Gaussian 16:  ES64L-G16RevA.03 25-Dec-2016

 ------------------
 #p CCSD(T)/cc-pVTZ
 ------------------

 ------------
 H2O_H2O_1145
 ------------
 Symbolic Z-matrix:
 Charge =  0 Multiplicity = 1

                         Standard orientation:
 ---------------------------------------------------------------------
 Center     Atomic      Atomic             Coordinates (Angstroms)
 Number     Number       Type             X           Y           Z
 ---------------------------------------------------------------------
      1          8           0        0.055311   -1.356135    0.000000
      2          1           0       -0.746196   -1.924549    0.000000
      3          1           0        0.852937   -1.929980    0.000000
      4          8           0        0.055311    1.440423    0.000000
      5          1           0       -0.286289    2.361734    0.000000
      6          1           0       -0.705421    0.818496    0.000000
 ---------------------------------------------------------------------

 SCF Done:  E(RHF) =  -152.105995369     A.U. after   10 cycles
 E2 =    -0.5281097217D+00 EUMP2 =    -0.15263410509030D+03
 CCSD(T)
 CCSD(T)= -0.15266120834D+03

 The electronic state is 1-A'.
 Alpha  occ. eigenvalues --  -20.55984 -20.53044  -1.33397  -1.30343  -0.70801
 Alpha  occ. eigenvalues --   -0.68027  -0.56522  -0.53753  -0.50502  -0.47445
 Alpha virt. eigenvalues --    0.13307   0.17440   0.19737   0.24640   0.52545
 Alpha virt. eigenvalues --    0.56798   0.57407   0.59142   0.70024   0.75003
 Alpha virt. eigenvalues --    0.75175   0.79192   0.81956   0.82452   0.84411

 Mulliken charges:
               1
     1  O   -0.482213
     2  H    0.238728
     3  H    0.255871
     4  O   -0.500005
     5  H    0.228460
     6  H    0.259160
 Sum of Mulliken charges =  -0.00000

 Dipole moment (field-independent basis, Debye):
    X=             -1.7784    Y=             -1.6778    Z=              0.0000  Tot=              2.4449
 Quadrupole moment (field-independent basis, Debye-Ang):
   XX=             -9.7424   YY=             -3.4789   ZZ=            -14.7253
   XY=             -2.4721   XZ=              0.0000   YZ=              0.0000

 Normal termination of Gaussian 16 at Sat Aug 27 02:28:30 2022.
