 Gaussian 16, Revision A.03,
 Gaussian 16:  ES64L-G16RevA.03 25-Dec-2016

 ------------------
 #p CCSD(T)/cc-pVTZ
 ------------------

 -----------
 H2O_H2O_363
 -----------
 Symbolic Z-matrix:
 Charge =  0 Multiplicity = 1

                         Standard orientation:
 ---------------------------------------------------------------------
 Center     Atomic      Atomic             Coordinates (Angstroms)
 Number     Number       Type             X           Y           Z
 ---------------------------------------------------------------------
      1          8           0        0.043012   -0.968779    0.000000
      2          1           0       -0.758690   -1.536916    0.000000
      3          1           0        0.840441   -1.542898    0.000000
      4          8           0        0.043012    1.007369    0.000000
      5          1           0        0.144464    1.984719    0.000000
      6          1           0       -0.914415    0.786372    0.000000
 ---------------------------------------------------------------------

 SCF Done:  E(RHF) =  -152.052589422     A.U. after   11 cycles
 E2 =    -0.5358814423D+00 EUMP2 =    -0.15258847086462D+03
 CCSD(T)
 CCSD(T)= -0.15261520590D+03

 The electronic state is 1-A'.
 Alpha  occ. eigenvalues --  -20.53223 -20.51796  -1.33309  -1.28497  -0.70397
 Alpha  occ. eigenvalues --   -0.67961  -0.58244  -0.50237  -0.45885  -0.45175
 Alpha virt. eigenvalues --    0.14143   0.18260   0.20036   0.23735   0.53219
 Alpha virt. eigenvalues --    0.57259   0.58513   0.63677   0.71871   0.76499
 Alpha virt. eigenvalues --    0.80122   0.82043   0.83207   0.85069   0.88311

 Mulliken charges:
               1
     1  O   -0.429016
     2  H    0.204159
     3  H    0.225214
     4  O   -0.406680
     5  H    0.169440
     6  H    0.236883
 Sum of Mulliken charges =  -0.00000

 Dipole moment (field-independent basis, Debye):
    X=             -1.2358    Y=             -0.7967    Z=              0.0000  Tot=              1.4703
 Quadrupole moment (field-independent basis, Debye-Ang):
   XX=             -9.1592   YY=             -5.9994   ZZ=            -14.7134
   XY=             -0.7674   XZ=              0.0000   YZ=              0.0000

 Normal termination of Gaussian 16 at Fri Aug 26 15:40:40 2022.
