 Gaussian 16, Revision A.03,
 Gaussian 16:  ES64L-G16RevA.03 25-Dec-2016

 ------------------
 #p CCSD(T)/cc-pVTZ
 ------------------

 -----------
 H2O_H2O_118
 -----------
 Symbolic Z-matrix:
 Charge =  0 Multiplicity = 1

                         Standard orientation:
 ---------------------------------------------------------------------
 Center     Atomic      Atomic             Coordinates (Angstroms)
 Number     Number       Type             X           Y           Z
 ---------------------------------------------------------------------
      1          8           0        0.052953   -0.818784    0.000000
      2          1           0       -0.749646   -1.385654    0.000000
      3          1           0        0.849473   -1.394162    0.000000
      4          8           0        0.052953    0.888735    0.000000
      5          1           0       -0.163625    1.847171    0.000000
      6          1           0       -0.783443    0.373033    0.000000
 ---------------------------------------------------------------------

 SCF Done:  E(RHF) =  -151.956422909     A.U. after   12 cycles
 E2 =    -0.5470592472D+00 EUMP2 =    -0.15250348215672D+03
 CCSD(T)
 CCSD(T)= -0.15252879757D+03

 The electronic state is 1-A'.
 Alpha  occ. eigenvalues --  -20.54285 -20.50186  -1.38791  -1.26572  -0.75888
 Alpha  occ. eigenvalues --   -0.71062  -0.54505  -0.53802  -0.43532  -0.41902
 Alpha virt. eigenvalues --    0.13526   0.18948   0.19741   0.24812   0.51047
 Alpha virt. eigenvalues --    0.55565   0.60653   0.66705   0.73144   0.76711
 Alpha virt. eigenvalues --    0.79651   0.80962   0.84031   0.84490   0.88761

 Mulliken charges:
               1
     1  O   -0.330223
     2  H    0.158640
     3  H    0.205323
     4  O   -0.403625
     5  H    0.122136
     6  H    0.247750
 Sum of Mulliken charges =  -0.00000

 Dipole moment (field-independent basis, Debye):
    X=             -1.3983    Y=             -1.6180    Z=              0.0000  Tot=              2.1385
 Quadrupole moment (field-independent basis, Debye-Ang):
   XX=             -9.6942   YY=             -8.3423   ZZ=            -14.6015
   XY=             -1.1173   XZ=              0.0000   YZ=              0.0000

 Normal termination of Gaussian 16 at Fri Aug 26 12:55:57 2022.
