 Gaussian 16, Revision A.03,
 Gaussian 16:  ES64L-G16RevA.03 25-Dec-2016

 ------------------
 #p CCSD(T)/cc-pVTZ
 ------------------

 -----------
 H2O_H2O_270
 -----------
 Symbolic Z-matrix:
 Charge =  0 Multiplicity = 1

                         Standard orientation:
 ---------------------------------------------------------------------
 Center     Atomic      Atomic             Coordinates (Angstroms)
 Number     Number       Type             X           Y           Z
 ---------------------------------------------------------------------
      1          8           0        0.055382   -0.890876    0.000000
      2          1           0       -0.747086   -1.457931    0.000000
      3          1           0        0.852035   -1.466071    0.000000
      4          8           0        0.055382    0.974976    0.000000
      5          1           0       -0.284657    1.896865    0.000000
      6          1           0       -0.706402    0.354339    0.000000
 ---------------------------------------------------------------------

 SCF Done:  E(RHF) =  -152.014382138     A.U. after   11 cycles
 E2 =    -0.5412360421D+00 EUMP2 =    -0.15255561818041D+03
 CCSD(T)
 CCSD(T)= -0.15258155988D+03

 The electronic state is 1-A'.
 Alpha  occ. eigenvalues --  -20.55292 -20.49814  -1.37190  -1.27158  -0.74853
 Alpha  occ. eigenvalues --   -0.70563  -0.52963  -0.52917  -0.47085  -0.44093
 Alpha virt. eigenvalues --    0.13279   0.18889   0.19569   0.25651   0.50455
 Alpha virt. eigenvalues --    0.55161   0.61737   0.66309   0.72764   0.75909
 Alpha virt. eigenvalues --    0.79955   0.80122   0.83998   0.85056   0.88210

 Mulliken charges:
               1
     1  O   -0.361964
     2  H    0.183183
     3  H    0.223402
     4  O   -0.459548
     5  H    0.159915
     6  H    0.255013
 Sum of Mulliken charges =  -0.00000

 Dipole moment (field-independent basis, Debye):
    X=             -1.5390    Y=             -1.9487    Z=              0.0000  Tot=              2.4832
 Quadrupole moment (field-independent basis, Debye-Ang):
   XX=             -9.7744   YY=             -7.3586   ZZ=            -14.6289
   XY=             -1.5724   XZ=              0.0000   YZ=              0.0000

 Normal termination of Gaussian 16 at Fri Aug 26 14:43:58 2022.
