 Gaussian 16, Revision A.03,
 Gaussian 16:  ES64L-G16RevA.03 25-Dec-2016

 ------------------
 #p CCSD(T)/cc-pVTZ
 ------------------

 ------------
 H2O_H2O_3416
 ------------
 Symbolic Z-matrix:
 Charge =  0 Multiplicity = 1

                         Standard orientation:
 ---------------------------------------------------------------------
 Center     Atomic      Atomic             Coordinates (Angstroms)
 Number     Number       Type             X           Y           Z
 ---------------------------------------------------------------------
      1          8           0        0.049508   -2.580912    0.000000
      2          1           0       -0.750994   -3.150739    0.000000
      3          1           0        0.848146   -3.153348    0.000000
      4          8           0        0.049508    2.637864    0.000000
      5          1           0       -0.043725    3.616032    0.000000
      6          1           0       -0.845555    2.232441    0.000000
 ---------------------------------------------------------------------

 SCF Done:  E(RHF) =  -152.107112129     A.U. after   10 cycles
 E2 =    -0.5259387729D+00 EUMP2 =    -0.15263305090150D+03
 CCSD(T)
 CCSD(T)= -0.15266027469D+03

 The electronic state is 1-A'.
 Alpha  occ. eigenvalues --  -20.55430 -20.54934  -1.32726  -1.32228  -0.70134
 Alpha  occ. eigenvalues --   -0.69624  -0.56159  -0.55660  -0.49836  -0.49340
 Alpha virt. eigenvalues --    0.14026   0.14865   0.20243   0.20868   0.54388
 Alpha virt. eigenvalues --    0.54940   0.57322   0.57796   0.67504   0.69228
 Alpha virt. eigenvalues --    0.79045   0.79530   0.80442   0.80899   0.82657

 Mulliken charges:
               1
     1  O   -0.507115
     2  H    0.251658
     3  H    0.255500
     4  O   -0.506678
     5  H    0.250096
     6  H    0.256538
 Sum of Mulliken charges =  -0.00000

 Dipole moment (field-independent basis, Debye):
    X=             -1.6948    Y=             -1.0044    Z=              0.0000  Tot=              1.9701
 Quadrupole moment (field-independent basis, Debye-Ang):
   XX=             -9.3459   YY=              5.0916   ZZ=            -14.7117
   XY=             -3.7853   XZ=              0.0000   YZ=              0.0000

 Normal termination of Gaussian 16 at Fri Aug 26 22:09:02 2022.
