 Gaussian 16, Revision A.03,
 Gaussian 16:  ES64L-G16RevA.03 25-Dec-2016

 ------------------
 #p CCSD(T)/cc-pVTZ
 ------------------

 ------------
 H2O_H2O_2201
 ------------
 Symbolic Z-matrix:
 Charge =  0 Multiplicity = 1

                         Standard orientation:
 ---------------------------------------------------------------------
 Center     Atomic      Atomic             Coordinates (Angstroms)
 Number     Number       Type             X           Y           Z
 ---------------------------------------------------------------------
      1          8           0        0.003735   -1.973507    0.000000
      2          1           0       -0.795929   -2.544509    0.000000
      3          1           0        0.803213   -2.544769    0.000000
      4          8           0        0.003735    1.973750    0.000000
      5          1           0        0.764343    2.595829    0.000000
      6          1           0       -0.831393    2.491501    0.000000
 ---------------------------------------------------------------------

 SCF Done:  E(RHF) =  -152.105012572     A.U. after   10 cycles
 E2 =    -0.5263224149D+00 EUMP2 =    -0.15263133498638D+03
 CCSD(T)
 CCSD(T)= -0.15265858497D+03

 The electronic state is 1-A'.
 Alpha  occ. eigenvalues --  -20.54538 -20.54534  -1.31827  -1.31810  -0.69246
 Alpha  occ. eigenvalues --   -0.69228  -0.55337  -0.54922  -0.48942  -0.48888
 Alpha virt. eigenvalues --    0.14219   0.15657   0.20636   0.21136   0.54315
 Alpha virt. eigenvalues --    0.56344   0.57907   0.58182   0.62008   0.74845
 Alpha virt. eigenvalues --    0.79509   0.80375   0.80767   0.81156   0.82086

 Mulliken charges:
               1
     1  O   -0.493283
     2  H    0.246338
     3  H    0.246949
     4  O   -0.493276
     5  H    0.246273
     6  H    0.246999
 Sum of Mulliken charges =   0.00000

 Dipole moment (field-independent basis, Debye):
    X=             -0.1261    Y=             -0.0044    Z=              0.0000  Tot=              0.1262
 Quadrupole moment (field-independent basis, Debye-Ang):
   XX=             -7.8466   YY=              3.6294   ZZ=            -14.7093
   XY=             -0.1393   XZ=              0.0000   YZ=              0.0000

 Normal termination of Gaussian 16 at Sat Aug 27 09:10:56 2022.
