 Gaussian 16, Revision A.03,
 Gaussian 16:  ES64L-G16RevA.03 25-Dec-2016

 ------------------
 #p CCSD(T)/cc-pVTZ
 ------------------

 ------------
 H2O_H2O_3716
 ------------
 Symbolic Z-matrix:
 Charge =  0 Multiplicity = 1

                         Standard orientation:
 ---------------------------------------------------------------------
 Center     Atomic      Atomic             Coordinates (Angstroms)
 Number     Number       Type             X           Y           Z
 ---------------------------------------------------------------------
      1          8           0        0.049505   -2.740458    0.000000
      2          1           0       -0.750943   -3.310360    0.000000
      3          1           0        0.848197   -3.312819    0.000000
      4          8           0        0.049505    2.797419    0.000000
      5          1           0       -0.043820    3.775579    0.000000
      6          1           0       -0.845519    2.391911    0.000000
 ---------------------------------------------------------------------

 SCF Done:  E(RHF) =  -152.107163818     A.U. after   10 cycles
 E2 =    -0.5259192473D+00 EUMP2 =    -0.15263308306521D+03
 CCSD(T)
 CCSD(T)= -0.15266030706D+03

 The electronic state is 1-A'.
 Alpha  occ. eigenvalues --  -20.55450 -20.55014  -1.32748  -1.32309  -0.70155
 Alpha  occ. eigenvalues --   -0.69707  -0.56184  -0.55744  -0.49857  -0.49421
 Alpha virt. eigenvalues --    0.14111   0.14715   0.20249   0.20759   0.54395
 Alpha virt. eigenvalues --    0.54872   0.57305   0.57737   0.67776   0.68746
 Alpha virt. eigenvalues --    0.79023   0.79451   0.80451   0.80872   0.82494

 Mulliken charges:
               1
     1  O   -0.507465
     2  H    0.252119
     3  H    0.255359
     4  O   -0.507093
     5  H    0.250791
     6  H    0.256289
 Sum of Mulliken charges =  -0.00000

 Dipole moment (field-independent basis, Debye):
    X=             -1.6973    Y=             -1.0008    Z=              0.0000  Tot=              1.9704
 Quadrupole moment (field-independent basis, Debye-Ang):
   XX=             -9.3456   YY=              6.0545   ZZ=            -14.7117
   XY=             -4.0533   XZ=              0.0000   YZ=              0.0000

 Normal termination of Gaussian 16 at Sat Aug 27 02:43:20 2022.
