 Gaussian 16, Revision A.03,
 Gaussian 16:  ES64L-G16RevA.03 25-Dec-2016

 ------------------
 #p CCSD(T)/cc-pVTZ
 ------------------

 ------------
 H2O_H2O_1897
 ------------
 Symbolic Z-matrix:
 Charge =  0 Multiplicity = 1

                         Standard orientation:
 ---------------------------------------------------------------------
 Center     Atomic      Atomic             Coordinates (Angstroms)
 Number     Number       Type             X           Y           Z
 ---------------------------------------------------------------------
      1          8           0        0.056759   -1.747019    0.000000
      2          1           0       -0.744359   -2.315980    0.000000
      3          1           0        0.854778   -2.320319    0.000000
      4          8           0        0.056759    1.846029    0.000000
      5          1           0       -0.402767    2.714557    0.000000
      6          1           0       -0.615798    1.129667    0.000000
 ---------------------------------------------------------------------

 SCF Done:  E(RHF) =  -152.108834256     A.U. after   10 cycles
 E2 =    -0.5264555834D+00 EUMP2 =    -0.15263528983980D+03
 CCSD(T)
 CCSD(T)= -0.15266242747D+03

 The electronic state is 1-A'.
 Alpha  occ. eigenvalues --  -20.56127 -20.53988  -1.33394  -1.31286  -0.70801
 Alpha  occ. eigenvalues --   -0.68656  -0.56858  -0.54756  -0.50516  -0.48417
 Alpha virt. eigenvalues --    0.13037   0.16499   0.19769   0.23810   0.53422
 Alpha virt. eigenvalues --    0.55353   0.56722   0.58329   0.66332   0.74767
 Alpha virt. eigenvalues --    0.77754   0.78410   0.79210   0.80743   0.84381

 Mulliken charges:
               1
     1  O   -0.499754
     2  H    0.247763
     3  H    0.258009
     4  O   -0.512550
     5  H    0.243279
     6  H    0.263253
 Sum of Mulliken charges =  -0.00000

 Dipole moment (field-independent basis, Debye):
    X=             -1.9002    Y=             -1.8609    Z=              0.0000  Tot=              2.6596
 Quadrupole moment (field-independent basis, Debye-Ang):
   XX=             -9.8263   YY=             -2.0441   ZZ=            -14.7195
   XY=             -3.5384   XZ=              0.0000   YZ=              0.0000

 Normal termination of Gaussian 16 at Sat Aug 27 07:25:27 2022.
