 Gaussian 16, Revision A.03,
 Gaussian 16:  ES64L-G16RevA.03 25-Dec-2016

 ------------------
 #p CCSD(T)/cc-pVTZ
 ------------------

 ------------
 H2O_H2O_1690
 ------------
 Symbolic Z-matrix:
 Charge =  0 Multiplicity = 1

                         Standard orientation:
 ---------------------------------------------------------------------
 Center     Atomic      Atomic             Coordinates (Angstroms)
 Number     Number       Type             X           Y           Z
 ---------------------------------------------------------------------
      1          8           0        0.047549   -1.666977    0.000000
      2          1           0       -0.753399   -2.236176    0.000000
      3          1           0        0.845738   -2.240039    0.000000
      4          8           0        0.047549    1.717513    0.000000
      5          1           0        0.019261    2.699707    0.000000
      6          1           0       -0.872385    1.372218    0.000000
 ---------------------------------------------------------------------

 SCF Done:  E(RHF) =  -152.106090678     A.U. after   10 cycles
 E2 =    -0.5267267784D+00 EUMP2 =    -0.15263281745611D+03
 CCSD(T)
 CCSD(T)= -0.15266001213D+03

 The electronic state is 1-A'.
 Alpha  occ. eigenvalues --  -20.55175 -20.54045  -1.32453  -1.31307  -0.69874
 Alpha  occ. eigenvalues --   -0.68690  -0.55895  -0.54567  -0.49565  -0.48417
 Alpha virt. eigenvalues --    0.13647   0.16437   0.20152   0.22470   0.53853
 Alpha virt. eigenvalues --    0.55016   0.57539   0.58572   0.64570   0.76671
 Alpha virt. eigenvalues --    0.78181   0.78431   0.78930   0.81321   0.85122

 Mulliken charges:
               1
     1  O   -0.490426
     2  H    0.241204
     3  H    0.252092
     4  O   -0.494352
     5  H    0.237556
     6  H    0.253926
 Sum of Mulliken charges =  -0.00000

 Dipole moment (field-independent basis, Debye):
    X=             -1.5783    Y=             -0.9481    Z=              0.0000  Tot=              1.8412
 Quadrupole moment (field-independent basis, Debye-Ang):
   XX=             -9.2482   YY=             -0.2977   ZZ=            -14.7146
   XY=             -2.0749   XZ=              0.0000   YZ=              0.0000

 Normal termination of Gaussian 16 at Sat Aug 27 06:14:22 2022.
