 Gaussian 16, Revision A.03,
 Gaussian 16:  ES64L-G16RevA.03 25-Dec-2016

 ------------------
 #p CCSD(T)/cc-pVTZ
 ------------------

 ------------
 H2O_H2O_3183
 ------------
 Symbolic Z-matrix:
 Charge =  0 Multiplicity = 1

                         Standard orientation:
 ---------------------------------------------------------------------
 Center     Atomic      Atomic             Coordinates (Angstroms)
 Number     Number       Type             X           Y           Z
 ---------------------------------------------------------------------
      1          8           0        0.028564   -2.483898    0.000000
      2          1           0       -0.771570   -3.054241    0.000000
      3          1           0        0.827571   -3.055819    0.000000
      4          8           0        0.028564    2.499145    0.000000
      5          1           0        0.436330    3.393144    0.000000
      6          1           0       -0.949357    2.594940    0.000000
 ---------------------------------------------------------------------

 SCF Done:  E(RHF) =  -152.106377426     A.U. after   10 cycles
 E2 =    -0.5260073876D+00 EUMP2 =    -0.15263238481374D+03
 CCSD(T)
 CCSD(T)= -0.15265962440D+03

 The electronic state is 1-A'.
 Alpha  occ. eigenvalues --  -20.55047 -20.54905  -1.32341  -1.32197  -0.69751
 Alpha  occ. eigenvalues --   -0.69602  -0.55739  -0.55594  -0.49445  -0.49302
 Alpha virt. eigenvalues --    0.14333   0.14881   0.20508   0.20773   0.54734
 Alpha virt. eigenvalues --    0.55036   0.57639   0.57803   0.67429   0.69827
 Alpha virt. eigenvalues --    0.79429   0.79575   0.80851   0.81077   0.82720

 Mulliken charges:
               1
     1  O   -0.502818
     2  H    0.250149
     3  H    0.252679
     4  O   -0.502569
     5  H    0.249542
     6  H    0.253017
 Sum of Mulliken charges =  -0.00000

 Dipole moment (field-independent basis, Debye):
    X=             -0.9760    Y=             -0.2691    Z=              0.0000  Tot=              1.0124
 Quadrupole moment (field-independent basis, Debye-Ang):
   XX=             -8.3242   YY=              7.0325   ZZ=            -14.7103
   XY=             -1.6953   XZ=              0.0000   YZ=              0.0000

 Normal termination of Gaussian 16 at Fri Aug 26 20:11:06 2022.
