 Gaussian 16, Revision A.03,
 Gaussian 16:  ES64L-G16RevA.03 25-Dec-2016

 ------------------
 #p CCSD(T)/cc-pVTZ
 ------------------

 ------------
 H2O_H2O_2278
 ------------
 Symbolic Z-matrix:
 Charge =  0 Multiplicity = 1

                         Standard orientation:
 ---------------------------------------------------------------------
 Center     Atomic      Atomic             Coordinates (Angstroms)
 Number     Number       Type             X           Y           Z
 ---------------------------------------------------------------------
      1          8           0        0.011143   -2.012341    0.000000
      2          1           0       -0.788700   -2.583092    0.000000
      3          1           0        0.810442   -2.583853    0.000000
      4          8           0        0.011143    2.014525    0.000000
      5          1           0        0.684269    2.730350    0.000000
      6          1           0       -0.884295    2.419120    0.000000
 ---------------------------------------------------------------------

 SCF Done:  E(RHF) =  -152.105194998     A.U. after   10 cycles
 E2 =    -0.5262767982D+00 EUMP2 =    -0.15263147179575D+03
 CCSD(T)
 CCSD(T)= -0.15265872035D+03

 The electronic state is 1-A'.
 Alpha  occ. eigenvalues --  -20.54602 -20.54570  -1.31887  -1.31852  -0.69304
 Alpha  occ. eigenvalues --   -0.69267  -0.55365  -0.55019  -0.48994  -0.48939
 Alpha virt. eigenvalues --    0.14206   0.15588   0.20621   0.21106   0.54364
 Alpha virt. eigenvalues --    0.56097   0.57888   0.58140   0.62611   0.74503
 Alpha virt. eigenvalues --    0.79539   0.80252   0.80811   0.81302   0.81979

 Mulliken charges:
               1
     1  O   -0.494655
     2  H    0.246474
     3  H    0.248208
     4  O   -0.494586
     5  H    0.246235
     6  H    0.248323
 Sum of Mulliken charges =  -0.00000

 Dipole moment (field-independent basis, Debye):
    X=             -0.3767    Y=             -0.0395    Z=              0.0000  Tot=              0.3788
 Quadrupole moment (field-independent basis, Debye-Ang):
   XX=             -7.9121   YY=              3.8891   ZZ=            -14.7094
   XY=             -0.4370   XZ=              0.0000   YZ=              0.0000

 Normal termination of Gaussian 16 at Sat Aug 27 09:36:52 2022.
