 Gaussian 16, Revision A.03,
 Gaussian 16:  ES64L-G16RevA.03 25-Dec-2016

 ------------------
 #p CCSD(T)/cc-pVTZ
 ------------------

 ------------
 H2O_H2O_1712
 ------------
 Symbolic Z-matrix:
 Charge =  0 Multiplicity = 1

                         Standard orientation:
 ---------------------------------------------------------------------
 Center     Atomic      Atomic             Coordinates (Angstroms)
 Number     Number       Type             X           Y           Z
 ---------------------------------------------------------------------
      1          8           0        0.040419   -1.689639    0.000000
      2          1           0       -0.760314   -2.259140    0.000000
      3          1           0        0.838825   -2.262399    0.000000
      4          8           0        0.040419    1.722930    0.000000
      5          1           0        0.203925    2.691832    0.000000
      6          1           0       -0.929142    1.563374    0.000000
 ---------------------------------------------------------------------

 SCF Done:  E(RHF) =  -152.105254641     A.U. after   10 cycles
 E2 =    -0.5267174833D+00 EUMP2 =    -0.15263197212471D+03
 CCSD(T)
 CCSD(T)= -0.15265919039D+03

 The electronic state is 1-A'.
 Alpha  occ. eigenvalues --  -20.54840 -20.54132  -1.32120  -1.31394  -0.69543
 Alpha  occ. eigenvalues --   -0.68788  -0.55638  -0.54500  -0.49230  -0.48492
 Alpha virt. eigenvalues --    0.13843   0.16324   0.20312   0.22017   0.53282
 Alpha virt. eigenvalues --    0.55706   0.57797   0.58598   0.63890   0.76963
 Alpha virt. eigenvalues --    0.78485   0.78580   0.79730   0.81326   0.85389

 Mulliken charges:
               1
     1  O   -0.488500
     2  H    0.240362
     3  H    0.249724
     4  O   -0.489703
     5  H    0.237618
     6  H    0.250500
 Sum of Mulliken charges =  -0.00000

 Dipole moment (field-independent basis, Debye):
    X=             -1.3438    Y=             -0.6214    Z=              0.0000  Tot=              1.4805
 Quadrupole moment (field-independent basis, Debye-Ang):
   XX=             -8.8645   YY=              0.4269   ZZ=            -14.7122
   XY=             -1.5642   XZ=              0.0000   YZ=              0.0000

 Normal termination of Gaussian 16 at Sat Aug 27 06:21:33 2022.
