 Gaussian 16, Revision A.03,
 Gaussian 16:  ES64L-G16RevA.03 25-Dec-2016

 ------------------
 #p CCSD(T)/cc-pVTZ
 ------------------

 ----------
 H2O_H2O_41
 ----------
 Symbolic Z-matrix:
 Charge =  0 Multiplicity = 1

                         Standard orientation:
 ---------------------------------------------------------------------
 Center     Atomic      Atomic             Coordinates (Angstroms)
 Number     Number       Type             X           Y           Z
 ---------------------------------------------------------------------
      1          8           0        0.049610   -0.786150    0.000000
      2          1           0       -0.752936   -1.353094    0.000000
      3          1           0        0.846184   -1.361454    0.000000
      4          8           0        0.049610    0.842745    0.000000
      5          1           0       -0.040104    1.821243    0.000000
      6          1           0       -0.846905    0.440544    0.000000
 ---------------------------------------------------------------------

 SCF Done:  E(RHF) =  -151.921134647     A.U. after   12 cycles
 E2 =    -0.5507596240D+00 EUMP2 =    -0.15247189427067D+03
 CCSD(T)
 CCSD(T)= -0.15249668408D+03

 The electronic state is 1-A'.
 Alpha  occ. eigenvalues --  -20.53681 -20.50900  -1.39751  -1.26353  -0.76055
 Alpha  occ. eigenvalues --   -0.71331  -0.56519  -0.54500  -0.43284  -0.38186
 Alpha virt. eigenvalues --    0.13671   0.18960   0.19845   0.24269   0.51566
 Alpha virt. eigenvalues --    0.56197   0.59428   0.66581   0.73355   0.76879
 Alpha virt. eigenvalues --    0.80017   0.81474   0.83456   0.83836   0.89149

 Mulliken charges:
               1
     1  O   -0.312032
     2  H    0.143420
     3  H    0.191629
     4  O   -0.356327
     5  H    0.092051
     6  H    0.241259
 Sum of Mulliken charges =  -0.00000

 Dipole moment (field-independent basis, Debye):
    X=             -1.2805    Y=             -1.3283    Z=              0.0000  Tot=              1.8450
 Quadrupole moment (field-independent basis, Debye-Ang):
   XX=             -9.5746   YY=             -9.0556   ZZ=            -14.6028
   XY=             -0.8359   XZ=              0.0000   YZ=              0.0000

 Normal termination of Gaussian 16 at Fri Aug 26 12:11:21 2022.
