 Gaussian 16, Revision A.03,
 Gaussian 16:  ES64L-G16RevA.03 25-Dec-2016

 ------------------
 #p CCSD(T)/cc-pVTZ
 ------------------

 ------------
 H2O_H2O_4097
 ------------
 Symbolic Z-matrix:
 Charge =  0 Multiplicity = 1

                         Standard orientation:
 ---------------------------------------------------------------------
 Center     Atomic      Atomic             Coordinates (Angstroms)
 Number     Number       Type             X           Y           Z
 ---------------------------------------------------------------------
      1          8           0        0.056706   -2.916996    0.000000
      2          1           0       -0.743802   -3.486814    0.000000
      3          1           0        0.855338   -3.489441    0.000000
      4          8           0        0.056706    3.016127    0.000000
      5          1           0       -0.403749    3.884164    0.000000
      6          1           0       -0.615084    2.299047    0.000000
 ---------------------------------------------------------------------

 SCF Done:  E(RHF) =  -152.107633228     A.U. after   10 cycles
 E2 =    -0.5258682501D+00 EUMP2 =    -0.15263350147828D+03
 CCSD(T)
 CCSD(T)= -0.15266071611D+03

 The electronic state is 1-A'.
 Alpha  occ. eigenvalues --  -20.55724 -20.55069  -1.33024  -1.32368  -0.70430
 Alpha  occ. eigenvalues --   -0.69765  -0.56482  -0.55820  -0.50137  -0.49483
 Alpha virt. eigenvalues --    0.13911   0.14663   0.20051   0.20773   0.54125
 Alpha virt. eigenvalues --    0.54802   0.57067   0.57714   0.67572   0.68485
 Alpha virt. eigenvalues --    0.78744   0.79385   0.80168   0.80771   0.82247

 Mulliken charges:
               1
     1  O   -0.510233
     2  H    0.253686
     3  H    0.256559
     4  O   -0.509785
     5  H    0.251892
     6  H    0.257881
 Sum of Mulliken charges =  -0.00000

 Dipole moment (field-independent basis, Debye):
    X=             -1.9473    Y=             -1.7374    Z=              0.0000  Tot=              2.6097
 Quadrupole moment (field-independent basis, Debye-Ang):
   XX=             -9.8277   YY=              3.2863   ZZ=            -14.7127
   XY=             -5.7767   XZ=              0.0000   YZ=              0.0000

 Normal termination of Gaussian 16 at Sat Aug 27 05:21:56 2022.
