 Gaussian 16, Revision A.03,
 Gaussian 16:  ES64L-G16RevA.03 25-Dec-2016

 ------------------
 #p CCSD(T)/cc-pVTZ
 ------------------

 ------------
 H2O_H2O_4241
 ------------
 Symbolic Z-matrix:
 Charge =  0 Multiplicity = 1

                         Standard orientation:
 ---------------------------------------------------------------------
 Center     Atomic      Atomic             Coordinates (Angstroms)
 Number     Number       Type             X           Y           Z
 ---------------------------------------------------------------------
      1          8           0        0.049501   -3.019665    0.000000
      2          1           0       -0.750867   -3.589679    0.000000
      3          1           0        0.848274   -3.591913    0.000000
      4          8           0        0.049501    3.076640    0.000000
      5          1           0       -0.043961    4.054787    0.000000
      6          1           0       -0.845466    2.671006    0.000000
 ---------------------------------------------------------------------

 SCF Done:  E(RHF) =  -152.107238184     A.U. after   10 cycles
 E2 =    -0.5258984993D+00 EUMP2 =    -0.15263313668349D+03
 CCSD(T)
 CCSD(T)= -0.15266036012D+03

 The electronic state is 1-A'.
 Alpha  occ. eigenvalues --  -20.55482 -20.55126  -1.32780  -1.32422  -0.70187
 Alpha  occ. eigenvalues --   -0.69822  -0.56219  -0.55861  -0.49890  -0.49534
 Alpha virt. eigenvalues --    0.14163   0.14550   0.20243   0.20628   0.54375
 Alpha virt. eigenvalues --    0.54755   0.57280   0.57638   0.67946   0.68385
 Alpha virt. eigenvalues --    0.78989   0.79340   0.80423   0.80802   0.82360

 Mulliken charges:
               1
     1  O   -0.507893
     2  H    0.252721
     3  H    0.255172
     4  O   -0.507640
     5  H    0.251709
     6  H    0.255930
 Sum of Mulliken charges =  -0.00000

 Dipole moment (field-independent basis, Debye):
    X=             -1.7003    Y=             -0.9966    Z=              0.0000  Tot=              1.9709
 Quadrupole moment (field-independent basis, Debye-Ang):
   XX=             -9.3455   YY=              7.7344   ZZ=            -14.7117
   XY=             -4.5237   XZ=              0.0000   YZ=              0.0000

 Normal termination of Gaussian 16 at Sat Aug 27 06:12:36 2022.
