 Gaussian 16, Revision A.03,
 Gaussian 16:  ES64L-G16RevA.03 25-Dec-2016

 ------------------
 #p CCSD(T)/cc-pVTZ
 ------------------

 ------------
 H2O_H2O_2555
 ------------
 Symbolic Z-matrix:
 Charge =  0 Multiplicity = 1

                         Standard orientation:
 ---------------------------------------------------------------------
 Center     Atomic      Atomic             Coordinates (Angstroms)
 Number     Number       Type             X           Y           Z
 ---------------------------------------------------------------------
      1          8           0        0.018361   -2.156504    0.000000
      2          1           0       -0.781628   -2.727051    0.000000
      3          1           0        0.817513   -2.728221    0.000000
      4          8           0        0.018361    2.162539    0.000000
      5          1           0        0.592498    2.959955    0.000000
      6          1           0       -0.922153    2.447036    0.000000
 ---------------------------------------------------------------------

 SCF Done:  E(RHF) =  -152.105657737     A.U. after   10 cycles
 E2 =    -0.5261516330D+00 EUMP2 =    -0.15263180937026D+03
 CCSD(T)
 CCSD(T)= -0.15265905634D+03

 The electronic state is 1-A'.
 Alpha  occ. eigenvalues --  -20.54766 -20.54690  -1.32054  -1.31977  -0.69468
 Alpha  occ. eigenvalues --   -0.69387  -0.55464  -0.55278  -0.49155  -0.49076
 Alpha virt. eigenvalues --    0.14233   0.15338   0.20591   0.20986   0.54588
 Alpha virt. eigenvalues --    0.55579   0.57815   0.58008   0.64596   0.72961
 Alpha virt. eigenvalues --    0.79586   0.79923   0.81113   0.81186   0.82131

 Mulliken charges:
               1
     1  O   -0.498189
     2  H    0.247917
     3  H    0.250305
     4  O   -0.497999
     5  H    0.247499
     6  H    0.250468
 Sum of Mulliken charges =  -0.00000

 Dipole moment (field-independent basis, Debye):
    X=             -0.6235    Y=             -0.1080    Z=              0.0000  Tot=              0.6327
 Quadrupole moment (field-independent basis, Debye-Ang):
   XX=             -8.0362   YY=              4.9160   ZZ=            -14.7097
   XY=             -0.8317   XZ=              0.0000   YZ=              0.0000

 Normal termination of Gaussian 16 at Fri Aug 26 13:41:16 2022.
