 Gaussian 16, Revision A.03,
 Gaussian 16:  ES64L-G16RevA.03 25-Dec-2016

 ------------------
 #p CCSD(T)/cc-pVTZ
 ------------------

 ------------
 H2O_H2O_1987
 ------------
 Symbolic Z-matrix:
 Charge =  0 Multiplicity = 1

                         Standard orientation:
 ---------------------------------------------------------------------
 Center     Atomic      Atomic             Coordinates (Angstroms)
 Number     Number       Type             X           Y           Z
 ---------------------------------------------------------------------
      1          8           0        0.040416   -1.835887    0.000000
      2          1           0       -0.760225   -2.405517    0.000000
      3          1           0        0.838914   -2.408518    0.000000
      4          8           0        0.040416    1.869191    0.000000
      5          1           0        0.203766    2.838120    0.000000
      6          1           0       -0.929119    1.709479    0.000000
 ---------------------------------------------------------------------

 SCF Done:  E(RHF) =  -152.105789302     A.U. after   10 cycles
 E2 =    -0.5264354395D+00 EUMP2 =    -0.15263222474183D+03
 CCSD(T)
 CCSD(T)= -0.15265944281D+03

 The electronic state is 1-A'.
 Alpha  occ. eigenvalues --  -20.54943 -20.54337  -1.32221  -1.31608  -0.69640
 Alpha  occ. eigenvalues --   -0.69001  -0.55647  -0.54872  -0.49327  -0.48713
 Alpha virt. eigenvalues --    0.13782   0.16026   0.20331   0.21710   0.53286
 Alpha virt. eigenvalues --    0.55373   0.57728   0.58395   0.63567   0.76170
 Alpha virt. eigenvalues --    0.78996   0.79250   0.80645   0.80801   0.83909

 Mulliken charges:
               1
     1  O   -0.494228
     2  H    0.243773
     3  H    0.251484
     4  O   -0.495222
     5  H    0.241732
     6  H    0.252461
 Sum of Mulliken charges =  -0.00000

 Dipole moment (field-independent basis, Debye):
    X=             -1.3562    Y=             -0.6129    Z=              0.0000  Tot=              1.4883
 Quadrupole moment (field-independent basis, Debye-Ang):
   XX=             -8.8530   YY=              1.4872   ZZ=            -14.7117
   XY=             -1.7605   XZ=              0.0000   YZ=              0.0000

 Normal termination of Gaussian 16 at Sat Aug 27 07:56:34 2022.
