 Gaussian 16, Revision A.03,
 Gaussian 16:  ES64L-G16RevA.03 25-Dec-2016

 ------------------
 #p CCSD(T)/cc-pVTZ
 ------------------

 ------------
 H2O_H2O_1977
 ------------
 Symbolic Z-matrix:
 Charge =  0 Multiplicity = 1

                         Standard orientation:
 ---------------------------------------------------------------------
 Center     Atomic      Atomic             Coordinates (Angstroms)
 Number     Number       Type             X           Y           Z
 ---------------------------------------------------------------------
      1          8           0        0.007455   -1.853448    0.000000
      2          1           0       -0.792314   -2.424303    0.000000
      3          1           0        0.806828   -2.424856    0.000000
      4          8           0        0.007455    1.854420    0.000000
      5          1           0        0.725870    2.524782    0.000000
      6          1           0       -0.859664    2.316601    0.000000
 ---------------------------------------------------------------------

 SCF Done:  E(RHF) =  -152.104568115     A.U. after   10 cycles
 E2 =    -0.5264823140D+00 EUMP2 =    -0.15263105042871D+03
 CCSD(T)
 CCSD(T)= -0.15265830153D+03

 The electronic state is 1-A'.
 Alpha  occ. eigenvalues --  -20.54422 -20.54405  -1.31712  -1.31675  -0.69132
 Alpha  occ. eigenvalues --   -0.69097  -0.55314  -0.54632  -0.48837  -0.48738
 Alpha virt. eigenvalues --    0.14205   0.15895   0.20619   0.21287   0.53841
 Alpha virt. eigenvalues --    0.56922   0.57954   0.58305   0.61140   0.75561
 Alpha virt. eigenvalues --    0.79296   0.80125   0.80710   0.80792   0.82926

 Mulliken charges:
               1
     1  O   -0.489347
     2  H    0.243977
     3  H    0.245397
     4  O   -0.489337
     5  H    0.243824
     6  H    0.245487
 Sum of Mulliken charges =  -0.00000

 Dipole moment (field-independent basis, Debye):
    X=             -0.2504    Y=             -0.0179    Z=              0.0000  Tot=              0.2510
 Quadrupole moment (field-independent basis, Debye-Ang):
   XX=             -7.8819   YY=              2.6122   ZZ=            -14.7091
   XY=             -0.2500   XZ=              0.0000   YZ=              0.0000

 Normal termination of Gaussian 16 at Sat Aug 27 07:53:10 2022.
