 Gaussian 16, Revision A.03,
 Gaussian 16:  ES64L-G16RevA.03 25-Dec-2016

 ------------------
 #p CCSD(T)/cc-pVTZ
 ------------------

 ------------
 H2O_H2O_3779
 ------------
 Symbolic Z-matrix:
 Charge =  0 Multiplicity = 1

                         Standard orientation:
 ---------------------------------------------------------------------
 Center     Atomic      Atomic             Coordinates (Angstroms)
 Number     Number       Type             X           Y           Z
 ---------------------------------------------------------------------
      1          8           0        0.014783   -2.809174    0.000000
      2          1           0       -0.785047   -3.379944    0.000000
      3          1           0        0.814095   -3.380668    0.000000
      4          8           0        0.014783    2.813053    0.000000
      5          1           0        0.639633    3.571386    0.000000
      6          1           0       -0.905208    3.158197    0.000000
 ---------------------------------------------------------------------

 SCF Done:  E(RHF) =  -152.106577908     A.U. after   10 cycles
 E2 =    -0.5259631883D+00 EUMP2 =    -0.15263254109635D+03
 CCSD(T)
 CCSD(T)= -0.15265977822D+03

 The electronic state is 1-A'.
 Alpha  occ. eigenvalues --  -20.55094 -20.55066  -1.32389  -1.32360  -0.69797
 Alpha  occ. eigenvalues --   -0.69767  -0.55797  -0.55768  -0.49494  -0.49466
 Alpha virt. eigenvalues --    0.14460   0.14597   0.20530   0.20592   0.54762
 Alpha virt. eigenvalues --    0.54818   0.57616   0.57654   0.68241   0.68706
 Alpha virt. eigenvalues --    0.79384   0.79412   0.80829   0.80867   0.82757

 Mulliken charges:
               1
     1  O   -0.503979
     2  H    0.251523
     3  H    0.252455
     4  O   -0.503938
     5  H    0.251332
     6  H    0.252605
 Sum of Mulliken charges =  -0.00000

 Dipole moment (field-independent basis, Debye):
    X=             -0.5068    Y=             -0.0680    Z=              0.0000  Tot=              0.5113
 Quadrupole moment (field-independent basis, Debye-Ang):
   XX=             -7.9448   YY=             10.1973   ZZ=            -14.7103
   XY=             -0.9843   XZ=              0.0000   YZ=              0.0000

 Normal termination of Gaussian 16 at Sat Aug 27 03:14:33 2022.
