 Gaussian 16, Revision A.03,
 Gaussian 16:  ES64L-G16RevA.03 25-Dec-2016

 ------------------
 #p CCSD(T)/cc-pVTZ
 ------------------

 ------------
 H2O_H2O_3321
 ------------
 Symbolic Z-matrix:
 Charge =  0 Multiplicity = 1

                         Standard orientation:
 ---------------------------------------------------------------------
 Center     Atomic      Atomic             Coordinates (Angstroms)
 Number     Number       Type             X           Y           Z
 ---------------------------------------------------------------------
      1          8           0        0.056102   -2.508841    0.000000
      2          1           0       -0.744545   -3.078463    0.000000
      3          1           0        0.854594   -3.081481    0.000000
      4          8           0        0.056102    2.600571    0.000000
      5          1           0       -0.346375    3.496963    0.000000
      6          1           0       -0.661313    1.929138    0.000000
 ---------------------------------------------------------------------

 SCF Done:  E(RHF) =  -152.107668102     A.U. after   10 cycles
 E2 =    -0.5259113617D+00 EUMP2 =    -0.15263357946346D+03
 CCSD(T)
 CCSD(T)= -0.15266078848D+03

 The electronic state is 1-A'.
 Alpha  occ. eigenvalues --  -20.55714 -20.54865  -1.33011  -1.32163  -0.70417
 Alpha  occ. eigenvalues --   -0.69553  -0.56468  -0.55613  -0.50124  -0.49280
 Alpha virt. eigenvalues --    0.13649   0.15041   0.20038   0.21097   0.54095
 Alpha virt. eigenvalues --    0.54913   0.57089   0.57840   0.67039   0.69498
 Alpha virt. eigenvalues --    0.78762   0.79583   0.80041   0.80518   0.82761

 Mulliken charges:
               1
     1  O   -0.510001
     2  H    0.252877
     3  H    0.257323
     4  O   -0.509587
     5  H    0.250317
     6  H    0.259071
 Sum of Mulliken charges =  -0.00000

 Dipole moment (field-independent basis, Debye):
    X=             -1.9199    Y=             -1.6239    Z=              0.0000  Tot=              2.5145
 Quadrupole moment (field-independent basis, Debye-Ang):
   XX=             -9.7827   YY=              2.0483   ZZ=            -14.7132
   XY=             -4.7984   XZ=              0.0000   YZ=              0.0000

 Normal termination of Gaussian 16 at Fri Aug 26 21:21:02 2022.
