 Gaussian 16, Revision A.03,
 Gaussian 16:  ES64L-G16RevA.03 25-Dec-2016

 ------------------
 #p CCSD(T)/cc-pVTZ
 ------------------

 ------------
 H2O_H2O_4456
 ------------
 Symbolic Z-matrix:
 Charge =  0 Multiplicity = 1

                         Standard orientation:
 ---------------------------------------------------------------------
 Center     Atomic      Atomic             Coordinates (Angstroms)
 Number     Number       Type             X           Y           Z
 ---------------------------------------------------------------------
      1          8           0        0.021859   -3.165563    0.000000
      2          1           0       -0.778051   -3.736220    0.000000
      3          1           0        0.821091   -3.737169    0.000000
      4          8           0        0.021859    3.174232    0.000000
      5          1           0        0.542499    4.007563    0.000000
      6          1           0       -0.935279    3.396475    0.000000
 ---------------------------------------------------------------------

 SCF Done:  E(RHF) =  -152.106886444     A.U. after   10 cycles
 E2 =    -0.5259243206D+00 EUMP2 =    -0.15263281076473D+03
 CCSD(T)
 CCSD(T)= -0.15266004202D+03

 The electronic state is 1-A'.
 Alpha  occ. eigenvalues --  -20.55237 -20.55187  -1.32533  -1.32483  -0.69940
 Alpha  occ. eigenvalues --   -0.69889  -0.55956  -0.55906  -0.49640  -0.49591
 Alpha virt. eigenvalues --    0.14393   0.14451   0.20444   0.20498   0.54628
 Alpha virt. eigenvalues --    0.54683   0.57500   0.57551   0.68261   0.68337
 Alpha virt. eigenvalues --    0.79239   0.79288   0.80681   0.80735   0.82608

 Mulliken charges:
               1
     1  O   -0.505791
     2  H    0.252404
     3  H    0.253386
     4  O   -0.505742
     5  H    0.252164
     6  H    0.253577
 Sum of Mulliken charges =  -0.00000

 Dipole moment (field-independent basis, Debye):
    X=             -0.7511    Y=             -0.1513    Z=              0.0000  Tot=              0.7661
 Quadrupole moment (field-independent basis, Debye-Ang):
   XX=             -8.1035   YY=             12.6519   ZZ=            -14.7108
   XY=             -1.7552   XZ=              0.0000   YZ=              0.0000

 Normal termination of Gaussian 16 at Sat Aug 27 07:25:06 2022.
