 Gaussian 16, Revision A.03,
 Gaussian 16:  ES64L-G16RevA.03 25-Dec-2016

 ------------------
 #p CCSD(T)/cc-pVTZ
 ------------------

 ------------
 H2O_H2O_1337
 ------------
 Symbolic Z-matrix:
 Charge =  0 Multiplicity = 1

                         Standard orientation:
 ---------------------------------------------------------------------
 Center     Atomic      Atomic             Coordinates (Angstroms)
 Number     Number       Type             X           Y           Z
 ---------------------------------------------------------------------
      1          8           0        0.040424   -1.490211    0.000000
      2          1           0       -0.760463   -2.059497    0.000000
      3          1           0        0.838675   -2.063186    0.000000
      4          8           0        0.040424    1.523481    0.000000
      5          1           0        0.204190    2.492340    0.000000
      6          1           0       -0.929180    1.364186    0.000000
 ---------------------------------------------------------------------

 SCF Done:  E(RHF) =  -152.103667437     A.U. after   10 cycles
 E2 =    -0.5273551575D+00 EUMP2 =    -0.15263102259456D+03
 CCSD(T)
 CCSD(T)= -0.15265825430D+03

 The electronic state is 1-A'.
 Alpha  occ. eigenvalues --  -20.54627 -20.53760  -1.31948  -1.31010  -0.69373
 Alpha  occ. eigenvalues --   -0.68428  -0.55790  -0.53657  -0.49080  -0.48071
 Alpha virt. eigenvalues --    0.13965   0.16753   0.20287   0.22483   0.53428
 Alpha virt. eigenvalues --    0.57353   0.57917   0.58702   0.66409   0.76292
 Alpha virt. eigenvalues --    0.77348   0.77622   0.80004   0.82461   0.85520

 Mulliken charges:
               1
     1  O   -0.480314
     2  H    0.235139
     3  H    0.247259
     4  O   -0.478275
     5  H    0.229654
     6  H    0.246538
 Sum of Mulliken charges =  -0.00000

 Dipole moment (field-independent basis, Debye):
    X=             -1.3185    Y=             -0.6333    Z=              0.0000  Tot=              1.4627
 Quadrupole moment (field-independent basis, Debye-Ang):
   XX=             -8.8901   YY=             -1.0781   ZZ=            -14.7148
   XY=             -1.3001   XZ=              0.0000   YZ=              0.0000

 Normal termination of Gaussian 16 at Sat Aug 27 04:03:47 2022.
