 Gaussian 16, Revision A.03,
 Gaussian 16:  ES64L-G16RevA.03 25-Dec-2016

 ------------------
 #p CCSD(T)/cc-pVTZ
 ------------------

 ------------
 H2O_H2O_2865
 ------------
 Symbolic Z-matrix:
 Charge =  0 Multiplicity = 1

                         Standard orientation:
 ---------------------------------------------------------------------
 Center     Atomic      Atomic             Coordinates (Angstroms)
 Number     Number       Type             X           Y           Z
 ---------------------------------------------------------------------
      1          8           0        0.047533   -2.291852    0.000000
      2          1           0       -0.753045   -2.861573    0.000000
      3          1           0        0.846095   -2.864394    0.000000
      4          8           0        0.047533    2.342450    0.000000
      5          1           0        0.018604    3.324626    0.000000
      6          1           0       -0.872176    1.996557    0.000000
 ---------------------------------------------------------------------

 SCF Done:  E(RHF) =  -152.106867954     A.U. after   10 cycles
 E2 =    -0.5260159782D+00 EUMP2 =    -0.15263288393177D+03
 CCSD(T)
 CCSD(T)= -0.15266010742D+03

 The electronic state is 1-A'.
 Alpha  occ. eigenvalues --  -20.55325 -20.54754  -1.32618  -1.32045  -0.70028
 Alpha  occ. eigenvalues --   -0.69437  -0.56036  -0.55463  -0.49726  -0.49156
 Alpha virt. eigenvalues --    0.13833   0.15240   0.20255   0.21134   0.54298
 Alpha virt. eigenvalues --    0.55020   0.57420   0.57920   0.66529   0.71258
 Alpha virt. eigenvalues --    0.79149   0.79717   0.80372   0.81358   0.82958

 Mulliken charges:
               1
     1  O   -0.505175
     2  H    0.250133
     3  H    0.255264
     4  O   -0.504883
     5  H    0.248281
     6  H    0.256380
 Sum of Mulliken charges =  -0.00000

 Dipole moment (field-independent basis, Debye):
    X=             -1.6201    Y=             -0.9015    Z=              0.0000  Tot=              1.8540
 Quadrupole moment (field-independent basis, Debye-Ang):
   XX=             -9.2273   YY=              3.7203   ZZ=            -14.7118
   XY=             -3.0699   XZ=              0.0000   YZ=              0.0000

 Normal termination of Gaussian 16 at Fri Aug 26 16:53:52 2022.
