 Gaussian 16, Revision A.03,
 Gaussian 16:  ES64L-G16RevA.03 25-Dec-2016

 ------------------
 #p CCSD(T)/cc-pVTZ
 ------------------

 ------------
 H2O_H2O_1514
 ------------
 Symbolic Z-matrix:
 Charge =  0 Multiplicity = 1

                         Standard orientation:
 ---------------------------------------------------------------------
 Center     Atomic      Atomic             Coordinates (Angstroms)
 Number     Number       Type             X           Y           Z
 ---------------------------------------------------------------------
      1          8           0        0.045365   -1.577200    0.000000
      2          1           0       -0.755596   -2.146381    0.000000
      3          1           0        0.843541   -2.150281    0.000000
      4          8           0        0.045365    1.621669    0.000000
      5          1           0        0.081399    2.603610    0.000000
      6          1           0       -0.895189    1.337302    0.000000
 ---------------------------------------------------------------------

 SCF Done:  E(RHF) =  -152.105270328     A.U. after   10 cycles
 E2 =    -0.5269980921D+00 EUMP2 =    -0.15263226842050D+03
 CCSD(T)
 CCSD(T)= -0.15265947381D+03

 The electronic state is 1-A'.
 Alpha  occ. eigenvalues --  -20.54989 -20.53903  -1.32278  -1.31158  -0.69703
 Alpha  occ. eigenvalues --   -0.68553  -0.55821  -0.54239  -0.49394  -0.48255
 Alpha virt. eigenvalues --    0.13775   0.16603   0.20189   0.22544   0.53843
 Alpha virt. eigenvalues --    0.55831   0.57669   0.58565   0.65232   0.76474
 Alpha virt. eigenvalues --    0.77755   0.78030   0.79092   0.81857   0.85259

 Mulliken charges:
               1
     1  O   -0.485696
     2  H    0.238437
     3  H    0.250221
     4  O   -0.488044
     5  H    0.233937
     6  H    0.251147
 Sum of Mulliken charges =  -0.00000

 Dipole moment (field-independent basis, Debye):
    X=             -1.4938    Y=             -0.8414    Z=              0.0000  Tot=              1.7145
 Quadrupole moment (field-independent basis, Debye-Ang):
   XX=             -9.1337   YY=             -0.7216   ZZ=            -14.7149
   XY=             -1.7546   XZ=              0.0000   YZ=              0.0000

 Normal termination of Gaussian 16 at Sat Aug 27 05:12:54 2022.
