 Gaussian 16, Revision A.03,
 Gaussian 16:  ES64L-G16RevA.03 25-Dec-2016

 ------------------
 #p CCSD(T)/cc-pVTZ
 ------------------

 ------------
 H2O_H2O_3799
 ------------
 Symbolic Z-matrix:
 Charge =  0 Multiplicity = 1

                         Standard orientation:
 ---------------------------------------------------------------------
 Center     Atomic      Atomic             Coordinates (Angstroms)
 Number     Number       Type             X           Y           Z
 ---------------------------------------------------------------------
      1          8           0        0.057213   -2.749356    0.000000
      2          1           0       -0.743357   -3.319086    0.000000
      3          1           0        0.855782   -3.321888    0.000000
      4          8           0        0.057213    2.863382    0.000000
      5          1           0       -0.512517    3.663953    0.000000
      6          1           0       -0.515319    2.064813    0.000000
 ---------------------------------------------------------------------

 SCF Done:  E(RHF) =  -152.107849970     A.U. after   10 cycles
 E2 =    -0.5258622133D+00 EUMP2 =    -0.15263371218288D+03
 CCSD(T)
 CCSD(T)= -0.15266092086D+03

 The electronic state is 1-A'.
 Alpha  occ. eigenvalues --  -20.55834 -20.54985  -1.33134  -1.32286  -0.70539
 Alpha  occ. eigenvalues --   -0.69680  -0.56602  -0.55743  -0.50248  -0.49403
 Alpha virt. eigenvalues --    0.13721   0.14819   0.19967   0.20928   0.54008
 Alpha virt. eigenvalues --    0.54855   0.56974   0.57778   0.67252   0.68754
 Alpha virt. eigenvalues --    0.78635   0.79461   0.80040   0.80541   0.82559

 Mulliken charges:
               1
     1  O   -0.511429
     2  H    0.254103
     3  H    0.257387
     4  O   -0.510816
     5  H    0.251676
     6  H    0.259079
 Sum of Mulliken charges =  -0.00000

 Dipole moment (field-independent basis, Debye):
    X=             -1.9628    Y=             -2.0052    Z=              0.0000  Tot=              2.8059
 Quadrupole moment (field-independent basis, Debye-Ang):
   XX=             -9.8636   YY=              1.1120   ZZ=            -14.7133
   XY=             -5.7829   XZ=              0.0000   YZ=              0.0000

 Normal termination of Gaussian 16 at Sat Aug 27 03:25:22 2022.
