 Gaussian 16, Revision A.03,
 Gaussian 16:  ES64L-G16RevA.03 25-Dec-2016

 ------------------
 #p CCSD(T)/cc-pVTZ
 ------------------

 ------------
 H2O_H2O_4758
 ------------
 Symbolic Z-matrix:
 Charge =  0 Multiplicity = 1

                         Standard orientation:
 ---------------------------------------------------------------------
 Center     Atomic      Atomic             Coordinates (Angstroms)
 Number     Number       Type             X           Y           Z
 ---------------------------------------------------------------------
      1          8           0        0.028562   -3.321533    0.000000
      2          1           0       -0.771430   -3.892075    0.000000
      3          1           0        0.827711   -3.893256    0.000000
      4          8           0        0.028562    3.336795    0.000000
      5          1           0        0.436107    4.230895    0.000000
      6          1           0       -0.949383    3.432346    0.000000
 ---------------------------------------------------------------------

 SCF Done:  E(RHF) =  -152.107012065     A.U. after   10 cycles
 E2 =    -0.5259102810D+00 EUMP2 =    -0.15263292234607D+03
 CCSD(T)
 CCSD(T)= -0.15266015112D+03

 The electronic state is 1-A'.
 Alpha  occ. eigenvalues --  -20.55307 -20.55228  -1.32604  -1.32525  -0.70011
 Alpha  occ. eigenvalues --   -0.69930  -0.56033  -0.55954  -0.49713  -0.49634
 Alpha virt. eigenvalues --    0.14336   0.14417   0.20391   0.20473   0.54556
 Alpha virt. eigenvalues --    0.54642   0.57439   0.57518   0.68186   0.68268
 Alpha virt. eigenvalues --    0.79166   0.79245   0.80606   0.80692   0.82532

 Mulliken charges:
               1
     1  O   -0.506532
     2  H    0.252709
     3  H    0.253823
     4  O   -0.506468
     5  H    0.252403
     6  H    0.254065
 Sum of Mulliken charges =  -0.00000

 Dipole moment (field-independent basis, Debye):
    X=             -0.9821    Y=             -0.2660    Z=              0.0000  Tot=              1.0175
 Quadrupole moment (field-independent basis, Debye-Ang):
   XX=             -8.3152   YY=             13.3123   ZZ=            -14.7110
   XY=             -2.5082   XZ=              0.0000   YZ=              0.0000

 Normal termination of Gaussian 16 at Sat Aug 27 09:10:40 2022.
