 Gaussian 16, Revision A.03,
 Gaussian 16:  ES64L-G16RevA.03 25-Dec-2016

 ------------------
 #p CCSD(T)/cc-pVTZ
 ------------------

 -----------
 H2O_H2O_153
 -----------
 Symbolic Z-matrix:
 Charge =  0 Multiplicity = 1

                         Standard orientation:
 ---------------------------------------------------------------------
 Center     Atomic      Atomic             Coordinates (Angstroms)
 Number     Number       Type             X           Y           Z
 ---------------------------------------------------------------------
      1          8           0        0.011143   -0.882195    0.000000
      2          1           0       -0.789047   -1.452459    0.000000
      3          1           0        0.810094   -1.454195    0.000000
      4          8           0        0.011143    0.884366    0.000000
      5          1           0        0.684706    1.599781    0.000000
      6          1           0       -0.884047    1.289507    0.000000
 ---------------------------------------------------------------------

 SCF Done:  E(RHF) =  -151.986600154     A.U. after   11 cycles
 E2 =    -0.5433313403D+00 EUMP2 =    -0.15252993149466D+03
 CCSD(T)
 CCSD(T)= -0.15255567133D+03

 The electronic state is 1-A'.
 Alpha  occ. eigenvalues --  -20.51277 -20.51215  -1.34152  -1.27405  -0.69671
 Alpha  occ. eigenvalues --   -0.66370  -0.64380  -0.50900  -0.43677  -0.37529
 Alpha virt. eigenvalues --    0.14598   0.19151   0.20127   0.23059   0.50760
 Alpha virt. eigenvalues --    0.58865   0.59187   0.66895   0.68424   0.79108
 Alpha virt. eigenvalues --    0.80260   0.83865   0.84237   0.86293   0.87839

 Mulliken charges:
               1
     1  O   -0.387527
     2  H    0.188667
     3  H    0.198709
     4  O   -0.380236
     5  H    0.171287
     6  H    0.209100
 Sum of Mulliken charges =  -0.00000

 Dipole moment (field-independent basis, Debye):
    X=             -0.3176    Y=             -0.0541    Z=              0.0000  Tot=              0.3222
 Quadrupole moment (field-independent basis, Debye-Ang):
   XX=             -8.4040   YY=             -7.6521   ZZ=            -14.7581
   XY=             -0.1235   XZ=              0.0000   YZ=              0.0000

 Normal termination of Gaussian 16 at Fri Aug 26 13:24:08 2022.
