 Gaussian 16, Revision A.03,
 Gaussian 16:  ES64L-G16RevA.03 25-Dec-2016

 ------------------
 #p CCSD(T)/cc-pVTZ
 ------------------

 ------------
 H2O_H2O_4105
 ------------
 Symbolic Z-matrix:
 Charge =  0 Multiplicity = 1

                         Standard orientation:
 ---------------------------------------------------------------------
 Center     Atomic      Atomic             Coordinates (Angstroms)
 Number     Number       Type             X           Y           Z
 ---------------------------------------------------------------------
      1          8           0        0.018360   -2.980846    0.000000
      2          1           0       -0.781513   -3.551555    0.000000
      3          1           0        0.817628   -3.552402    0.000000
      4          8           0        0.018360    2.986889    0.000000
      5          1           0        0.592337    3.784421    0.000000
      6          1           0       -0.922212    3.271196    0.000000
 ---------------------------------------------------------------------

 SCF Done:  E(RHF) =  -152.106744199     A.U. after   10 cycles
 E2 =    -0.5259418371D+00 EUMP2 =    -0.15263268603623D+03
 CCSD(T)
 CCSD(T)= -0.15265992002D+03

 The electronic state is 1-A'.
 Alpha  occ. eigenvalues --  -20.55168 -20.55129  -1.32464  -1.32424  -0.69871
 Alpha  occ. eigenvalues --   -0.69831  -0.55880  -0.55841  -0.49570  -0.49531
 Alpha virt. eigenvalues --    0.14434   0.14512   0.20489   0.20540   0.54696
 Alpha virt. eigenvalues --    0.54744   0.57557   0.57599   0.68293   0.68470
 Alpha virt. eigenvalues --    0.79308   0.79347   0.80753   0.80797   0.82684

 Mulliken charges:
               1
     1  O   -0.504954
     2  H    0.251988
     3  H    0.252967
     4  O   -0.504907
     5  H    0.251767
     6  H    0.253140
 Sum of Mulliken charges =  -0.00000

 Dipole moment (field-independent basis, Debye):
    X=             -0.6302    Y=             -0.1056    Z=              0.0000  Tot=              0.6390
 Quadrupole moment (field-independent basis, Debye-Ang):
   XX=             -8.0169   YY=             11.4074   ZZ=            -14.7106
   XY=             -1.3428   XZ=              0.0000   YZ=              0.0000

 Normal termination of Gaussian 16 at Sat Aug 27 05:24:33 2022.
