 Gaussian 16, Revision A.03,
 Gaussian 16:  ES64L-G16RevA.03 25-Dec-2016

 ------------------
 #p CCSD(T)/cc-pVTZ
 ------------------

 ------------
 H2O_H2O_3874
 ------------
 Symbolic Z-matrix:
 Charge =  0 Multiplicity = 1

                         Standard orientation:
 ---------------------------------------------------------------------
 Center     Atomic      Atomic             Coordinates (Angstroms)
 Number     Number       Type             X           Y           Z
 ---------------------------------------------------------------------
      1          8           0        0.057212   -2.789242    0.000000
      2          1           0       -0.743345   -3.358992    0.000000
      3          1           0        0.855795   -3.361755    0.000000
      4          8           0        0.057212    2.903271    0.000000
      5          1           0       -0.512538    3.703828    0.000000
      6          1           0       -0.515301    2.104687    0.000000
 ---------------------------------------------------------------------

 SCF Done:  E(RHF) =  -152.107828875     A.U. after   10 cycles
 E2 =    -0.5258601224D+00 EUMP2 =    -0.15263368899713D+03
 CCSD(T)
 CCSD(T)= -0.15266089855D+03

 The electronic state is 1-A'.
 Alpha  occ. eigenvalues --  -20.55827 -20.55004  -1.33127  -1.32305  -0.70532
 Alpha  occ. eigenvalues --   -0.69700  -0.56594  -0.55762  -0.50241  -0.49422
 Alpha virt. eigenvalues --    0.13753   0.14783   0.19973   0.20896   0.54017
 Alpha virt. eigenvalues --    0.54843   0.56979   0.57767   0.67309   0.68679
 Alpha virt. eigenvalues --    0.78642   0.79442   0.80053   0.80597   0.82479

 Mulliken charges:
               1
     1  O   -0.511337
     2  H    0.254116
     3  H    0.257267
     4  O   -0.510741
     5  H    0.251791
     6  H    0.258904
 Sum of Mulliken charges =  -0.00000

 Dipole moment (field-independent basis, Debye):
    X=             -1.9633    Y=             -2.0034    Z=              0.0000  Tot=              2.8050
 Quadrupole moment (field-independent basis, Debye-Ang):
   XX=             -9.8637   YY=              1.2712   ZZ=            -14.7132
   XY=             -5.8607   XZ=              0.0000   YZ=              0.0000

 Normal termination of Gaussian 16 at Sat Aug 27 03:57:27 2022.
