 Gaussian 16, Revision A.03,
 Gaussian 16:  ES64L-G16RevA.03 25-Dec-2016

 ------------------
 #p CCSD(T)/cc-pVTZ
 ------------------

 -----------
 H2O_H2O_768
 -----------
 Symbolic Z-matrix:
 Charge =  0 Multiplicity = 1

                         Standard orientation:
 ---------------------------------------------------------------------
 Center     Atomic      Atomic             Coordinates (Angstroms)
 Number     Number       Type             X           Y           Z
 ---------------------------------------------------------------------
      1          8           0        0.052899   -1.164393    0.000000
      2          1           0       -0.748829   -1.732493    0.000000
      3          1           0        0.850301   -1.738549    0.000000
      4          8           0        0.052899    1.234506    0.000000
      5          1           0       -0.165148    2.192610    0.000000
      6          1           0       -0.782705    0.717523    0.000000
 ---------------------------------------------------------------------

 SCF Done:  E(RHF) =  -152.095363461     A.U. after   11 cycles
 E2 =    -0.5303419271D+00 EUMP2 =    -0.15262570538800D+03
 CCSD(T)
 CCSD(T)= -0.15265277054D+03

 The electronic state is 1-A'.
 Alpha  occ. eigenvalues --  -20.55295 -20.52413  -1.33211  -1.29685  -0.70592
 Alpha  occ. eigenvalues --   -0.68097  -0.55984  -0.52304  -0.50281  -0.46678
 Alpha virt. eigenvalues --    0.13560   0.17878   0.19820   0.24491   0.52198
 Alpha virt. eigenvalues --    0.57024   0.59674   0.60653   0.71369   0.74483
 Alpha virt. eigenvalues --    0.77813   0.82949   0.83410   0.84537   0.86668

 Mulliken charges:
               1
     1  O   -0.460871
     2  H    0.227013
     3  H    0.246180
     4  O   -0.474645
     5  H    0.209737
     6  H    0.252587
 Sum of Mulliken charges =  -0.00000

 Dipole moment (field-independent basis, Debye):
    X=             -1.6337    Y=             -1.4258    Z=              0.0000  Tot=              2.1684
 Quadrupole moment (field-independent basis, Debye-Ang):
   XX=             -9.6167   YY=             -4.4101   ZZ=            -14.7214
   XY=             -1.7866   XZ=              0.0000   YZ=              0.0000

 Normal termination of Gaussian 16 at Fri Aug 26 19:48:46 2022.
