 Gaussian 16, Revision A.03,
 Gaussian 16:  ES64L-G16RevA.03 25-Dec-2016

 ------------------
 #p CCSD(T)/cc-pVTZ
 ------------------

 ------------
 H2O_H2O_2711
 ------------
 Symbolic Z-matrix:
 Charge =  0 Multiplicity = 1

                         Standard orientation:
 ---------------------------------------------------------------------
 Center     Atomic      Atomic             Coordinates (Angstroms)
 Number     Number       Type             X           Y           Z
 ---------------------------------------------------------------------
      1          8           0        0.037678   -2.224221    0.000000
      2          1           0       -0.762719   -2.794194    0.000000
      3          1           0        0.836421   -2.796510    0.000000
      4          8           0        0.037678    2.252458    0.000000
      5          1           0        0.263639    3.208726    0.000000
      6          1           0       -0.940187    2.156080    0.000000
 ---------------------------------------------------------------------

 SCF Done:  E(RHF) =  -152.106300858     A.U. after   10 cycles
 E2 =    -0.5260765984D+00 EUMP2 =    -0.15263237745674D+03
 CCSD(T)
 CCSD(T)= -0.15265961246D+03

 The electronic state is 1-A'.
 Alpha  occ. eigenvalues --  -20.55061 -20.54725  -1.32352  -1.32012  -0.69763
 Alpha  occ. eigenvalues --   -0.69411  -0.55746  -0.55399  -0.49456  -0.49119
 Alpha virt. eigenvalues --    0.14028   0.15283   0.20413   0.21058   0.54406
 Alpha virt. eigenvalues --    0.55218   0.57624   0.57951   0.65855   0.72066
 Alpha virt. eigenvalues --    0.79391   0.79780   0.80707   0.81386   0.82660

 Mulliken charges:
               1
     1  O   -0.501998
     2  H    0.248827
     3  H    0.253301
     4  O   -0.501574
     5  H    0.247587
     6  H    0.253857
 Sum of Mulliken charges =  -0.00000

 Dipole moment (field-independent basis, Debye):
    X=             -1.2819    Y=             -0.5039    Z=              0.0000  Tot=              1.3774
 Quadrupole moment (field-independent basis, Debye-Ang):
   XX=             -8.7057   YY=              4.4642   ZZ=            -14.7107
   XY=             -2.0688   XZ=              0.0000   YZ=              0.0000

 Normal termination of Gaussian 16 at Fri Aug 26 15:20:34 2022.
