 Gaussian 16, Revision A.03,
 Gaussian 16:  ES64L-G16RevA.03 25-Dec-2016

 ------------------
 #p CCSD(T)/cc-pVTZ
 ------------------

 ------------
 H2O_H2O_1248
 ------------
 Symbolic Z-matrix:
 Charge =  0 Multiplicity = 1

                         Standard orientation:
 ---------------------------------------------------------------------
 Center     Atomic      Atomic             Coordinates (Angstroms)
 Number     Number       Type             X           Y           Z
 ---------------------------------------------------------------------
      1          8           0        0.057171   -1.397327    0.000000
      2          1           0       -0.744327   -1.965751    0.000000
      3          1           0        0.854806   -1.971160    0.000000
      4          8           0        0.057171    1.503697    0.000000
      5          1           0       -0.457616    2.340656    0.000000
      6          1           0       -0.567602    0.745299    0.000000
 ---------------------------------------------------------------------

 SCF Done:  E(RHF) =  -152.108762508     A.U. after   10 cycles
 E2 =    -0.5278824311D+00 EUMP2 =    -0.15263664493929D+03
 CCSD(T)
 CCSD(T)= -0.15266369226D+03

 The electronic state is 1-A'.
 Alpha  occ. eigenvalues --  -20.56673 -20.52922  -1.34049  -1.30279  -0.71430
 Alpha  occ. eigenvalues --   -0.68010  -0.57241  -0.53795  -0.51151  -0.47403
 Alpha virt. eigenvalues --    0.12969   0.17529   0.19513   0.25921   0.51663
 Alpha virt. eigenvalues --    0.56181   0.57023   0.59281   0.69607   0.74430
 Alpha virt. eigenvalues --    0.74636   0.78499   0.82182   0.83381   0.83937

 Mulliken charges:
               1
     1  O   -0.488394
     2  H    0.244298
     3  H    0.260029
     4  O   -0.516724
     5  H    0.233990
     6  H    0.266800
 Sum of Mulliken charges =  -0.00000

 Dipole moment (field-independent basis, Debye):
    X=             -1.8560    Y=             -2.1379    Z=              0.0000  Tot=              2.8311
 Quadrupole moment (field-independent basis, Debye-Ang):
   XX=             -9.8529   YY=             -4.1372   ZZ=            -14.7274
   XY=             -3.0473   XZ=              0.0000   YZ=              0.0000

 Normal termination of Gaussian 16 at Sat Aug 27 03:21:06 2022.
