 Gaussian 16, Revision A.03,
 Gaussian 16:  ES64L-G16RevA.03 25-Dec-2016

 ------------------
 #p CCSD(T)/cc-pVTZ
 ------------------

 -----------
 H2O_H2O_642
 -----------
 Symbolic Z-matrix:
 Charge =  0 Multiplicity = 1

                         Standard orientation:
 ---------------------------------------------------------------------
 Center     Atomic      Atomic             Coordinates (Angstroms)
 Number     Number       Type             X           Y           Z
 ---------------------------------------------------------------------
      1          8           0        0.051347   -1.101610    0.000000
      2          1           0       -0.750440   -1.669627    0.000000
      3          1           0        0.848689   -1.675849    0.000000
      4          8           0        0.051347    1.164916    0.000000
      5          1           0       -0.103470    2.135245    0.000000
      6          1           0       -0.816328    0.703781    0.000000
 ---------------------------------------------------------------------

 SCF Done:  E(RHF) =  -152.087489622     A.U. after   11 cycles
 E2 =    -0.5315556766D+00 EUMP2 =    -0.15261904529898D+03
 CCSD(T)
 CCSD(T)= -0.15264607218D+03

 The electronic state is 1-A'.
 Alpha  occ. eigenvalues --  -20.54851 -20.52203  -1.33154  -1.29410  -0.70511
 Alpha  occ. eigenvalues --   -0.68179  -0.56102  -0.51141  -0.50198  -0.46335
 Alpha virt. eigenvalues --    0.13694   0.18002   0.19870   0.24334   0.52304
 Alpha virt. eigenvalues --    0.57123   0.59576   0.61614   0.71526   0.74775
 Alpha virt. eigenvalues --    0.78724   0.82995   0.83416   0.84610   0.87669

 Mulliken charges:
               1
     1  O   -0.451142
     2  H    0.220644
     3  H    0.240833
     4  O   -0.458883
     5  H    0.199533
     6  H    0.249016
 Sum of Mulliken charges =  -0.00000

 Dipole moment (field-independent basis, Debye):
    X=             -1.5561    Y=             -1.2904    Z=              0.0000  Tot=              2.0216
 Quadrupole moment (field-independent basis, Debye-Ang):
   XX=             -9.5398   YY=             -4.8053   ZZ=            -14.7182
   XY=             -1.5137   XZ=              0.0000   YZ=              0.0000

 Normal termination of Gaussian 16 at Fri Aug 26 18:36:23 2022.
