 Gaussian 16, Revision A.03,
 Gaussian 16:  ES64L-G16RevA.03 25-Dec-2016

 ------------------
 #p CCSD(T)/cc-pVTZ
 ------------------

 ------------
 H2O_H2O_1991
 ------------
 Symbolic Z-matrix:
 Charge =  0 Multiplicity = 1

                         Standard orientation:
 ---------------------------------------------------------------------
 Center     Atomic      Atomic             Coordinates (Angstroms)
 Number     Number       Type             X           Y           Z
 ---------------------------------------------------------------------
      1          8           0        0.049527   -1.823080    0.000000
      2          1           0       -0.751355   -2.392371    0.000000
      3          1           0        0.847782   -2.396049    0.000000
      4          8           0        0.049527    1.879965    0.000000
      5          1           0       -0.043053    2.858196    0.000000
      6          1           0       -0.845806    1.475140    0.000000
 ---------------------------------------------------------------------

 SCF Done:  E(RHF) =  -152.106757236     A.U. after   10 cycles
 E2 =    -0.5264010442D+00 EUMP2 =    -0.15263315828029D+03
 CCSD(T)
 CCSD(T)= -0.15266035159D+03

 The electronic state is 1-A'.
 Alpha  occ. eigenvalues --  -20.55339 -20.54265  -1.32615  -1.31539  -0.70031
 Alpha  occ. eigenvalues --   -0.68917  -0.56020  -0.54914  -0.49725  -0.48655
 Alpha virt. eigenvalues --    0.13501   0.16138   0.20133   0.22202   0.53695
 Alpha virt. eigenvalues --    0.54684   0.57424   0.58516   0.64464   0.76022
 Alpha virt. eigenvalues --    0.78706   0.78820   0.80451   0.80588   0.84994

 Mulliken charges:
               1
     1  O   -0.497305
     2  H    0.245100
     3  H    0.254321
     4  O   -0.500905
     5  H    0.242169
     6  H    0.256620
 Sum of Mulliken charges =  -0.00000

 Dipole moment (field-independent basis, Debye):
    X=             -1.6614    Y=             -1.0507    Z=              0.0000  Tot=              1.9657
 Quadrupole moment (field-independent basis, Debye-Ang):
   XX=             -9.3566   YY=              0.4652   ZZ=            -14.7140
   XY=             -2.5222   XZ=              0.0000   YZ=              0.0000

 Normal termination of Gaussian 16 at Sat Aug 27 07:57:56 2022.
