 Gaussian 16, Revision A.03,
 Gaussian 16:  ES64L-G16RevA.03 25-Dec-2016

 ------------------
 #p CCSD(T)/cc-pVTZ
 ------------------

 -----------
 H2O_H2O_499
 -----------
 Symbolic Z-matrix:
 Charge =  0 Multiplicity = 1

                         Standard orientation:
 ---------------------------------------------------------------------
 Center     Atomic      Atomic             Coordinates (Angstroms)
 Number     Number       Type             X           Y           Z
 ---------------------------------------------------------------------
      1          8           0        0.057380   -0.994471    0.000000
      2          1           0       -0.744854   -1.561857    0.000000
      3          1           0        0.854271   -1.569336    0.000000
      4          8           0        0.057380    1.108161    0.000000
      5          1           0       -0.510007    1.910396    0.000000
      6          1           0       -0.517485    0.311270    0.000000
 ---------------------------------------------------------------------

 SCF Done:  E(RHF) =  -152.062916390     A.U. after   11 cycles
 E2 =    -0.5362714875D+00 EUMP2 =    -0.15259918787789D+03
 CCSD(T)
 CCSD(T)= -0.15262532207D+03

 The electronic state is 1-A'.
 Alpha  occ. eigenvalues --  -20.57564 -20.49071  -1.37401  -1.27266  -0.74813
 Alpha  occ. eigenvalues --   -0.71010  -0.53602  -0.52752  -0.50808  -0.44190
 Alpha virt. eigenvalues --    0.12560   0.18494   0.19595   0.28001   0.48857
 Alpha virt. eigenvalues --    0.54438   0.62593   0.67522   0.71844   0.74041
 Alpha virt. eigenvalues --    0.76686   0.80512   0.83576   0.85153   0.87407

 Mulliken charges:
               1
     1  O   -0.383115
     2  H    0.212886
     3  H    0.243474
     4  O   -0.537781
     5  H    0.196083
     6  H    0.268453
 Sum of Mulliken charges =  -0.00000

 Dipole moment (field-independent basis, Debye):
    X=             -1.6888    Y=             -2.7828    Z=              0.0000  Tot=              3.2552
 Quadrupole moment (field-independent basis, Debye-Ang):
   XX=             -9.8239   YY=             -6.9921   ZZ=            -14.6453
   XY=             -2.4167   XZ=              0.0000   YZ=              0.0000

 Normal termination of Gaussian 16 at Fri Aug 26 17:04:37 2022.
