 Gaussian 16, Revision A.03,
 Gaussian 16:  ES64L-G16RevA.03 25-Dec-2016

 ------------------
 #p CCSD(T)/cc-pVTZ
 ------------------

 ------------
 H2O_H2O_2840
 ------------
 Symbolic Z-matrix:
 Charge =  0 Multiplicity = 1

                         Standard orientation:
 ---------------------------------------------------------------------
 Center     Atomic      Atomic             Coordinates (Angstroms)
 Number     Number       Type             X           Y           Z
 ---------------------------------------------------------------------
      1          8           0        0.047533   -2.278557    0.000000
      2          1           0       -0.753050   -2.848269    0.000000
      3          1           0        0.846089   -2.851107    0.000000
      4          8           0        0.047533    2.329154    0.000000
      5          1           0        0.018615    3.311330    0.000000
      6          1           0       -0.872179    1.983270    0.000000
 ---------------------------------------------------------------------

 SCF Done:  E(RHF) =  -152.106860543     A.U. after   10 cycles
 E2 =    -0.5260209652D+00 EUMP2 =    -0.15263288150786D+03
 CCSD(T)
 CCSD(T)= -0.15266010470D+03

 The electronic state is 1-A'.
 Alpha  occ. eigenvalues --  -20.55323 -20.54744  -1.32615  -1.32034  -0.70025
 Alpha  occ. eigenvalues --   -0.69426  -0.56032  -0.55453  -0.49723  -0.49146
 Alpha virt. eigenvalues --    0.13820   0.15262   0.20254   0.21152   0.54282
 Alpha virt. eigenvalues --    0.55019   0.57423   0.57928   0.66464   0.71397
 Alpha virt. eigenvalues --    0.79151   0.79728   0.80362   0.81398   0.82973

 Mulliken charges:
               1
     1  O   -0.505075
     2  H    0.250053
     3  H    0.255261
     4  O   -0.504809
     5  H    0.248180
     6  H    0.256390
 Sum of Mulliken charges =  -0.00000

 Dipole moment (field-independent basis, Debye):
    X=             -1.6197    Y=             -0.9021    Z=              0.0000  Tot=              1.8539
 Quadrupole moment (field-independent basis, Debye-Ang):
   XX=             -9.2274   YY=              3.6366   ZZ=            -14.7118
   XY=             -3.0486   XZ=              0.0000   YZ=              0.0000

 Normal termination of Gaussian 16 at Fri Aug 26 16:40:09 2022.
