 Gaussian 16, Revision A.03,
 Gaussian 16:  ES64L-G16RevA.03 25-Dec-2016

 ------------------
 #p CCSD(T)/cc-pVTZ
 ------------------

 ------------
 H2O_H2O_4575
 ------------
 Symbolic Z-matrix:
 Charge =  0 Multiplicity = 1

                         Standard orientation:
 ---------------------------------------------------------------------
 Center     Atomic      Atomic             Coordinates (Angstroms)
 Number     Number       Type             X           Y           Z
 ---------------------------------------------------------------------
      1          8           0        0.000000   -0.000000    3.236751
      2          1           0        0.000000    0.799571    3.807883
      3          1           0       -0.000000   -0.799571    3.807883
      4          8           0        0.000000   -0.000000   -3.236751
      5          1           0       -0.000000   -0.799571   -3.807883
      6          1           0        0.000000    0.799571   -3.807883
 ---------------------------------------------------------------------

 SCF Done:  E(RHF) =  -152.106860682     A.U. after   10 cycles
 E2 =    -0.5259247967D+00 EUMP2 =    -0.15263278547896D+03
 CCSD(T)
 CCSD(T)= -0.15266001739D+03

 The electronic state is 1-AG.
 Alpha  occ. eigenvalues --  -20.55209 -20.55209  -1.32505  -1.32505  -0.69912
 Alpha  occ. eigenvalues --   -0.69912  -0.55927  -0.55927  -0.49613  -0.49613
 Alpha virt. eigenvalues --    0.14414   0.14431   0.20465   0.20473   0.54655
 Alpha virt. eigenvalues --    0.54659   0.57524   0.57528   0.68289   0.68321
 Alpha virt. eigenvalues --    0.79266   0.79266   0.80709   0.80710   0.82636

 Mulliken charges:
               1
     1  O   -0.505634
     2  H    0.252817
     3  H    0.252817
     4  O   -0.505634
     5  H    0.252817
     6  H    0.252817
 Sum of Mulliken charges =  -0.00000

 Dipole moment (field-independent basis, Debye):
    X=             -0.0000    Y=              0.0000    Z=              0.0000  Tot=              0.0000
 Quadrupole moment (field-independent basis, Debye-Ang):
   XX=            -14.7107   YY=             -7.8022   ZZ=             13.8596
   XY=              0.0000   XZ=              0.0000   YZ=             -0.0000

 4DQ=-152.6419118\MP4SDQ=-152.6449715\CCSD=-152.6443833\CCSD(T)=-152.66
 Normal termination of Gaussian 16 at Sat Aug 27 08:08:12 2022.
