 Gaussian 16, Revision A.03,
 Gaussian 16:  ES64L-G16RevA.03 25-Dec-2016

 ------------------
 #p CCSD(T)/cc-pVTZ
 ------------------

 ------------
 H2O_H2O_2479
 ------------
 Symbolic Z-matrix:
 Charge =  0 Multiplicity = 1

                         Standard orientation:
 ---------------------------------------------------------------------
 Center     Atomic      Atomic             Coordinates (Angstroms)
 Number     Number       Type             X           Y           Z
 ---------------------------------------------------------------------
      1          8           0        0.014783   -2.117790    0.000000
      2          1           0       -0.785131   -2.688442    0.000000
      3          1           0        0.814011   -2.689402    0.000000
      4          8           0        0.014783    2.121664    0.000000
      5          1           0        0.639745    2.879904    0.000000
      6          1           0       -0.905157    2.466943    0.000000
 ---------------------------------------------------------------------

 SCF Done:  E(RHF) =  -152.105517012     A.U. after   10 cycles
 E2 =    -0.5261821510D+00 EUMP2 =    -0.15263169916253D+03
 CCSD(T)
 CCSD(T)= -0.15265894727D+03

 The electronic state is 1-A'.
 Alpha  occ. eigenvalues --  -20.54711 -20.54660  -1.31999  -1.31946  -0.69413
 Alpha  occ. eigenvalues --   -0.69359  -0.55426  -0.55211  -0.49100  -0.49043
 Alpha virt. eigenvalues --    0.14235   0.15401   0.20609   0.21010   0.54561
 Alpha virt. eigenvalues --    0.55712   0.57842   0.58042   0.64032   0.73420
 Alpha virt. eigenvalues --    0.79591   0.80004   0.81068   0.81278   0.81993

 Mulliken charges:
               1
     1  O   -0.497210
     2  H    0.247610
     3  H    0.249627
     4  O   -0.497080
     5  H    0.247291
     6  H    0.249762
 Sum of Mulliken charges =  -0.00000

 Dipole moment (field-independent basis, Debye):
    X=             -0.5014    Y=             -0.0695    Z=              0.0000  Tot=              0.5062
 Quadrupole moment (field-independent basis, Debye-Ang):
   XX=             -7.9645   YY=              4.6865   ZZ=            -14.7096
   XY=             -0.6400   XZ=              0.0000   YZ=              0.0000

 Normal termination of Gaussian 16 at Sat Aug 27 10:47:09 2022.
