 Gaussian 16, Revision A.03,
 Gaussian 16:  ES64L-G16RevA.03 25-Dec-2016

 ------------------
 #p CCSD(T)/cc-pVTZ
 ------------------

 -----------
 H2O_H2O_513
 -----------
 Symbolic Z-matrix:
 Charge =  0 Multiplicity = 1

                         Standard orientation:
 ---------------------------------------------------------------------
 Center     Atomic      Atomic             Coordinates (Angstroms)
 Number     Number       Type             X           Y           Z
 ---------------------------------------------------------------------
      1          8           0        0.043007   -1.048541    0.000000
      2          1           0       -0.758536   -1.616902    0.000000
      3          1           0        0.840596   -1.622438    0.000000
      4          8           0        0.043007    1.087155    0.000000
      5          1           0        0.144185    2.064534    0.000000
      6          1           0       -0.914359    0.865892    0.000000
 ---------------------------------------------------------------------

 SCF Done:  E(RHF) =  -152.074990134     A.U. after   11 cycles
 E2 =    -0.5328271767D+00 EUMP2 =    -0.15260781731101D+03
 CCSD(T)
 CCSD(T)= -0.15263482339D+03

 The electronic state is 1-A'.
 Alpha  occ. eigenvalues --  -20.53620 -20.52207  -1.32519  -1.29179  -0.69721
 Alpha  occ. eigenvalues --   -0.67786  -0.57650  -0.49642  -0.48307  -0.45920
 Alpha virt. eigenvalues --    0.14119   0.17953   0.20128   0.23610   0.53158
 Alpha virt. eigenvalues --    0.57605   0.58364   0.62685   0.71371   0.75939
 Alpha virt. eigenvalues --    0.79374   0.81691   0.83357   0.85384   0.87984

 Mulliken charges:
               1
     1  O   -0.449201
     2  H    0.215236
     3  H    0.234734
     4  O   -0.427640
     5  H    0.186248
     6  H    0.240624
 Sum of Mulliken charges =  -0.00000

 Dipole moment (field-independent basis, Debye):
    X=             -1.2750    Y=             -0.7772    Z=              0.0000  Tot=              1.4932
 Quadrupole moment (field-independent basis, Debye-Ang):
   XX=             -9.1281   YY=             -5.0552   ZZ=            -14.7240
   XY=             -0.8640   XZ=              0.0000   YZ=              0.0000

 Normal termination of Gaussian 16 at Fri Aug 26 17:12:46 2022.
