 Gaussian 16, Revision A.03,
 Gaussian 16:  ES64L-G16RevA.03 25-Dec-2016

 ------------------
 #p CCSD(T)/cc-pVTZ
 ------------------

 ------------
 H2O_H2O_1281
 ------------
 Symbolic Z-matrix:
 Charge =  0 Multiplicity = 1

                         Standard orientation:
 ---------------------------------------------------------------------
 Center     Atomic      Atomic             Coordinates (Angstroms)
 Number     Number       Type             X           Y           Z
 ---------------------------------------------------------------------
      1          8           0        0.021862   -1.476998    0.000000
      2          1           0       -0.778434   -2.047113    0.000000
      3          1           0        0.820707   -2.049145    0.000000
      4          8           0        0.021862    1.485637    0.000000
      5          1           0        0.543065    2.318616    0.000000
      6          1           0       -0.935126    1.708528    0.000000
 ---------------------------------------------------------------------

 SCF Done:  E(RHF) =  -152.101491912     A.U. after   11 cycles
 E2 =    -0.5274811863D+00 EUMP2 =    -0.15262897309814D+03
 CCSD(T)
 CCSD(T)= -0.15265625893D+03

 The electronic state is 1-A'.
 Alpha  occ. eigenvalues --  -20.53981 -20.53767  -1.31356  -1.31008  -0.68769
 Alpha  occ. eigenvalues --   -0.68459  -0.55718  -0.52955  -0.48548  -0.47975
 Alpha virt. eigenvalues --    0.14292   0.16766   0.20511   0.22015   0.52024
 Alpha virt. eigenvalues --    0.58331   0.58609   0.59598   0.66889   0.76587
 Alpha virt. eigenvalues --    0.77546   0.78584   0.79083   0.82796   0.86013

 Mulliken charges:
               1
     1  O   -0.474054
     2  H    0.233347
     3  H    0.240843
     4  O   -0.470779
     5  H    0.231511
     6  H    0.239131
 Sum of Mulliken charges =  -0.00000

 Dipole moment (field-independent basis, Debye):
    X=             -0.7127    Y=             -0.1635    Z=              0.0000  Tot=              0.7312
 Quadrupole moment (field-independent basis, Debye-Ang):
   XX=             -8.1948   YY=             -0.7513   ZZ=            -14.7119
   XY=             -0.5193   XZ=              0.0000   YZ=              0.0000

 Normal termination of Gaussian 16 at Sat Aug 27 03:35:58 2022.
