 Gaussian 16, Revision A.03,
 Gaussian 16:  ES64L-G16RevA.03 25-Dec-2016

 ------------------
 #p CCSD(T)/cc-pVTZ
 ------------------

 ------------
 H2O_H2O_2984
 ------------
 Symbolic Z-matrix:
 Charge =  0 Multiplicity = 1

                         Standard orientation:
 ---------------------------------------------------------------------
 Center     Atomic      Atomic             Coordinates (Angstroms)
 Number     Number       Type             X           Y           Z
 ---------------------------------------------------------------------
      1          8           0        0.031741   -2.375396    0.000000
      2          1           0       -0.768483   -2.945612    0.000000
      3          1           0        0.830658   -2.947443    0.000000
      4          8           0        0.031741    2.394574    0.000000
      5          1           0        0.380309    3.313272    0.000000
      6          1           0       -0.950346    2.426360    0.000000
 ---------------------------------------------------------------------

 SCF Done:  E(RHF) =  -152.106307951     A.U. after   10 cycles
 E2 =    -0.5260313707D+00 EUMP2 =    -0.15263233932172D+03
 CCSD(T)
 CCSD(T)= -0.15265957880D+03

 The electronic state is 1-A'.
 Alpha  occ. eigenvalues --  -20.55034 -20.54837  -1.32327  -1.32128  -0.69738
 Alpha  occ. eigenvalues --   -0.69531  -0.55722  -0.55520  -0.49431  -0.49233
 Alpha virt. eigenvalues --    0.14240   0.15027   0.20485   0.20866   0.54666
 Alpha virt. eigenvalues --    0.55132   0.57644   0.57861   0.66848   0.70590
 Alpha virt. eigenvalues --    0.79437   0.79648   0.80837   0.81187   0.82655

 Mulliken charges:
               1
     1  O   -0.502370
     2  H    0.249613
     3  H    0.252787
     4  O   -0.502025
     5  H    0.248817
     6  H    0.253179
 Sum of Mulliken charges =  -0.00000

 Dipole moment (field-independent basis, Debye):
    X=             -1.0829    Y=             -0.3397    Z=              0.0000  Tot=              1.1349
 Quadrupole moment (field-independent basis, Debye-Ang):
   XX=             -8.4459   YY=              6.0147   ZZ=            -14.7104
   XY=             -1.8091   XZ=              0.0000   YZ=              0.0000

 Normal termination of Gaussian 16 at Fri Aug 26 18:08:14 2022.
