 Gaussian 16, Revision A.03,
 Gaussian 16:  ES64L-G16RevA.03 25-Dec-2016

 ------------------
 #p CCSD(T)/cc-pVTZ
 ------------------

 ------------
 H2O_H2O_3436
 ------------
 Symbolic Z-matrix:
 Charge =  0 Multiplicity = 1

                         Standard orientation:
 ---------------------------------------------------------------------
 Center     Atomic      Atomic             Coordinates (Angstroms)
 Number     Number       Type             X           Y           Z
 ---------------------------------------------------------------------
      1          8           0        0.037675   -2.609794    0.000000
      2          1           0       -0.762601   -3.179938    0.000000
      3          1           0        0.836540   -3.181913    0.000000
      4          8           0        0.037675    2.638047    0.000000
      5          1           0        0.263432    3.594363    0.000000
      6          1           0       -0.940169    2.541461    0.000000
 ---------------------------------------------------------------------

 SCF Done:  E(RHF) =  -152.106706779     A.U. after   10 cycles
 E2 =    -0.5259669603D+00 EUMP2 =    -0.15263267373926D+03
 CCSD(T)
 CCSD(T)= -0.15265990710D+03

 The electronic state is 1-A'.
 Alpha  occ. eigenvalues --  -20.55205 -20.54966  -1.32501  -1.32259  -0.69909
 Alpha  occ. eigenvalues --   -0.69660  -0.55914  -0.55674  -0.49607  -0.49367
 Alpha virt. eigenvalues --    0.14278   0.14772   0.20417   0.20742   0.54626
 Alpha virt. eigenvalues --    0.54935   0.57513   0.57759   0.67790   0.69158
 Alpha virt. eigenvalues --    0.79271   0.79507   0.80702   0.80980   0.82697

 Mulliken charges:
               1
     1  O   -0.504767
     2  H    0.250941
     3  H    0.253835
     4  O   -0.504459
     5  H    0.250084
     6  H    0.254366
 Sum of Mulliken charges =  -0.00000

 Dipole moment (field-independent basis, Debye):
    X=             -1.2896    Y=             -0.4973    Z=              0.0000  Tot=              1.3821
 Quadrupole moment (field-independent basis, Debye-Ang):
   XX=             -8.6996   YY=              7.2011   ZZ=            -14.7108
   XY=             -2.5588   XZ=              0.0000   YZ=              0.0000

 Normal termination of Gaussian 16 at Fri Aug 26 22:19:08 2022.
