 Gaussian 16, Revision A.03,
 Gaussian 16:  ES64L-G16RevA.03 25-Dec-2016

 ------------------
 #p CCSD(T)/cc-pVTZ
 ------------------

 -----------
 H2O_H2O_431
 -----------
 Symbolic Z-matrix:
 Charge =  0 Multiplicity = 1

                         Standard orientation:
 ---------------------------------------------------------------------
 Center     Atomic      Atomic             Coordinates (Angstroms)
 Number     Number       Type             X           Y           Z
 ---------------------------------------------------------------------
      1          8           0        0.021864   -1.024949    0.000000
      2          1           0       -0.778750   -1.594619    0.000000
      3          1           0        0.820390   -1.597542    0.000000
      4          8           0        0.021864    1.033564    0.000000
      5          1           0        0.543532    1.866252    0.000000
      6          1           0       -0.934999    1.256989    0.000000
 ---------------------------------------------------------------------

 SCF Done:  E(RHF) =  -152.060642476     A.U. after   11 cycles
 E2 =    -0.5340827538D+00 EUMP2 =    -0.15259472523017D+03
 CCSD(T)
 CCSD(T)= -0.15262164772D+03

 The electronic state is 1-A'.
 Alpha  occ. eigenvalues --  -20.52272 -20.52000  -1.31880  -1.28793  -0.68700
 Alpha  occ. eigenvalues --   -0.66867  -0.59965  -0.49112  -0.45304  -0.45080
 Alpha virt. eigenvalues --    0.14559   0.18171   0.20425   0.22962   0.51350
 Alpha virt. eigenvalues --    0.58703   0.58884   0.65106   0.70072   0.77452
 Alpha virt. eigenvalues --    0.78431   0.82454   0.84134   0.86484   0.87534

 Mulliken charges:
               1
     1  O   -0.440980
     2  H    0.212935
     3  H    0.226133
     4  O   -0.422137
     5  H    0.193209
     6  H    0.230840
 Sum of Mulliken charges =  -0.00000

 Dipole moment (field-independent basis, Debye):
    X=             -0.6431    Y=             -0.1786    Z=              0.0000  Tot=              0.6674
 Quadrupole moment (field-independent basis, Debye-Ang):
   XX=             -8.3925   YY=             -5.3685   ZZ=            -14.7428
   XY=             -0.2467   XZ=              0.0000   YZ=              0.0000

 Normal termination of Gaussian 16 at Fri Aug 26 16:24:11 2022.
