 Gaussian 16, Revision A.03,
 Gaussian 16:  ES64L-G16RevA.03 25-Dec-2016

 ------------------
 #p CCSD(T)/cc-pVTZ
 ------------------

 ------------
 H2O_H2O_2235
 ------------
 Symbolic Z-matrix:
 Charge =  0 Multiplicity = 1

                         Standard orientation:
 ---------------------------------------------------------------------
 Center     Atomic      Atomic             Coordinates (Angstroms)
 Number     Number       Type             X           Y           Z
 ---------------------------------------------------------------------
      1          8           0        0.034786   -1.974171    0.000000
      2          1           0       -0.765645   -2.544098    0.000000
      3          1           0        0.833495   -2.546508    0.000000
      4          8           0        0.034786    1.997671    0.000000
      5          1           0        0.322862    2.937096    0.000000
      6          1           0       -0.947290    1.965512    0.000000
 ---------------------------------------------------------------------

 SCF Done:  E(RHF) =  -152.105765517     A.U. after   10 cycles
 E2 =    -0.5262738963D+00 EUMP2 =    -0.15263203941316D+03
 CCSD(T)
 CCSD(T)= -0.15265927079D+03

 The electronic state is 1-A'.
 Alpha  occ. eigenvalues --  -20.54874 -20.54509  -1.32157  -1.31788  -0.69573
 Alpha  occ. eigenvalues --   -0.69188  -0.55563  -0.55084  -0.49259  -0.48891
 Alpha virt. eigenvalues --    0.13919   0.15721   0.20431   0.21340   0.53745
 Alpha virt. eigenvalues --    0.55532   0.57771   0.58168   0.63617   0.74896
 Alpha virt. eigenvalues --    0.79338   0.80224   0.80237   0.81136   0.82828

 Mulliken charges:
               1
     1  O   -0.497005
     2  H    0.245894
     3  H    0.251504
     4  O   -0.496934
     5  H    0.244528
     6  H    0.252014
 Sum of Mulliken charges =  -0.00000

 Dipole moment (field-independent basis, Debye):
    X=             -1.1746    Y=             -0.4268    Z=              0.0000  Tot=              1.2498
 Quadrupole moment (field-independent basis, Debye-Ang):
   XX=             -8.5846   YY=              2.8538   ZZ=            -14.7107
   XY=             -1.5637   XZ=              0.0000   YZ=              0.0000

 Normal termination of Gaussian 16 at Sat Aug 27 09:22:10 2022.
