 Gaussian 16, Revision A.03,
 Gaussian 16:  ES64L-G16RevA.03 25-Dec-2016

 ------------------
 #p CCSD(T)/cc-pVTZ
 ------------------

 ------------
 H2O_H2O_1558
 ------------
 Symbolic Z-matrix:
 Charge =  0 Multiplicity = 1

                         Standard orientation:
 ---------------------------------------------------------------------
 Center     Atomic      Atomic             Coordinates (Angstroms)
 Number     Number       Type             X           Y           Z
 ---------------------------------------------------------------------
      1          8           0        0.028568   -1.619680    0.000000
      2          1           0       -0.771865   -2.189603    0.000000
      3          1           0        0.827275   -2.192019    0.000000
      4          8           0        0.028568    1.634897    0.000000
      5          1           0        0.436803    2.528682    0.000000
      6          1           0       -0.949303    1.731203    0.000000
 ---------------------------------------------------------------------

 SCF Done:  E(RHF) =  -152.103774195     A.U. after   10 cycles
 E2 =    -0.5269470841D+00 EUMP2 =    -0.15263072127896D+03
 CCSD(T)
 CCSD(T)= -0.15265797231D+03

 The electronic state is 1-A'.
 Alpha  occ. eigenvalues --  -20.54389 -20.54051  -1.31684  -1.31313  -0.69110
 Alpha  occ. eigenvalues --   -0.68729  -0.55500  -0.53975  -0.48814  -0.48370
 Alpha virt. eigenvalues --    0.14117   0.16426   0.20466   0.21837   0.52801
 Alpha virt. eigenvalues --    0.57244   0.58093   0.58660   0.63905   0.76945
 Alpha virt. eigenvalues --    0.78309   0.78672   0.79480   0.81870   0.85589

 Mulliken charges:
               1
     1  O   -0.481962
     2  H    0.237515
     3  H    0.245143
     4  O   -0.481066
     5  H    0.235712
     6  H    0.244658
 Sum of Mulliken charges =  -0.00000

 Dipole moment (field-independent basis, Debye):
    X=             -0.9448    Y=             -0.2854    Z=              0.0000  Tot=              0.9870
 Quadrupole moment (field-independent basis, Debye-Ang):
   XX=             -8.3744   YY=              0.3482   ZZ=            -14.7105
   XY=             -0.8709   XZ=              0.0000   YZ=              0.0000

 Normal termination of Gaussian 16 at Sat Aug 27 05:27:47 2022.
