 Gaussian 16, Revision A.03,
 Gaussian 16:  ES64L-G16RevA.03 25-Dec-2016

 ------------------
 #p CCSD(T)/cc-pVTZ
 ------------------

 ------------
 H2O_H2O_1425
 ------------
 Symbolic Z-matrix:
 Charge =  0 Multiplicity = 1

                         Standard orientation:
 ---------------------------------------------------------------------
 Center     Atomic      Atomic             Coordinates (Angstroms)
 Number     Number       Type             X           Y           Z
 ---------------------------------------------------------------------
      1          8           0        0.000000   -0.000000    1.561466
      2          1           0        0.000000    0.799571    2.132598
      3          1           0       -0.000000   -0.799571    2.132598
      4          8           0        0.000000   -0.000000   -1.561466
      5          1           0       -0.000000   -0.799571   -2.132598
      6          1           0        0.000000    0.799571   -2.132598
 ---------------------------------------------------------------------

 SCF Done:  E(RHF) =  -152.102135766     A.U. after   10 cycles
 E2 =    -0.5271689747D+00 EUMP2 =    -0.15262930474064D+03
 CCSD(T)
 CCSD(T)= -0.15265659295D+03

 The electronic state is 1-AG.
 Alpha  occ. eigenvalues --  -20.53951 -20.53951  -1.31330  -1.31165  -0.68745
 Alpha  occ. eigenvalues --   -0.68618  -0.55498  -0.53328  -0.48512  -0.48145
 Alpha virt. eigenvalues --    0.14368   0.16562   0.20578   0.21737   0.52042
 Alpha virt. eigenvalues --    0.58229   0.58611   0.59455   0.64176   0.76073
 Alpha virt. eigenvalues --    0.78114   0.78137   0.79468   0.82360   0.86064

 Mulliken charges:
               1
     1  O   -0.475088
     2  H    0.237544
     3  H    0.237544
     4  O   -0.475088
     5  H    0.237544
     6  H    0.237544
 Sum of Mulliken charges =  -0.00000

 Dipole moment (field-independent basis, Debye):
    X=             -0.0000    Y=              0.0000    Z=              0.0000  Tot=              0.0000
 Quadrupole moment (field-independent basis, Debye-Ang):
   XX=            -14.7094   YY=             -7.8869   ZZ=              0.1146
   XY=              0.0000   XZ=              0.0000   YZ=             -0.0000

 \MP4DQ=-152.6382472\MP4SDQ=-152.6413855\CCSD=-152.6407666\CCSD(T)=-152
 Normal termination of Gaussian 16 at Sat Aug 27 04:41:28 2022.
