 Gaussian 16, Revision A.03,
 Gaussian 16:  ES64L-G16RevA.03 25-Dec-2016

 ------------------
 #p CCSD(T)/cc-pVTZ
 ------------------

 -----------
 H2O_H2O_889
 -----------
 Symbolic Z-matrix:
 Charge =  0 Multiplicity = 1

                         Standard orientation:
 ---------------------------------------------------------------------
 Center     Atomic      Atomic             Coordinates (Angstroms)
 Number     Number       Type             X           Y           Z
 ---------------------------------------------------------------------
      1          8           0        0.045380   -1.244833    0.000000
      2          1           0       -0.755946   -1.813501    0.000000
      3          1           0        0.843189   -1.818423    0.000000
      4          8           0        0.045380    1.289243    0.000000
      5          1           0        0.082041    2.271161    0.000000
      6          1           0       -0.895356    1.005479    0.000000
 ---------------------------------------------------------------------

 SCF Done:  E(RHF) =  -152.098127382     A.U. after   11 cycles
 E2 =    -0.5290659052D+00 EUMP2 =    -0.15262719328681D+03
 CCSD(T)
 CCSD(T)= -0.15265439254D+03

 The electronic state is 1-A'.
 Alpha  occ. eigenvalues --  -20.54521 -20.53021  -1.32151  -1.30239  -0.69538
 Alpha  occ. eigenvalues --   -0.67940  -0.56396  -0.52045  -0.49322  -0.47197
 Alpha virt. eigenvalues --    0.13931   0.17401   0.20142   0.23372   0.53319
 Alpha virt. eigenvalues --    0.57761   0.58242   0.60018   0.70639   0.75607
 Alpha virt. eigenvalues --    0.77490   0.78867   0.83212   0.84444   0.85402

 Mulliken charges:
               1
     1  O   -0.471108
     2  H    0.228698
     3  H    0.246486
     4  O   -0.463978
     5  H    0.214234
     6  H    0.245667
 Sum of Mulliken charges =  -0.00000

 Dipole moment (field-independent basis, Debye):
    X=             -1.4230    Y=             -0.8712    Z=              0.0000  Tot=              1.6685
 Quadrupole moment (field-independent basis, Debye-Ang):
   XX=             -9.1897   YY=             -3.2559   ZZ=            -14.7237
   XY=             -1.2686   XZ=              0.0000   YZ=              0.0000

 Normal termination of Gaussian 16 at Fri Aug 26 20:53:57 2022.
