 Gaussian 16, Revision A.03,
 Gaussian 16:  ES64L-G16RevA.03 25-Dec-2016

 ------------------
 #p CCSD(T)/cc-pVTZ
 ------------------

 -----------
 H2O_H2O_149
 -----------
 Symbolic Z-matrix:
 Charge =  0 Multiplicity = 1

                         Standard orientation:
 ---------------------------------------------------------------------
 Center     Atomic      Atomic             Coordinates (Angstroms)
 Number     Number       Type             X           Y           Z
 ---------------------------------------------------------------------
      1          8           0        0.057437   -0.808388    0.000000
      2          1           0       -0.745367   -1.374967    0.000000
      3          1           0        0.853749   -1.384055    0.000000
      4          8           0        0.057437    0.921964    0.000000
      5          1           0       -0.509142    1.724767    0.000000
      6          1           0       -0.518230    0.125650    0.000000
 ---------------------------------------------------------------------

 SCF Done:  E(RHF) =  -151.917174768     A.U. after   11 cycles
 E2 =    -0.5488168564D+00 EUMP2 =    -0.15246599162457D+03
 CCSD(T)
 CCSD(T)= -0.15249022745D+03

 The electronic state is 1-A'.
 Alpha  occ. eigenvalues --  -20.58212 -20.45323  -1.44298  -1.24747  -0.81629
 Alpha  occ. eigenvalues --   -0.74320  -0.57242  -0.49219  -0.42734  -0.41449
 Alpha virt. eigenvalues --    0.12103   0.17301   0.21084   0.27789   0.47908
 Alpha virt. eigenvalues --    0.52447   0.63965   0.70376   0.73647   0.74635
 Alpha virt. eigenvalues --    0.77450   0.77694   0.84691   0.85613   0.89185

 Mulliken charges:
               1
     1  O   -0.259004
     2  H    0.176874
     3  H    0.229285
     4  O   -0.572616
     5  H    0.144997
     6  H    0.280463
 Sum of Mulliken charges =  -0.00000

 Dipole moment (field-independent basis, Debye):
    X=             -1.4856    Y=             -3.2440    Z=              0.0000  Tot=              3.5680
 Quadrupole moment (field-independent basis, Debye-Ang):
   XX=             -9.7980   YY=             -9.0119   ZZ=            -14.5014
   XY=             -2.0026   XZ=              0.0000   YZ=              0.0000

 Normal termination of Gaussian 16 at Fri Aug 26 13:21:22 2022.
