 Gaussian 16, Revision A.03,
 Gaussian 16:  ES64L-G16RevA.03 25-Dec-2016

 ------------------
 #p CCSD(T)/cc-pVTZ
 ------------------

 -----------
 H2O_H2O_522
 -----------
 Symbolic Z-matrix:
 Charge =  0 Multiplicity = 1

                         Standard orientation:
 ---------------------------------------------------------------------
 Center     Atomic      Atomic             Coordinates (Angstroms)
 Number     Number       Type             X           Y           Z
 ---------------------------------------------------------------------
      1          8           0        0.056851   -1.015854    0.000000
      2          1           0       -0.745325   -1.583322    0.000000
      3          1           0        0.853800   -1.590639    0.000000
      4          8           0        0.056851    1.114652    0.000000
      5          1           0       -0.401056    1.984035    0.000000
      6          1           0       -0.617039    0.399545    0.000000
 ---------------------------------------------------------------------

 SCF Done:  E(RHF) =  -152.070846526     A.U. after   11 cycles
 E2 =    -0.5350320896D+00 EUMP2 =    -0.15260587861588D+03
 CCSD(T)
 CCSD(T)= -0.15263235788D+03

 The electronic state is 1-A'.
 Alpha  occ. eigenvalues --  -20.56508 -20.50326  -1.35844  -1.28048  -0.73290
 Alpha  occ. eigenvalues --   -0.69851  -0.53194  -0.52364  -0.51752  -0.45012
 Alpha virt. eigenvalues --    0.12998   0.18784   0.19300   0.26637   0.49954
 Alpha virt. eigenvalues --    0.55300   0.61869   0.65135   0.72038   0.74309
 Alpha virt. eigenvalues --    0.77891   0.81401   0.83690   0.84972   0.87410

 Mulliken charges:
               1
     1  O   -0.406614
     2  H    0.211620
     3  H    0.241461
     4  O   -0.502521
     5  H    0.195113
     6  H    0.260941
 Sum of Mulliken charges =  -0.00000

 Dipole moment (field-independent basis, Debye):
    X=             -1.6846    Y=             -2.2604    Z=              0.0000  Tot=              2.8192
 Quadrupole moment (field-independent basis, Debye-Ang):
   XX=             -9.8277   YY=             -6.3600   ZZ=            -14.6731
   XY=             -2.1623   XZ=              0.0000   YZ=              0.0000

 1201\MP4DQ=-152.6129122\MP4SDQ=-152.6162922\CCSD=-152.6155714\CCSD(T)=
 Normal termination of Gaussian 16 at Fri Aug 26 17:18:20 2022.
