 Gaussian 16, Revision A.03,
 Gaussian 16:  ES64L-G16RevA.03 25-Dec-2016

 ------------------
 #p CCSD(T)/cc-pVTZ
 ------------------

 ------------
 H2O_H2O_4525
 ------------
 Symbolic Z-matrix:
 Charge =  0 Multiplicity = 1

                         Standard orientation:
 ---------------------------------------------------------------------
 Center     Atomic      Atomic             Coordinates (Angstroms)
 Number     Number       Type             X           Y           Z
 ---------------------------------------------------------------------
      1          8           0        0.000000   -0.000000    3.210159
      2          1           0        0.000000    0.799571    3.781291
      3          1           0       -0.000000   -0.799571    3.781291
      4          8           0        0.000000   -0.000000   -3.210159
      5          1           0       -0.000000   -0.799571   -3.781291
      6          1           0        0.000000    0.799571   -3.781291
 ---------------------------------------------------------------------

 SCF Done:  E(RHF) =  -152.106845054     A.U. after   10 cycles
 E2 =    -0.5259267096D+00 EUMP2 =    -0.15263277176363D+03
 CCSD(T)
 CCSD(T)= -0.15266000397D+03

 The electronic state is 1-AG.
 Alpha  occ. eigenvalues --  -20.55202 -20.55202  -1.32498  -1.32498  -0.69905
 Alpha  occ. eigenvalues --   -0.69905  -0.55919  -0.55919  -0.49605  -0.49605
 Alpha virt. eigenvalues --    0.14419   0.14438   0.20470   0.20479   0.54662
 Alpha virt. eigenvalues --    0.54667   0.57530   0.57535   0.68295   0.68334
 Alpha virt. eigenvalues --    0.79274   0.79274   0.80717   0.80718   0.82644

 Mulliken charges:
               1
     1  O   -0.505542
     2  H    0.252771
     3  H    0.252771
     4  O   -0.505542
     5  H    0.252771
     6  H    0.252771
 Sum of Mulliken charges =   0.00000

 Dipole moment (field-independent basis, Debye):
    X=             -0.0000    Y=              0.0000    Z=             -0.0000  Tot=              0.0000
 Quadrupole moment (field-independent basis, Debye-Ang):
   XX=            -14.7107   YY=             -7.8025   ZZ=             13.6469
   XY=              0.0000   XZ=              0.0000   YZ=             -0.0000

 3\MP4DQ=-152.641898\MP4SDQ=-152.6449578\CCSD=-152.6443696\CCSD(T)=-152
 Normal termination of Gaussian 16 at Sat Aug 27 07:49:03 2022.
