 Gaussian 16, Revision A.03,
 Gaussian 16:  ES64L-G16RevA.03 25-Dec-2016

 ------------------
 #p CCSD(T)/cc-pVTZ
 ------------------

 -----------
 H2O_H2O_584
 -----------
 Symbolic Z-matrix:
 Charge =  0 Multiplicity = 1

                         Standard orientation:
 ---------------------------------------------------------------------
 Center     Atomic      Atomic             Coordinates (Angstroms)
 Number     Number       Type             X           Y           Z
 ---------------------------------------------------------------------
      1          8           0        0.031754   -1.099032    0.000000
      2          1           0       -0.769222   -1.668192    0.000000
      3          1           0        0.829915   -1.672133    0.000000
      4          8           0        0.031754    1.118126    0.000000
      5          1           0        0.381533    2.036364    0.000000
      6          1           0       -0.950290    1.151207    0.000000
 ---------------------------------------------------------------------

 SCF Done:  E(RHF) =  -152.079915183     A.U. after   11 cycles
 E2 =    -0.5316218046D+00 EUMP2 =    -0.15261153698718D+03
 CCSD(T)
 CCSD(T)= -0.15263865958D+03

 The electronic state is 1-A'.
 Alpha  occ. eigenvalues --  -20.53089 -20.52462  -1.31680  -1.29461  -0.68822
 Alpha  occ. eigenvalues --   -0.67410  -0.58192  -0.48944  -0.48098  -0.46131
 Alpha virt. eigenvalues --    0.14383   0.17779   0.20378   0.23045   0.52330
 Alpha virt. eigenvalues --    0.58274   0.58509   0.63267   0.70597   0.76507
 Alpha virt. eigenvalues --    0.77905   0.81302   0.83831   0.86161   0.87533

 Mulliken charges:
               1
     1  O   -0.456469
     2  H    0.218963
     3  H    0.235594
     4  O   -0.432837
     5  H    0.197849
     6  H    0.236900
 Sum of Mulliken charges =  -0.00000

 Dipole moment (field-independent basis, Debye):
    X=             -0.9562    Y=             -0.3805    Z=              0.0000  Tot=              1.0291
 Quadrupole moment (field-independent basis, Debye-Ang):
   XX=             -8.6398   YY=             -4.4504   ZZ=            -14.7330
   XY=             -0.4989   XZ=              0.0000   YZ=              0.0000

 6016\MP4DQ=-152.6195954\MP4SDQ=-152.6229526\CCSD=-152.6222513\CCSD(T)=
 Normal termination of Gaussian 16 at Fri Aug 26 17:52:13 2022.
