 Gaussian 16, Revision A.03,
 Gaussian 16:  ES64L-G16RevA.03 25-Dec-2016

 ------------------
 #p CCSD(T)/cc-pVTZ
 ------------------

 ------------
 H2O_H2O_3131
 ------------
 Symbolic Z-matrix:
 Charge =  0 Multiplicity = 1

                         Standard orientation:
 ---------------------------------------------------------------------
 Center     Atomic      Atomic             Coordinates (Angstroms)
 Number     Number       Type             X           Y           Z
 ---------------------------------------------------------------------
      1          8           0        0.021860   -2.460883    0.000000
      2          1           0       -0.778147   -3.031405    0.000000
      3          1           0        0.820994   -3.032625    0.000000
      4          8           0        0.021860    2.469545    0.000000
      5          1           0        0.542641    3.302788    0.000000
      6          1           0       -0.935241    2.691950    0.000000
 ---------------------------------------------------------------------

 SCF Done:  E(RHF) =  -152.106237822     A.U. after   10 cycles
 E2 =    -0.5260215559D+00 EUMP2 =    -0.15263225937832D+03
 CCSD(T)
 CCSD(T)= -0.15265950180D+03

 The electronic state is 1-A'.
 Alpha  occ. eigenvalues --  -20.54977 -20.54895  -1.32270  -1.32187  -0.69680
 Alpha  occ. eigenvalues --   -0.69594  -0.55663  -0.55575  -0.49373  -0.49290
 Alpha virt. eigenvalues --    0.14377   0.14898   0.20554   0.20766   0.54786
 Alpha virt. eigenvalues --    0.55072   0.57693   0.57810   0.67321   0.70019
 Alpha virt. eigenvalues --    0.79495   0.79591   0.80922   0.81088   0.82687

 Mulliken charges:
               1
     1  O   -0.501989
     2  H    0.250003
     3  H    0.251992
     4  O   -0.501825
     5  H    0.249588
     6  H    0.252231
 Sum of Mulliken charges =  -0.00000

 Dipole moment (field-independent basis, Debye):
    X=             -0.7466    Y=             -0.1529    Z=              0.0000  Tot=              0.7621
 Quadrupole moment (field-independent basis, Debye-Ang):
   XX=             -8.1137   YY=              7.1966   ZZ=            -14.7101
   XY=             -1.2327   XZ=              0.0000   YZ=              0.0000

 Normal termination of Gaussian 16 at Fri Aug 26 19:41:16 2022.
