 Gaussian 16, Revision A.03,
 Gaussian 16:  ES64L-G16RevA.03 25-Dec-2016

 ------------------
 #p CCSD(T)/cc-pVTZ
 ------------------

 -----------
 H2O_H2O_324
 -----------
 Symbolic Z-matrix:
 Charge =  0 Multiplicity = 1

                         Standard orientation:
 ---------------------------------------------------------------------
 Center     Atomic      Atomic             Coordinates (Angstroms)
 Number     Number       Type             X           Y           Z
 ---------------------------------------------------------------------
      1          8           0        0.057405   -0.901427    0.000000
      2          1           0       -0.745085   -1.468449    0.000000
      3          1           0        0.854036   -1.476654    0.000000
      4          8           0        0.057405    1.015066    0.000000
      5          1           0       -0.509617    1.817556    0.000000
      6          1           0       -0.517821    0.218434    0.000000
 ---------------------------------------------------------------------

 SCF Done:  E(RHF) =  -152.012936466     A.U. after   11 cycles
 E2 =    -0.5412407370D+00 EUMP2 =    -0.15255417720341D+03
 CCSD(T)
 CCSD(T)= -0.15257959959D+03

 The electronic state is 1-A'.
 Alpha  occ. eigenvalues --  -20.57758 -20.47348  -1.39844  -1.26068  -0.77577
 Alpha  occ. eigenvalues --   -0.72479  -0.54977  -0.50462  -0.48232  -0.42896
 Alpha virt. eigenvalues --    0.12359   0.18037   0.20253   0.27999   0.48372
 Alpha virt. eigenvalues --    0.53539   0.63417   0.69465   0.72898   0.74462
 Alpha virt. eigenvalues --    0.77168   0.79003   0.83888   0.85766   0.88213

 Mulliken charges:
               1
     1  O   -0.330319
     2  H    0.196652
     3  H    0.236324
     4  O   -0.551851
     5  H    0.175243
     6  H    0.273951
 Sum of Mulliken charges =  -0.00000

 Dipole moment (field-independent basis, Debye):
    X=             -1.6064    Y=             -2.9941    Z=              0.0000  Tot=              3.3978
 Quadrupole moment (field-independent basis, Debye-Ang):
   XX=             -9.8065   YY=             -7.8592   ZZ=            -14.5848
   XY=             -2.2167   XZ=              0.0000   YZ=              0.0000

 Normal termination of Gaussian 16 at Fri Aug 26 15:16:16 2022.
