 Gaussian 16, Revision A.03,
 Gaussian 16:  ES64L-G16RevA.03 25-Dec-2016

 ------------------
 #p CCSD(T)/cc-pVTZ
 ------------------

 ------------
 H2O_H2O_2630
 ------------
 Symbolic Z-matrix:
 Charge =  0 Multiplicity = 1

                         Standard orientation:
 ---------------------------------------------------------------------
 Center     Atomic      Atomic             Coordinates (Angstroms)
 Number     Number       Type             X           Y           Z
 ---------------------------------------------------------------------
      1          8           0        0.018361   -2.196391    0.000000
      2          1           0       -0.781621   -2.766949    0.000000
      3          1           0        0.817521   -2.768098    0.000000
      4          8           0        0.018361    2.202427    0.000000
      5          1           0        0.592488    2.999851    0.000000
      6          1           0       -0.922157    2.486911    0.000000
 ---------------------------------------------------------------------

 SCF Done:  E(RHF) =  -152.105739870     A.U. after   10 cycles
 E2 =    -0.5261275626D+00 EUMP2 =    -0.15263186743223D+03
 CCSD(T)
 CCSD(T)= -0.15265911442D+03

 The electronic state is 1-A'.
 Alpha  occ. eigenvalues --  -20.54794 -20.54721  -1.32083  -1.32009  -0.69496
 Alpha  occ. eigenvalues --   -0.69419  -0.55485  -0.55328  -0.49184  -0.49109
 Alpha virt. eigenvalues --    0.14258   0.15271   0.20590   0.20950   0.54648
 Alpha virt. eigenvalues --    0.55491   0.57801   0.57977   0.65067   0.72511
 Alpha virt. eigenvalues --    0.79589   0.79861   0.81128   0.81174   0.82203

 Mulliken charges:
               1
     1  O   -0.498800
     2  H    0.248275
     3  H    0.250550
     4  O   -0.498616
     5  H    0.247872
     6  H    0.250718
 Sum of Mulliken charges =  -0.00000

 Dipole moment (field-independent basis, Debye):
    X=             -0.6241    Y=             -0.1077    Z=              0.0000  Tot=              0.6333
 Quadrupole moment (field-independent basis, Debye-Ang):
   XX=             -8.0345   YY=              5.2331   ZZ=            -14.7097
   XY=             -0.8562   XZ=              0.0000   YZ=              0.0000

 Normal termination of Gaussian 16 at Fri Aug 26 14:31:17 2022.
