 Gaussian 16, Revision A.03,
 Gaussian 16:  ES64L-G16RevA.03 25-Dec-2016

 ------------------
 #p CCSD(T)/cc-pVTZ
 ------------------

 -----------
 H2O_H2O_866
 -----------
 Symbolic Z-matrix:
 Charge =  0 Multiplicity = 1

                         Standard orientation:
 ---------------------------------------------------------------------
 Center     Atomic      Atomic             Coordinates (Angstroms)
 Number     Number       Type             X           Y           Z
 ---------------------------------------------------------------------
      1          8           0        0.049558   -1.224820    0.000000
      2          1           0       -0.751949   -1.793232    0.000000
      3          1           0        0.847184   -1.798666    0.000000
      4          8           0        0.049558    1.281597    0.000000
      5          1           0       -0.041947    2.259929    0.000000
      6          1           0       -0.846219    0.877755    0.000000
 ---------------------------------------------------------------------

 SCF Done:  E(RHF) =  -152.098416338     A.U. after   11 cycles
 E2 =    -0.5293234942D+00 EUMP2 =    -0.15262773983230D+03
 CCSD(T)
 CCSD(T)= -0.15265489608D+03

 The electronic state is 1-A'.
 Alpha  occ. eigenvalues --  -20.54908 -20.52853  -1.32583  -1.30087  -0.69974
 Alpha  occ. eigenvalues --   -0.67958  -0.56265  -0.52360  -0.49718  -0.47077
 Alpha virt. eigenvalues --    0.13751   0.17551   0.20001   0.23809   0.53002
 Alpha virt. eigenvalues --    0.57453   0.58719   0.59862   0.70945   0.75104
 Alpha virt. eigenvalues --    0.77541   0.80551   0.83055   0.84447   0.85045

 Mulliken charges:
               1
     1  O   -0.469952
     2  H    0.229351
     3  H    0.247894
     4  O   -0.470326
     5  H    0.213867
     6  H    0.249165
 Sum of Mulliken charges =  -0.00000

 Dipole moment (field-independent basis, Debye):
    X=             -1.5494    Y=             -1.1264    Z=              0.0000  Tot=              1.9156
 Quadrupole moment (field-independent basis, Debye-Ang):
   XX=             -9.4194   YY=             -3.6431   ZZ=            -14.7242
   XY=             -1.5543   XZ=              0.0000   YZ=              0.0000

 Normal termination of Gaussian 16 at Fri Aug 26 20:41:59 2022.
