 Gaussian 16, Revision A.03,
 Gaussian 16:  ES64L-G16RevA.03 25-Dec-2016

 ------------------
 #p CCSD(T)/cc-pVTZ
 ------------------

 ------------
 H2O_H2O_4052
 ------------
 Symbolic Z-matrix:
 Charge =  0 Multiplicity = 1

                         Standard orientation:
 ---------------------------------------------------------------------
 Center     Atomic      Atomic             Coordinates (Angstroms)
 Number     Number       Type             X           Y           Z
 ---------------------------------------------------------------------
      1          8           0        0.007455   -2.957007    0.000000
      2          1           0       -0.792240   -3.527966    0.000000
      3          1           0        0.806902   -3.528313    0.000000
      4          8           0        0.007455    2.957981    0.000000
      5          1           0        0.725783    3.628436    0.000000
      6          1           0       -0.859724    3.420050    0.000000
 ---------------------------------------------------------------------

 SCF Done:  E(RHF) =  -152.106677051     A.U. after   10 cycles
 E2 =    -0.5259483122D+00 EUMP2 =    -0.15263262536364D+03
 CCSD(T)
 CCSD(T)= -0.15265986073D+03

 The electronic state is 1-A'.
 Alpha  occ. eigenvalues --  -20.55129 -20.55122  -1.32424  -1.32417  -0.69831
 Alpha  occ. eigenvalues --   -0.69825  -0.55837  -0.55831  -0.49530  -0.49523
 Alpha virt. eigenvalues --    0.14458   0.14524   0.20514   0.20542   0.54732
 Alpha virt. eigenvalues --    0.54753   0.57589   0.57604   0.68317   0.68511
 Alpha virt. eigenvalues --    0.79348   0.79355   0.80794   0.80803   0.82725

 Mulliken charges:
               1
     1  O   -0.504556
     2  H    0.252074
     3  H    0.252482
     4  O   -0.504548
     5  H    0.251994
     6  H    0.252553
 Sum of Mulliken charges =  -0.00000

 Dipole moment (field-independent basis, Debye):
    X=             -0.2558    Y=             -0.0170    Z=              0.0000  Tot=              0.2564
 Quadrupole moment (field-independent basis, Debye-Ang):
   XX=             -7.8404   YY=             11.5556   ZZ=            -14.7105
   XY=             -0.5266   XZ=              0.0000   YZ=              0.0000

 93107\MP4DQ=-152.6417504\MP4SDQ=-152.6448118\CCSD=-152.644223\CCSD(T)=
 Normal termination of Gaussian 16 at Sat Aug 27 05:07:06 2022.
