 Gaussian 16, Revision A.03,
 Gaussian 16:  ES64L-G16RevA.03 25-Dec-2016

 ------------------
 #p CCSD(T)/cc-pVTZ
 ------------------

 ------------
 H2O_H2O_3673
 ------------
 Symbolic Z-matrix:
 Charge =  0 Multiplicity = 1

                         Standard orientation:
 ---------------------------------------------------------------------
 Center     Atomic      Atomic             Coordinates (Angstroms)
 Number     Number       Type             X           Y           Z
 ---------------------------------------------------------------------
      1          8           0        0.057086   -2.686935    0.000000
      2          1           0       -0.743506   -3.256635    0.000000
      3          1           0        0.855634   -3.259498    0.000000
      4          8           0        0.057086    2.793487    0.000000
      5          1           0       -0.459032    3.629626    0.000000
      6          1           0       -0.566478    2.034097    0.000000
 ---------------------------------------------------------------------

 SCF Done:  E(RHF) =  -152.107795024     A.U. after   10 cycles
 E2 =    -0.5258738161D+00 EUMP2 =    -0.15263366884026D+03
 CCSD(T)
 CCSD(T)= -0.15266087799D+03

 The electronic state is 1-A'.
 Alpha  occ. eigenvalues --  -20.55797 -20.54957  -1.33096  -1.32258  -0.70501
 Alpha  occ. eigenvalues --   -0.69651  -0.56561  -0.55713  -0.50210  -0.49375
 Alpha virt. eigenvalues --    0.13716   0.14866   0.19992   0.20962   0.54041
 Alpha virt. eigenvalues --    0.54875   0.57008   0.57792   0.67222   0.68890
 Alpha virt. eigenvalues --    0.78674   0.79489   0.80065   0.80515   0.82637

 Mulliken charges:
               1
     1  O   -0.511057
     2  H    0.253777
     3  H    0.257363
     4  O   -0.510470
     5  H    0.251331
     6  H    0.259056
 Sum of Mulliken charges =  -0.00000

 Dipole moment (field-independent basis, Debye):
    X=             -1.9574    Y=             -1.8765    Z=              0.0000  Tot=              2.7116
 Quadrupole moment (field-independent basis, Debye-Ang):
   XX=             -9.8539   YY=              1.5659   ZZ=            -14.7132
   XY=             -5.5076   XZ=              0.0000   YZ=              0.0000

 Normal termination of Gaussian 16 at Sat Aug 27 02:22:41 2022.
