 Gaussian 16, Revision A.03,
 Gaussian 16:  ES64L-G16RevA.03 25-Dec-2016

 ------------------
 #p CCSD(T)/cc-pVTZ
 ------------------

 ------------
 H2O_H2O_3644
 ------------
 Symbolic Z-matrix:
 Charge =  0 Multiplicity = 1

                         Standard orientation:
 ---------------------------------------------------------------------
 Center     Atomic      Atomic             Coordinates (Angstroms)
 Number     Number       Type             X           Y           Z
 ---------------------------------------------------------------------
      1          8           0        0.054148   -2.689511    0.000000
      2          1           0       -0.746396   -3.259278    0.000000
      3          1           0        0.852744   -3.262007    0.000000
      4          8           0        0.054148    2.766836    0.000000
      5          1           0       -0.228055    3.708042    0.000000
      6          1           0       -0.744665    2.194644    0.000000
 ---------------------------------------------------------------------

 SCF Done:  E(RHF) =  -152.107416962     A.U. after   10 cycles
 E2 =    -0.5259033728D+00 EUMP2 =    -0.15263332033453D+03
 CCSD(T)
 CCSD(T)= -0.15266053820D+03

 The electronic state is 1-A'.
 Alpha  occ. eigenvalues --  -20.55592 -20.54978  -1.32891  -1.32274  -0.70297
 Alpha  occ. eigenvalues --   -0.69669  -0.56338  -0.55718  -0.50002  -0.49388
 Alpha virt. eigenvalues --    0.13934   0.14802   0.20138   0.20861   0.54244
 Alpha virt. eigenvalues --    0.54889   0.57183   0.57774   0.67511   0.68873
 Alpha virt. eigenvalues --    0.78880   0.79480   0.80289   0.80767   0.82554

 Mulliken charges:
               1
     1  O   -0.508923
     2  H    0.252663
     3  H    0.256299
     4  O   -0.508461
     5  H    0.250837
     6  H    0.257584
 Sum of Mulliken charges =  -0.00000

 Dipole moment (field-independent basis, Debye):
    X=             -1.8561    Y=             -1.3609    Z=              0.0000  Tot=              2.3016
 Quadrupole moment (field-independent basis, Debye-Ang):
   XX=             -9.6480   YY=              4.1398   ZZ=            -14.7123
   XY=             -4.7053   XZ=              0.0000   YZ=              0.0000

 Normal termination of Gaussian 16 at Sat Aug 27 02:10:09 2022.
