 Gaussian 16, Revision A.03,
 Gaussian 16:  ES64L-G16RevA.03 25-Dec-2016

 ------------------
 #p CCSD(T)/cc-pVTZ
 ------------------

 -----------
 H2O_H2O_717
 -----------
 Symbolic Z-matrix:
 Charge =  0 Multiplicity = 1

                         Standard orientation:
 ---------------------------------------------------------------------
 Center     Atomic      Atomic             Coordinates (Angstroms)
 Number     Number       Type             X           Y           Z
 ---------------------------------------------------------------------
      1          8           0        0.051343   -1.141491    0.000000
      2          1           0       -0.750369   -1.709613    0.000000
      3          1           0        0.848761   -1.715624    0.000000
      4          8           0        0.051343    1.204811    0.000000
      5          1           0       -0.103602    2.175119    0.000000
      6          1           0       -0.816271    0.743560    0.000000
 ---------------------------------------------------------------------

 SCF Done:  E(RHF) =  -152.092431294     A.U. after   11 cycles
 E2 =    -0.5306941846D+00 EUMP2 =    -0.15262312547838D+03
 CCSD(T)
 CCSD(T)= -0.15265020048D+03

 The electronic state is 1-A'.
 Alpha  occ. eigenvalues --  -20.54965 -20.52408  -1.33001  -1.29638  -0.70369
 Alpha  occ. eigenvalues --   -0.68074  -0.56141  -0.51714  -0.50083  -0.46592
 Alpha virt. eigenvalues --    0.13678   0.17871   0.19893   0.24250   0.52434
 Alpha virt. eigenvalues --    0.57193   0.59408   0.60999   0.71367   0.74713
 Alpha virt. eigenvalues --    0.78304   0.83023   0.83025   0.84713   0.87561

 Mulliken charges:
               1
     1  O   -0.458589
     2  H    0.224539
     3  H    0.243937
     4  O   -0.465184
     5  H    0.205327
     6  H    0.249971
 Sum of Mulliken charges =  -0.00000

 Dipole moment (field-independent basis, Debye):
    X=             -1.5741    Y=             -1.2812    Z=              0.0000  Tot=              2.0296
 Quadrupole moment (field-independent basis, Debye-Ang):
   XX=             -9.5329   YY=             -4.4572   ZZ=            -14.7214
   XY=             -1.5814   XZ=              0.0000   YZ=              0.0000

 Normal termination of Gaussian 16 at Fri Aug 26 19:22:59 2022.
